   27   27  100    1
  0.9710400E+02  0.1002848E-08  0.1002848E-08  0.3000000E-08  0.5000000E-15
  1.000000000000000E-004
  CAR 
 unknown system                          
    159     34    120
 
  0.0000000E+00  0.0000000E+00  0.0000000E+00  0.1562500E-01
    1      -17.816455   1.000000
    2      -16.616412   1.000000
    3      -16.594211   1.000000
    4      -16.495801   1.000000
    5      -16.462824   1.000000
    6      -16.444378   1.000000
    7      -16.400068   1.000000
    8      -16.310153   1.000000
    9      -16.110960   1.000000
   10      -16.060954   1.000000
   11      -16.018427   1.000000
   12      -15.976312   1.000000
   13      -15.935629   1.000000
   14      -15.862462   1.000000
   15      -15.607579   1.000000
   16      -15.536692   1.000000
   17      -15.454975   1.000000
   18      -15.433114   1.000000
   19       -9.296470   1.000000
   20       -8.901890   1.000000
   21       -8.830807   1.000000
   22       -8.763583   1.000000
   23       -8.679226   1.000000
   24       -8.634030   1.000000
   25       -8.609530   1.000000
   26       -8.508813   1.000000
   27       -8.500994   1.000000
   28       -8.424845   1.000000
   29       -8.381209   1.000000
   30       -8.286427   1.000000
   31       -8.278595   1.000000
   32       -8.179282   1.000000
   33       -8.137625   1.000000
   34       -8.024585   1.000000
   35       -7.934437   1.000000
   36       -7.881312   1.000000
   37       -7.727762   1.000000
   38       -7.610050   1.000000
   39       -7.529642   1.000000
   40       -7.394638   1.000000
   41       -7.345049   1.000000
   42       -7.232200   1.000000
   43       -7.211189   1.000000
   44       -6.852317   1.000000
   45       -6.810992   1.000000
   46       -6.746862   1.000000
   47       -6.709578   1.000000
   48       -6.677353   1.000000
   49       -6.556063   1.000000
   50       -6.519628   1.000000
   51       -6.460451   1.000000
   52       -6.386477   1.000000
   53       -6.320630   1.000000
   54       -6.279266   1.000000
   55       -6.253445   1.000000
   56       -6.142255   1.000000
   57       -6.058941   1.000000
   58       -5.855432   1.000000
   59       -5.636452   1.000000
   60       -5.584913   1.000000
   61       -5.481538   1.000000
   62       -5.398497   1.000000
   63       -5.347340   1.000000
   64       -5.270003   1.000000
   65       -4.967596   1.000000
   66       -4.921941   1.000000
   67       -4.784261   1.000000
   68       -4.736854   1.000000
   69       -4.670810   1.000000
   70       -4.580907   1.000000
   71       -4.544394   1.000000
   72       -4.486624   1.000000
   73       -4.467902   1.000000
   74       -4.314800   1.000000
   75       -4.138978   1.000000
   76       -4.071079   1.000000
   77       -3.539068   0.999789
   78       -3.494923   0.999346
   79       -3.434268   0.997328
   80       -3.111965   0.693731
   81       -3.041787   0.504078
   82       -2.696254   0.007486
   83       -2.548472   0.000253
   84       -2.518068   0.000111
   85       -2.507165   0.000082
   86       -2.473648   0.000031
   87       -2.283611   0.000000
   88       -2.200615   0.000000
   89       -2.091730   0.000000
   90       -2.029434   0.000000
   91       -1.863156   0.000000
   92       -1.813268   0.000000
   93       -1.701452   0.000000
   94       -1.581298   0.000000
   95       -1.394401   0.000000
   96       -1.278882   0.000000
   97       -1.103788   0.000000
   98       -1.038082   0.000000
   99       -0.899796   0.000000
  100       -0.447638   0.000000
  101       -0.368874   0.000000
  102       -0.329081   0.000000
  103       -0.302630   0.000000
  104       -0.232065   0.000000
  105       -0.140050   0.000000
  106        0.107502   0.000000
  107        0.248236   0.000000
  108        0.298690   0.000000
  109        0.341105   0.000000
  110        0.369186   0.000000
  111        0.424865   0.000000
  112        0.676987   0.000000
  113        0.854615   0.000000
  114        0.875604   0.000000
  115        0.916264   0.000000
  116        0.989589   0.000000
  117        1.011521   0.000000
  118        1.676540   0.000000
  119        1.832900   0.000000
  120        2.184391   0.000000
 
  0.1250000E+00  0.2775558E-16  0.0000000E+00  0.3125000E-01
    1      -17.790311   1.000000
    2      -16.744957   1.000000
    3      -16.612828   1.000000
    4      -16.559657   1.000000
    5      -16.502331   1.000000
    6      -16.339526   1.000000
    7      -16.322606   1.000000
    8      -16.280440   1.000000
    9      -16.156773   1.000000
   10      -16.093776   1.000000
   11      -16.012459   1.000000
   12      -15.927729   1.000000
   13      -15.874176   1.000000
   14      -15.826334   1.000000
   15      -15.629998   1.000000
   16      -15.544411   1.000000
   17      -15.469414   1.000000
   18      -15.436185   1.000000
   19       -9.288335   1.000000
   20       -9.121082   1.000000
   21       -8.915868   1.000000
   22       -8.855841   1.000000
   23       -8.770559   1.000000
   24       -8.645554   1.000000
   25       -8.617050   1.000000
   26       -8.546710   1.000000
   27       -8.486174   1.000000
   28       -8.392086   1.000000
   29       -8.327312   1.000000
   30       -8.233450   1.000000
   31       -8.160254   1.000000
   32       -8.137332   1.000000
   33       -8.015148   1.000000
   34       -7.964487   1.000000
   35       -7.848621   1.000000
   36       -7.750972   1.000000
   37       -7.719468   1.000000
   38       -7.579173   1.000000
   39       -7.498080   1.000000
   40       -7.470746   1.000000
   41       -7.319894   1.000000
   42       -7.207370   1.000000
   43       -7.156630   1.000000
   44       -6.964211   1.000000
   45       -6.861632   1.000000
   46       -6.798014   1.000000
   47       -6.728326   1.000000
   48       -6.629256   1.000000
   49       -6.555355   1.000000
   50       -6.500027   1.000000
   51       -6.430504   1.000000
   52       -6.380735   1.000000
   53       -6.354467   1.000000
   54       -6.308990   1.000000
   55       -6.235486   1.000000
   56       -6.162457   1.000000
   57       -6.086139   1.000000
   58       -5.828165   1.000000
   59       -5.635983   1.000000
   60       -5.584456   1.000000
   61       -5.484459   1.000000
   62       -5.322961   1.000000
   63       -5.255854   1.000000
   64       -5.184108   1.000000
   65       -5.125120   1.000000
   66       -5.088776   1.000000
   67       -4.989750   1.000000
   68       -4.887775   1.000000
   69       -4.679373   1.000000
   70       -4.649274   1.000000
   71       -4.574990   1.000000
   72       -4.404717   1.000000
   73       -4.284743   1.000000
   74       -4.112200   1.000000
   75       -4.032977   1.000000
   76       -3.936195   1.000000
   77       -3.693893   0.999998
   78       -3.646779   0.999991
   79       -3.517921   0.999634
   80       -2.986217   0.350965
   81       -2.923007   0.203360
   82       -2.725282   0.012947
   83       -2.628880   0.001810
   84       -2.527682   0.000144
   85       -2.516943   0.000107
   86       -2.426244   0.000007
   87       -2.278980   0.000000
   88       -2.217093   0.000000
   89       -2.123709   0.000000
   90       -2.031756   0.000000
   91       -1.857569   0.000000
   92       -1.800673   0.000000
   93       -1.695999   0.000000
   94       -1.535759   0.000000
   95       -1.368868   0.000000
   96       -1.266003   0.000000
   97       -1.098766   0.000000
   98       -1.014845   0.000000
   99       -0.862429   0.000000
  100       -0.521251   0.000000
  101       -0.478341   0.000000
  102       -0.408693   0.000000
  103       -0.347895   0.000000
  104       -0.269665   0.000000
  105       -0.138889   0.000000
  106       -0.028085   0.000000
  107        0.133352   0.000000
  108        0.254306   0.000000
  109        0.311425   0.000000
  110        0.442186   0.000000
  111        0.459965   0.000000
  112        0.686762   0.000000
  113        0.801926   0.000000
  114        0.920403   0.000000
  115        0.980591   0.000000
  116        1.053553   0.000000
  117        1.103798   0.000000
  118        1.719747   0.000000
  119        1.872534   0.000000
  120        2.219631   0.000000
 
  0.2500000E+00  0.5551115E-16  0.0000000E+00  0.3125000E-01
    1      -17.712732   1.000000
    2      -16.976952   1.000000
    3      -16.659582   1.000000
    4      -16.577047   1.000000
    5      -16.535163   1.000000
    6      -16.297765   1.000000
    7      -16.238664   1.000000
    8      -16.233597   1.000000
    9      -16.172310   1.000000
   10      -16.099992   1.000000
   11      -16.010652   1.000000
   12      -15.863246   1.000000
   13      -15.814482   1.000000
   14      -15.699808   1.000000
   15      -15.666868   1.000000
   16      -15.578073   1.000000
   17      -15.502011   1.000000
   18      -15.451981   1.000000
   19       -9.487086   1.000000
   20       -9.232602   1.000000
   21       -9.046493   1.000000
   22       -8.970568   1.000000
   23       -8.927836   1.000000
   24       -8.748496   1.000000
   25       -8.562024   1.000000
   26       -8.505127   1.000000
   27       -8.438953   1.000000
   28       -8.375416   1.000000
   29       -8.260434   1.000000
   30       -8.208955   1.000000
   31       -8.180398   1.000000
   32       -8.049246   1.000000
   33       -7.880497   1.000000
   34       -7.785049   1.000000
   35       -7.730853   1.000000
   36       -7.654332   1.000000
   37       -7.611814   1.000000
   38       -7.537131   1.000000
   39       -7.417252   1.000000
   40       -7.358758   1.000000
   41       -7.211039   1.000000
   42       -7.164565   1.000000
   43       -7.089843   1.000000
   44       -7.013464   1.000000
   45       -6.927013   1.000000
   46       -6.853641   1.000000
   47       -6.736306   1.000000
   48       -6.679890   1.000000
   49       -6.594293   1.000000
   50       -6.540598   1.000000
   51       -6.475071   1.000000
   52       -6.385126   1.000000
   53       -6.324784   1.000000
   54       -6.239874   1.000000
   55       -6.179575   1.000000
   56       -6.129136   1.000000
   57       -6.088008   1.000000
   58       -5.834563   1.000000
   59       -5.624932   1.000000
   60       -5.600944   1.000000
   61       -5.524577   1.000000
   62       -5.445498   1.000000
   63       -5.411905   1.000000
   64       -5.346683   1.000000
   65       -5.275988   1.000000
   66       -5.129705   1.000000
   67       -5.037379   1.000000
   68       -4.939974   1.000000
   69       -4.681816   1.000000
   70       -4.650635   1.000000
   71       -4.535339   1.000000
   72       -4.281084   1.000000
   73       -4.204089   1.000000
   74       -4.093112   1.000000
   75       -3.919913   1.000000
   76       -3.897002   1.000000
   77       -3.749492   1.000000
   78       -3.651017   0.999992
   79       -3.511029   0.999563
   80       -2.910370   0.179037
   81       -2.841488   0.079846
   82       -2.740229   0.016914
   83       -2.657283   0.003378
   84       -2.566411   0.000402
   85       -2.540212   0.000203
   86       -2.413380   0.000005
   87       -2.266381   0.000000
   88       -2.230611   0.000000
   89       -2.179074   0.000000
   90       -2.042402   0.000000
   91       -1.840766   0.000000
   92       -1.767898   0.000000
   93       -1.686477   0.000000
   94       -1.453930   0.000000
   95       -1.314203   0.000000
   96       -1.230233   0.000000
   97       -1.088724   0.000000
   98       -0.968241   0.000000
   99       -0.785554   0.000000
  100       -0.681343   0.000000
  101       -0.636877   0.000000
  102       -0.551116   0.000000
  103       -0.493888   0.000000
  104       -0.351353   0.000000
  105       -0.287806   0.000000
  106       -0.174846   0.000000
  107       -0.013255   0.000000
  108        0.159407   0.000000
  109        0.184475   0.000000
  110        0.453146   0.000000
  111        0.543561   0.000000
  112        0.586401   0.000000
  113        0.855414   0.000000
  114        1.022705   0.000000
  115        1.086315   0.000000
  116        1.194129   0.000000
  117        1.287993   0.000000
  118        1.840793   0.000000
  119        1.986399   0.000000
  120        2.324224   0.000000
 
  0.3750000E+00  0.0000000E+00  0.0000000E+00  0.3125000E-01
    1      -17.586465   1.000000
    2      -17.208079   1.000000
    3      -16.700279   1.000000
    4      -16.607259   1.000000
    5      -16.510821   1.000000
    6      -16.349966   1.000000
    7      -16.228079   1.000000
    8      -16.178708   1.000000
    9      -16.126498   1.000000
   10      -16.066363   1.000000
   11      -15.971108   1.000000
   12      -15.860912   1.000000
   13      -15.744277   1.000000
   14      -15.681593   1.000000
   15      -15.648663   1.000000
   16      -15.568173   1.000000
   17      -15.543946   1.000000
   18      -15.475860   1.000000
   19       -9.718559   1.000000
   20       -9.270821   1.000000
   21       -9.155917   1.000000
   22       -9.045278   1.000000
   23       -8.913805   1.000000
   24       -8.827093   1.000000
   25       -8.513229   1.000000
   26       -8.490263   1.000000
   27       -8.385799   1.000000
   28       -8.370174   1.000000
   29       -8.248925   1.000000
   30       -8.228122   1.000000
   31       -8.148067   1.000000
   32       -8.019409   1.000000
   33       -7.885086   1.000000
   34       -7.772740   1.000000
   35       -7.697441   1.000000
   36       -7.632720   1.000000
   37       -7.547720   1.000000
   38       -7.404552   1.000000
   39       -7.316975   1.000000
   40       -7.236115   1.000000
   41       -7.177501   1.000000
   42       -7.092954   1.000000
   43       -7.020229   1.000000
   44       -6.971055   1.000000
   45       -6.860213   1.000000
   46       -6.810766   1.000000
   47       -6.717043   1.000000
   48       -6.673442   1.000000
   49       -6.576995   1.000000
   50       -6.543493   1.000000
   51       -6.402273   1.000000
   52       -6.370419   1.000000
   53       -6.282149   1.000000
   54       -6.207647   1.000000
   55       -6.117917   1.000000
   56       -6.016450   1.000000
   57       -5.986458   1.000000
   58       -5.910861   1.000000
   59       -5.874183   1.000000
   60       -5.780033   1.000000
   61       -5.751408   1.000000
   62       -5.677964   1.000000
   63       -5.604921   1.000000
   64       -5.534397   1.000000
   65       -5.223557   1.000000
   66       -5.014881   1.000000
   67       -4.951782   1.000000
   68       -4.828242   1.000000
   69       -4.763039   1.000000
   70       -4.622213   1.000000
   71       -4.591343   1.000000
   72       -4.510009   1.000000
   73       -4.152978   1.000000
   74       -4.119714   1.000000
   75       -3.965959   1.000000
   76       -3.785964   1.000000
   77       -3.585886   0.999943
   78       -3.469848   0.998806
   79       -3.392463   0.993611
   80       -2.958683   0.281830
   81       -2.920160   0.197714
   82       -2.745384   0.018504
   83       -2.629483   0.001835
   84       -2.598800   0.000898
   85       -2.489839   0.000050
   86       -2.425653   0.000007
   87       -2.265514   0.000000
   88       -2.223869   0.000000
   89       -2.198098   0.000000
   90       -2.052875   0.000000
   91       -1.816229   0.000000
   92       -1.736752   0.000000
   93       -1.686889   0.000000
   94       -1.405009   0.000000
   95       -1.274693   0.000000
   96       -1.194871   0.000000
   97       -1.096660   0.000000
   98       -0.931016   0.000000
   99       -0.817894   0.000000
  100       -0.768656   0.000000
  101       -0.700988   0.000000
  102       -0.623611   0.000000
  103       -0.604546   0.000000
  104       -0.494396   0.000000
  105       -0.464047   0.000000
  106       -0.299585   0.000000
  107       -0.095721   0.000000
  108        0.056652   0.000000
  109        0.100017   0.000000
  110        0.345354   0.000000
  111        0.571848   0.000000
  112        0.630113   0.000000
  113        0.851170   0.000000
  114        1.139963   0.000000
  115        1.178792   0.000000
  116        1.322756   0.000000
  117        1.428928   0.000000
  118        2.023652   0.000000
  119        2.161637   0.000000
  120        2.494823   0.000000
 
  0.5000000E+00  0.1110223E-15  0.0000000E+00  0.1562500E-01
    1      -17.427779   1.000000
    2      -17.403266   1.000000
    3      -16.714833   1.000000
    4      -16.619874   1.000000
    5      -16.488476   1.000000
    6      -16.382355   1.000000
    7      -16.229519   1.000000
    8      -16.179711   1.000000
    9      -16.077504   1.000000
   10      -16.028296   1.000000
   11      -15.990530   1.000000
   12      -15.842303   1.000000
   13      -15.720195   1.000000
   14      -15.695344   1.000000
   15      -15.647668   1.000000
   16      -15.580436   1.000000
   17      -15.531505   1.000000
   18      -15.483167   1.000000
   19       -9.802136   1.000000
   20       -9.297139   1.000000
   21       -9.195603   1.000000
   22       -9.083523   1.000000
   23       -8.873040   1.000000
   24       -8.791413   1.000000
   25       -8.632149   1.000000
   26       -8.460319   1.000000
   27       -8.380022   1.000000
   28       -8.336785   1.000000
   29       -8.229490   1.000000
   30       -8.179460   1.000000
   31       -8.123854   1.000000
   32       -8.037320   1.000000
   33       -7.879713   1.000000
   34       -7.821353   1.000000
   35       -7.733658   1.000000
   36       -7.638860   1.000000
   37       -7.532044   1.000000
   38       -7.375106   1.000000
   39       -7.286313   1.000000
   40       -7.240517   1.000000
   41       -7.122647   1.000000
   42       -7.034213   1.000000
   43       -6.961320   1.000000
   44       -6.902293   1.000000
   45       -6.852544   1.000000
   46       -6.745559   1.000000
   47       -6.700075   1.000000
   48       -6.625601   1.000000
   49       -6.593896   1.000000
   50       -6.462269   1.000000
   51       -6.401538   1.000000
   52       -6.355826   1.000000
   53       -6.252381   1.000000
   54       -6.169339   1.000000
   55       -6.094277   1.000000
   56       -6.068678   1.000000
   57       -6.019572   1.000000
   58       -5.956210   1.000000
   59       -5.852509   1.000000
   60       -5.841317   1.000000
   61       -5.823026   1.000000
   62       -5.761151   1.000000
   63       -5.647866   1.000000
   64       -5.608277   1.000000
   65       -5.273529   1.000000
   66       -5.109860   1.000000
   67       -4.960829   1.000000
   68       -4.843983   1.000000
   69       -4.754693   1.000000
   70       -4.612447   1.000000
   71       -4.542588   1.000000
   72       -4.517318   1.000000
   73       -4.255748   1.000000
   74       -4.098455   1.000000
   75       -3.923472   1.000000
   76       -3.691872   0.999998
   77       -3.613969   0.999975
   78       -3.358521   0.987771
   79       -3.290598   0.961602
   80       -3.011468   0.419111
   81       -2.970010   0.309482
   82       -2.760516   0.023927
   83       -2.655741   0.003269
   84       -2.590024   0.000726
   85       -2.447622   0.000014
   86       -2.427027   0.000007
   87       -2.271478   0.000000
   88       -2.217375   0.000000
   89       -2.195205   0.000000
   90       -2.054059   0.000000
   91       -1.806423   0.000000
   92       -1.721018   0.000000
   93       -1.693372   0.000000
   94       -1.393248   0.000000
   95       -1.265255   0.000000
   96       -1.184788   0.000000
   97       -1.110185   0.000000
   98       -0.917377   0.000000
   99       -0.865789   0.000000
  100       -0.779244   0.000000
  101       -0.705327   0.000000
  102       -0.648235   0.000000
  103       -0.606888   0.000000
  104       -0.571473   0.000000
  105       -0.547239   0.000000
  106       -0.358963   0.000000
  107       -0.112868   0.000000
  108        0.003836   0.000000
  109        0.080580   0.000000
  110        0.296481   0.000000
  111        0.584152   0.000000
  112        0.649729   0.000000
  113        0.847353   0.000000
  114        1.180122   0.000000
  115        1.216458   0.000000
  116        1.369082   0.000000
  117        1.480845   0.000000
  118        2.255461   0.000000
  119        2.259161   0.000000
  120        2.357978   0.000000
 
  0.0000000E+00  0.1250000E+00  0.0000000E+00  0.3125000E-01
    1      -17.790631   1.000000
    2      -16.724280   1.000000
    3      -16.616832   1.000000
    4      -16.577792   1.000000
    5      -16.497735   1.000000
    6      -16.378459   1.000000
    7      -16.314895   1.000000
    8      -16.274486   1.000000
    9      -16.147453   1.000000
   10      -16.052192   1.000000
   11      -16.006550   1.000000
   12      -15.952945   1.000000
   13      -15.915619   1.000000
   14      -15.791651   1.000000
   15      -15.621214   1.000000
   16      -15.562792   1.000000
   17      -15.459852   1.000000
   18      -15.438137   1.000000
   19       -9.286992   1.000000
   20       -9.093926   1.000000
   21       -8.912133   1.000000
   22       -8.867430   1.000000
   23       -8.764072   1.000000
   24       -8.691395   1.000000
   25       -8.607083   1.000000
   26       -8.539716   1.000000
   27       -8.477152   1.000000
   28       -8.411172   1.000000
   29       -8.375434   1.000000
   30       -8.215030   1.000000
   31       -8.181231   1.000000
   32       -8.152188   1.000000
   33       -8.012274   1.000000
   34       -7.908688   1.000000
   35       -7.823452   1.000000
   36       -7.754089   1.000000
   37       -7.685503   1.000000
   38       -7.580167   1.000000
   39       -7.532436   1.000000
   40       -7.457026   1.000000
   41       -7.325759   1.000000
   42       -7.215638   1.000000
   43       -7.163184   1.000000
   44       -6.934311   1.000000
   45       -6.904475   1.000000
   46       -6.752432   1.000000
   47       -6.725113   1.000000
   48       -6.665033   1.000000
   49       -6.587346   1.000000
   50       -6.495509   1.000000
   51       -6.440951   1.000000
   52       -6.382570   1.000000
   53       -6.334281   1.000000
   54       -6.294569   1.000000
   55       -6.244217   1.000000
   56       -6.166903   1.000000
   57       -6.045029   1.000000
   58       -5.801349   1.000000
   59       -5.701476   1.000000
   60       -5.537654   1.000000
   61       -5.461150   1.000000
   62       -5.392030   1.000000
   63       -5.252828   1.000000
   64       -5.136331   1.000000
   65       -5.125335   1.000000
   66       -5.040347   1.000000
   67       -4.994995   1.000000
   68       -4.911677   1.000000
   69       -4.738403   1.000000
   70       -4.666779   1.000000
   71       -4.623050   1.000000
   72       -4.347173   1.000000
   73       -4.218227   1.000000
   74       -4.175644   1.000000
   75       -4.031032   1.000000
   76       -3.903825   1.000000
   77       -3.750567   1.000000
   78       -3.632467   0.999986
   79       -3.466255   0.998701
   80       -2.997772   0.381701
   81       -2.922535   0.202417
   82       -2.739611   0.016731
   83       -2.586814   0.000671
   84       -2.544574   0.000228
   85       -2.489426   0.000049
   86       -2.463959   0.000023
   87       -2.299294   0.000000
   88       -2.250936   0.000000
   89       -2.133741   0.000000
   90       -2.091644   0.000000
   91       -1.825582   0.000000
   92       -1.789285   0.000000
   93       -1.625104   0.000000
   94       -1.534001   0.000000
   95       -1.368222   0.000000
   96       -1.265029   0.000000
   97       -1.104923   0.000000
   98       -1.013055   0.000000
   99       -0.874328   0.000000
  100       -0.499329   0.000000
  101       -0.459988   0.000000
  102       -0.405391   0.000000
  103       -0.394354   0.000000
  104       -0.256874   0.000000
  105       -0.127003   0.000000
  106        0.023895   0.000000
  107        0.072792   0.000000
  108        0.242853   0.000000
  109        0.276076   0.000000
  110        0.374911   0.000000
  111        0.482344   0.000000
  112        0.715952   0.000000
  113        0.768983   0.000000
  114        0.940732   0.000000
  115        1.011364   0.000000
  116        1.069777   0.000000
  117        1.126842   0.000000
  118        1.719773   0.000000
  119        1.871967   0.000000
  120        2.219818   0.000000
 
  0.1250000E+00  0.1250000E+00  0.0000000E+00  0.3125000E-01
    1      -17.738848   1.000000
    2      -16.878944   1.000000
    3      -16.743011   1.000000
    4      -16.566946   1.000000
    5      -16.422157   1.000000
    6      -16.345364   1.000000
    7      -16.288901   1.000000
    8      -16.247042   1.000000
    9      -16.137610   1.000000
   10      -16.100217   1.000000
   11      -15.991002   1.000000
   12      -15.939651   1.000000
   13      -15.805805   1.000000
   14      -15.731820   1.000000
   15      -15.653577   1.000000
   16      -15.578493   1.000000
   17      -15.495567   1.000000
   18      -15.435458   1.000000
   19       -9.329664   1.000000
   20       -9.297167   1.000000
   21       -9.115674   1.000000
   22       -8.954281   1.000000
   23       -8.775583   1.000000
   24       -8.681011   1.000000
   25       -8.562330   1.000000
   26       -8.543374   1.000000
   27       -8.485450   1.000000
   28       -8.369371   1.000000
   29       -8.272787   1.000000
   30       -8.221558   1.000000
   31       -8.171845   1.000000
   32       -8.108590   1.000000
   33       -7.991593   1.000000
   34       -7.808631   1.000000
   35       -7.755477   1.000000
   36       -7.684060   1.000000
   37       -7.589234   1.000000
   38       -7.469370   1.000000
   39       -7.414071   1.000000
   40       -7.316062   1.000000
   41       -7.304619   1.000000
   42       -7.229673   1.000000
   43       -7.121906   1.000000
   44       -7.020769   1.000000
   45       -6.948760   1.000000
   46       -6.807180   1.000000
   47       -6.772464   1.000000
   48       -6.654693   1.000000
   49       -6.591360   1.000000
   50       -6.553021   1.000000
   51       -6.438674   1.000000
   52       -6.392395   1.000000
   53       -6.342613   1.000000
   54       -6.276459   1.000000
   55       -6.188174   1.000000
   56       -6.140492   1.000000
   57       -6.053237   1.000000
   58       -5.810226   1.000000
   59       -5.718065   1.000000
   60       -5.465959   1.000000
   61       -5.436162   1.000000
   62       -5.408431   1.000000
   63       -5.389609   1.000000
   64       -5.338089   1.000000
   65       -5.139432   1.000000
   66       -5.095851   1.000000
   67       -5.020706   1.000000
   68       -4.951484   1.000000
   69       -4.914490   1.000000
   70       -4.760425   1.000000
   71       -4.439013   1.000000
   72       -4.277615   1.000000
   73       -4.131969   1.000000
   74       -4.060858   1.000000
   75       -3.939885   1.000000
   76       -3.886391   1.000000
   77       -3.805437   1.000000
   78       -3.711003   0.999999
   79       -3.484434   0.999156
   80       -2.928137   0.213771
   81       -2.825013   0.063929
   82       -2.768636   0.027350
   83       -2.597376   0.000867
   84       -2.560799   0.000348
   85       -2.533423   0.000169
   86       -2.443106   0.000012
   87       -2.315947   0.000000
   88       -2.282198   0.000000
   89       -2.184585   0.000000
   90       -2.061488   0.000000
   91       -1.813391   0.000000
   92       -1.775523   0.000000
   93       -1.621038   0.000000
   94       -1.463658   0.000000
   95       -1.320946   0.000000
   96       -1.245603   0.000000
   97       -1.091509   0.000000
   98       -0.989866   0.000000
   99       -0.830430   0.000000
  100       -0.605300   0.000000
  101       -0.565675   0.000000
  102       -0.526450   0.000000
  103       -0.508416   0.000000
  104       -0.343655   0.000000
  105       -0.155645   0.000000
  106       -0.134111   0.000000
  107       -0.046531   0.000000
  108        0.148516   0.000000
  109        0.276838   0.000000
  110        0.349949   0.000000
  111        0.570728   0.000000
  112        0.635742   0.000000
  113        0.843603   0.000000
  114        0.918790   0.000000
  115        1.069732   0.000000
  116        1.211116   0.000000
  117        1.275176   0.000000
  118        1.801958   0.000000
  119        1.948940   0.000000
  120        2.289706   0.000000
 
  0.2500000E+00  0.1250000E+00  0.0000000E+00  0.3125000E-01
    1      -17.637131   1.000000
    2      -17.089252   1.000000
    3      -16.838752   1.000000
    4      -16.540112   1.000000
    5      -16.412524   1.000000
    6      -16.320371   1.000000
    7      -16.268800   1.000000
    8      -16.215282   1.000000
    9      -16.126233   1.000000
   10      -16.082705   1.000000
   11      -15.974485   1.000000
   12      -15.909203   1.000000
   13      -15.757051   1.000000
   14      -15.682154   1.000000
   15      -15.633521   1.000000
   16      -15.589269   1.000000
   17      -15.550356   1.000000
   18      -15.439374   1.000000
   19       -9.599299   1.000000
   20       -9.361059   1.000000
   21       -9.248813   1.000000
   22       -8.976347   1.000000
   23       -8.847613   1.000000
   24       -8.664025   1.000000
   25       -8.515610   1.000000
   26       -8.470087   1.000000
   27       -8.402394   1.000000
   28       -8.349438   1.000000
   29       -8.267870   1.000000
   30       -8.233425   1.000000
   31       -8.175258   1.000000
   32       -8.079033   1.000000
   33       -8.015456   1.000000
   34       -7.835034   1.000000
   35       -7.799414   1.000000
   36       -7.532303   1.000000
   37       -7.459294   1.000000
   38       -7.379210   1.000000
   39       -7.303388   1.000000
   40       -7.250923   1.000000
   41       -7.200613   1.000000
   42       -7.113749   1.000000
   43       -7.074233   1.000000
   44       -7.020792   1.000000
   45       -6.855535   1.000000
   46       -6.830838   1.000000
   47       -6.756807   1.000000