       N       E                     dE             d eps       ncg     rms          rms(c)
DAV:   1     0.112571854218E+04    0.11257E+04   -0.35983E+04  8160   0.577E+02
DAV:   2    -0.325741645322E+01   -0.11290E+04   -0.10888E+04 11160   0.173E+02
DAV:   3    -0.199726402276E+03   -0.19647E+03   -0.18847E+03 10880   0.820E+01
DAV:   4    -0.208977604775E+03   -0.92512E+01   -0.89790E+01 12240   0.262E+01
DAV:   5    -0.209288277757E+03   -0.31067E+00   -0.30973E+00 11640   0.343E+00    0.275E+01
DAV:   6    -0.236754106398E+03   -0.27466E+02   -0.11030E+02 12600   0.603E+01    0.594E+01
DAV:   7    -0.196695580739E+03    0.40059E+02   -0.17925E+02 13360   0.152E+02    0.203E+01
DAV:   8    -0.190043234061E+03    0.66523E+01   -0.20752E+01 11880   0.134E+01    0.136E+01
DAV:   9    -0.188248200767E+03    0.17950E+01   -0.31256E+00 12040   0.628E+00    0.921E+00
DAV:  10    -0.187060063533E+03    0.11881E+01   -0.18272E+00 13360   0.774E+00    0.301E+00
DAV:  11    -0.187001597263E+03    0.58466E-01   -0.63180E-01 12840   0.250E+00    0.256E+00
DAV:  12    -0.187127945959E+03   -0.12635E+00   -0.69569E-01 12720   0.464E+00    0.514E+00
DAV:  13    -0.186914324686E+03    0.21362E+00   -0.56180E-01 12840   0.399E+00    0.198E+00
DAV:  14    -0.186901889103E+03    0.12436E-01   -0.13019E-01 13160   0.220E+00    0.191E+00
DAV:  15    -0.186872939501E+03    0.28950E-01   -0.68785E-02 12560   0.163E+00    0.731E-01
DAV:  16    -0.186868350757E+03    0.45887E-02   -0.96873E-03 12400   0.368E-01    0.450E-01
DAV:  17    -0.186866027433E+03    0.23233E-02   -0.75001E-03 12800   0.365E-01    0.198E-01
DAV:  18    -0.186865473409E+03    0.55402E-03   -0.18070E-03 11520   0.126E-01    0.141E-01
DAV:  19    -0.186865299631E+03    0.17378E-03   -0.63966E-04 10000   0.107E-01    0.446E-02
DAV:  20    -0.186866131018E+03   -0.83139E-03   -0.75861E-04  9080   0.506E-02    0.379E-02
DAV:  21    -0.186866766011E+03   -0.63499E-03   -0.19490E-04  8240   0.392E-02    0.358E-02
DAV:  22    -0.186867845743E+03   -0.10797E-02   -0.17068E-04  7560   0.474E-02    0.383E-02
DAV:  23    -0.186869005243E+03   -0.11595E-02   -0.13406E-04  7600   0.456E-02    0.145E-02
DAV:  24    -0.186869599956E+03   -0.59471E-03   -0.29583E-05  6640   0.162E-02    0.455E-03
DAV:  25    -0.186869952883E+03   -0.35293E-03   -0.15866E-05  5600   0.937E-03    0.409E-03
DAV:  26    -0.186870199281E+03   -0.24640E-03   -0.94296E-06  6720   0.702E-03    0.156E-03
DAV:  27    -0.186870288161E+03   -0.88880E-04   -0.32840E-06  7200   0.417E-03
   1 F= -.18687029E+03 E0= -.18669830E+03  d E =-.186870E+03
       N       E                     dE             d eps       ncg     rms          rms(c)
DAV:   1    -0.187506907432E+03   -0.63671E+00   -0.27169E+02  8160   0.350E+01    0.462E+00
DAV:   2    -0.189392914818E+03   -0.18860E+01   -0.20194E+01 12240   0.152E+01    0.890E+00
DAV:   3    -0.189401653046E+03   -0.87382E-02   -0.45541E+00 12320   0.122E+01    0.675E+00
DAV:   4    -0.188784938272E+03    0.61671E+00   -0.62347E-01 12400   0.477E+00    0.217E+00
DAV:   5    -0.188893585956E+03   -0.10865E+00   -0.45430E-01 11240   0.376E+00    0.532E+00
DAV:   6    -0.188758791164E+03    0.13479E+00   -0.75406E-01 12640   0.420E+00    0.227E+00
DAV:   7    -0.188711861709E+03    0.46929E-01   -0.21009E-01 11680   0.172E+00    0.175E+00
DAV:   8    -0.188711120128E+03    0.74158E-03   -0.14219E-01 12920   0.216E+00    0.203E+00
DAV:   9    -0.188680451945E+03    0.30668E-01   -0.49812E-02 12120   0.125E+00    0.499E-01
DAV:  10    -0.188677593123E+03    0.28588E-02   -0.62901E-03 11240   0.284E-01    0.296E-01
DAV:  11    -0.188677152393E+03    0.44073E-03   -0.32797E-03 12920   0.240E-01    0.135E-01
DAV:  12    -0.188677035351E+03    0.11704E-03   -0.11529E-03 11840   0.108E-01    0.968E-02
DAV:  13    -0.188677050344E+03   -0.14993E-04   -0.25433E-04  7440   0.648E-02
   2 F= -.18867705E+03 E0= -.18853553E+03  d E =-.180676E+01
       N       E                     dE             d eps       ncg     rms          rms(c)
DAV:   1    -0.190595059832E+03   -0.19180E+01   -0.31141E+01  9120   0.142E+01    0.444E+00
DAV:   2    -0.190557996495E+03    0.37063E-01   -0.27963E+00 11200   0.950E+00    0.732E+00
DAV:   3    -0.190080845694E+03    0.47715E+00   -0.13977E+00 12360   0.858E+00    0.423E+00
DAV:   4    -0.189876639935E+03    0.20421E+00   -0.76211E-01 12760   0.420E+00    0.265E+00
DAV:   5    -0.189916024281E+03   -0.39384E-01   -0.47390E-01 12240   0.403E+00    0.373E+00
DAV:   6    -0.189772497335E+03    0.14353E+00   -0.21447E-01 12280   0.315E+00    0.678E-01
DAV:   7    -0.189765817792E+03    0.66795E-02   -0.16719E-02 12120   0.511E-01    0.243E-01
DAV:   8    -0.189766769217E+03   -0.95142E-03   -0.46431E-03 11720   0.370E-01    0.380E-01
DAV:   9    -0.189765796908E+03    0.97231E-03   -0.25506E-03 10400   0.329E-01    0.151E-01
DAV:  10    -0.189765986362E+03   -0.18945E-03   -0.92538E-04 10120   0.131E-01    0.125E-01
DAV:  11    -0.189765808859E+03    0.17750E-03   -0.43982E-04  8800   0.755E-02    0.170E-02
DAV:  12    -0.189765829139E+03   -0.20280E-04   -0.63111E-05  7400   0.246E-02
   3 F= -.18976583E+03 E0= -.18964557E+03  d E =-.108878E+01
       N       E                     dE             d eps       ncg     rms          rms(c)
DAV:   1    -0.191335666075E+03   -0.15699E+01   -0.76304E+01  8160   0.199E+01    0.461E+00
DAV:   2    -0.191178766300E+03    0.15690E+00   -0.54250E+00 13200   0.789E+00    0.483E+00
DAV:   3    -0.191283800329E+03   -0.10503E+00   -0.16092E+00 12240   0.913E+00    0.650E+00
DAV:   4    -0.190883063828E+03    0.40074E+00   -0.12620E+00 12840   0.734E+00    0.269E+00
DAV:   5    -0.190804183123E+03    0.78881E-01   -0.33501E-01 12280   0.294E+00    0.206E+00
DAV:   6    -0.190775474190E+03    0.28709E-01   -0.17332E-01 12560   0.274E+00    0.159E+00
DAV:   7    -0.190755350758E+03    0.20123E-01   -0.61083E-02 11840   0.147E+00    0.478E-01
DAV:   8    -0.190752479503E+03    0.28713E-02   -0.89272E-03 11680   0.468E-01    0.326E-01
DAV:   9    -0.190751861258E+03    0.61824E-03   -0.28947E-03 11280   0.370E-01    0.213E-01
DAV:  10    -0.190751981862E+03   -0.12060E-03   -0.15255E-03 11360   0.207E-01    0.138E-01
DAV:  11    -0.190751758126E+03    0.22374E-03   -0.92013E-04 10000   0.111E-01    0.470E-02
DAV:  12    -0.190751753846E+03    0.42806E-05   -0.14187E-04  7440   0.442E-02
   4 F= -.19075175E+03 E0= -.19064671E+03  d E =-.985925E+00
       N       E                     dE             d eps       ncg     rms          rms(c)
DAV:   1    -0.192124491581E+03   -0.13727E+01   -0.16509E+02  8160   0.287E+01    0.571E+00
DAV:   2    -0.191856915429E+03    0.26758E+00   -0.95776E+00 11280   0.814E+00    0.381E+00
DAV:   3    -0.191992946334E+03   -0.13603E+00   -0.20042E+00 11880   0.847E+00    0.730E+00
DAV:   4    -0.191750055089E+03    0.24289E+00   -0.24437E+00 11440   0.106E+01    0.452E+00
DAV:   5    -0.191582228870E+03    0.16783E+00   -0.75991E-01 12280   0.572E+00    0.340E+00
DAV:   6    -0.191438557587E+03    0.14367E+00   -0.27097E-01 12320   0.376E+00    0.121E+00
DAV:   7    -0.191431105597E+03    0.74520E-02   -0.73911E-02 12320   0.146E+00    0.862E-01
DAV:   8    -0.191428887917E+03    0.22177E-02   -0.35460E-02 12080   0.125E+00    0.776E-01
DAV:   9    -0.191422229318E+03    0.66586E-02   -0.10657E-02 12440   0.698E-01    0.183E-01
DAV:  10    -0.191422532376E+03   -0.30306E-03   -0.23513E-03 11000   0.179E-01    0.110E-01
DAV:  11    -0.191422378953E+03    0.15342E-03   -0.65633E-04 11120   0.978E-02    0.544E-02
DAV:  12    -0.191422363012E+03    0.15941E-04   -0.10741E-04  7040   0.455E-02
   5 F= -.19142236E+03 E0= -.19131973E+03  d E =-.670609E+00
       N       E                     dE             d eps       ncg     rms          rms(c)
DAV:   1    -0.191493588421E+03   -0.71209E-01   -0.59786E+00  8160   0.515E+00    0.682E-01
DAV:   2    -0.191564740812E+03   -0.71152E-01   -0.31959E-01 13520   0.317E+00    0.239E+00
DAV:   3    -0.191507531315E+03    0.57209E-01   -0.12100E-01 12360   0.243E+00    0.498E-01
DAV:   4    -0.191509317645E+03   -0.17863E-02   -0.18501E-02 11440   0.872E-01    0.691E-01
DAV:   5    -0.191504637757E+03    0.46799E-02   -0.10514E-02 11480   0.680E-01    0.224E-01
DAV:   6    -0.191504511956E+03    0.12580E-03   -0.27490E-03 10520   0.244E-01    0.192E-01
DAV:   7    -0.191505096934E+03   -0.58498E-03   -0.36424E-03 11520   0.398E-01    0.336E-01
DAV:   8    -0.191503987402E+03    0.11095E-02   -0.19976E-03  9560   0.294E-01    0.413E-02
DAV:   9    -0.191503999250E+03   -0.11848E-04   -0.10339E-04  5800   0.419E-02
   6 F= -.19150400E+03 E0= -.19139900E+03  d E =-.816362E-01
       N       E                     dE             d eps       ncg     rms          rms(c)
DAV:   1    -0.191550428730E+03   -0.46441E-01   -0.22798E+00  8160   0.317E+00    0.363E-01
DAV:   2    -0.191566104522E+03   -0.15676E-01   -0.75438E-02 13600   0.129E+00    0.111E+00
DAV:   3    -0.191553588790E+03    0.12516E-01   -0.31100E-02 12240   0.120E+00    0.325E-01
DAV:   4    -0.191554064503E+03   -0.47571E-03   -0.62971E-03 11080   0.494E-01    0.397E-01
DAV:   5    -0.191552531232E+03    0.15333E-02   -0.35745E-03 11040   0.399E-01    0.124E-01
DAV:   6    -0.191552482561E+03    0.48671E-04   -0.78980E-04 10080   0.121E-01
   7 F= -.19155248E+03 E0= -.19144670E+03  d E =-.484833E-01
       N       E                     dE             d eps       ncg     rms          rms(c)
DAV:   1    -0.191521967864E+03    0.30563E-01   -0.82512E-01  8160   0.192E+00    0.243E-01
DAV:   2    -0.191531208056E+03   -0.92402E-02   -0.35284E-02 13520   0.106E+00    0.870E-01
DAV:   3    -0.191523015757E+03    0.81923E-02   -0.13694E-02 11360   0.857E-01    0.175E-01
DAV:   4    -0.191523266844E+03   -0.25109E-03   -0.19674E-03  9920   0.292E-01    0.226E-01
DAV:   5    -0.191522741202E+03    0.52564E-03   -0.10974E-03 10160   0.224E-01    0.689E-02
DAV:   6    -0.191522738933E+03    0.22683E-05   -0.22903E-04  6560   0.786E-02
   8 F= -.19152274E+03 E0= -.19141742E+03  d E =0.297436E-01
       N       E                     dE             d eps       ncg     rms          rms(c)
DAV:   1    -0.191380786777E+03    0.14195E+00   -0.19036E+01  8160   0.925E+00    0.998E-01
DAV:   2    -0.191476084408E+03   -0.95298E-01   -0.57814E-01 12880   0.319E+00    0.244E+00
DAV:   3    -0.191409396284E+03    0.66688E-01   -0.13905E-01 11920   0.276E+00    0.851E-01
DAV:   4    -0.191411841059E+03   -0.24448E-02   -0.36394E-02 12240   0.122E+00    0.105E+00
DAV:   5    -0.191401517309E+03    0.10324E-01   -0.25599E-02 11400   0.111E+00    0.354E-01
DAV:   6    -0.191401496419E+03    0.20890E-04   -0.64682E-03 10920   0.400E-01    0.273E-01
DAV:   7    -0.191400996049E+03    0.50037E-03   -0.49321E-03 12880   0.436E-01    0.324E-01
DAV:   8    -0.191400020808E+03    0.97524E-03   -0.21383E-03  9960   0.309E-01    0.695E-02
DAV:   9    -0.191399996108E+03    0.24700E-04   -0.19099E-04  6360   0.658E-02
   9 F= -.19140000E+03 E0= -.19129811E+03  d E =0.122743E+00
       N       E                     dE             d eps       ncg     rms          rms(c)
DAV:   1    -0.191340660115E+03    0.59361E-01   -0.11117E+01  8160   0.706E+00    0.748E-01
DAV:   2    -0.191386875353E+03   -0.46215E-01   -0.27438E-01 13480   0.239E+00    0.183E+00
DAV:   3    -0.191352131492E+03    0.34744E-01   -0.77746E-02 12120   0.209E+00    0.667E-01
DAV:   4    -0.191353441032E+03   -0.13095E-02   -0.20755E-02 11280   0.969E-01    0.782E-01
DAV:   5    -0.191347634409E+03    0.58066E-02   -0.15381E-02 11080   0.889E-01    0.318E-01
DAV:   6    -0.191346845180E+03    0.78923E-03   -0.39849E-03 11040   0.322E-01    0.151E-01
DAV:   7    -0.191346418393E+03    0.42679E-03   -0.12509E-03 11360   0.132E-01    0.558E-02
DAV:   8    -0.191346366238E+03    0.52155E-04   -0.17414E-04  7120   0.627E-02
  10 F= -.19134637E+03 E0= -.19124735E+03  d E =0.536299E-01
       N       E                     dE             d eps       ncg     rms          rms(c)
DAV:   1    -0.191354189533E+03   -0.77711E-02   -0.80358E+00  8160   0.603E+00    0.609E-01
DAV:   2    -0.191374173525E+03   -0.19984E-01   -0.17674E-01 13600   0.157E+00    0.120E+00
DAV:   3    -0.191365051192E+03    0.91223E-02   -0.52913E-02 11800   0.157E+00    0.714E-01
DAV:   4    -0.191361050068E+03    0.40011E-02   -0.10943E-02 12240   0.697E-01    0.371E-01
DAV:   5    -0.191360815371E+03    0.23470E-03   -0.71410E-03 11600   0.662E-01    0.396E-01
DAV:   6    -0.191359351323E+03    0.14640E-02   -0.39766E-03 11600   0.425E-01    0.128E-01
DAV:   7    -0.191359105052E+03    0.24627E-03   -0.90365E-04 10640   0.138E-01    0.755E-02
DAV:   8    -0.191359077116E+03    0.27936E-04   -0.29091E-04  8760   0.114E-01
  11 F= -.19135908E+03 E0= -.19125936E+03  d E =-.127109E-01
       N       E                     dE             d eps       ncg     rms          rms(c)
DAV:   1    -0.191393158931E+03   -0.34054E-01   -0.59302E+00  8160   0.521E+00    0.584E-01
DAV:   2    -0.191416141489E+03   -0.22983E-01   -0.16721E-01 13280   0.190E+00    0.129E+00
DAV:   3    -0.191400473064E+03    0.15668E-01   -0.49473E-02 12240   0.159E+00    0.513E-01
DAV:   4    -0.191400713872E+03   -0.24081E-03   -0.12492E-02 11800   0.766E-01    0.586E-01
DAV:   5    -0.191397840750E+03    0.28731E-02   -0.86339E-03 11520   0.714E-01    0.313E-01
DAV:   6    -0.191396879734E+03    0.96102E-03   -0.32645E-03 11520   0.312E-01    0.121E-01
DAV:   7    -0.191396935061E+03   -0.55327E-04   -0.12612E-03 10520   0.209E-01    0.170E-01
DAV:   8    -0.191396649173E+03    0.28589E-03   -0.65046E-04  8720   0.182E-01    0.502E-02
DAV:   9    -0.191396633426E+03    0.15747E-04   -0.73586E-05  6080   0.496E-02
  12 F= -.19139663E+03 E0= -.19129546E+03  d E =-.375563E-01
       N       E                     dE             d eps       ncg     rms          rms(c)
DAV:   1    -0.191437045864E+03   -0.40397E-01   -0.47391E+00  8160   0.466E+00    0.519E-01
DAV:   2    -0.191453990311E+03   -0.16944E-01   -0.14661E-01 13360   0.160E+00    0.100E+00
DAV:   3    -0.191444758436E+03    0.92319E-02   -0.36075E-02 12320   0.137E+00    0.496E-01
DAV:   4    -0.191443535904E+03    0.12225E-02   -0.95683E-03 11440   0.641E-01    0.437E-01
DAV:   5    -0.191442205691E+03    0.13302E-02   -0.62483E-03 11400   0.597E-01    0.307E-01
DAV:   6    -0.191441316077E+03    0.88961E-03   -0.31281E-03 11280   0.336E-01    0.124E-01
DAV:   7    -0.191441241351E+03    0.74726E-04   -0.93112E-04 10520   0.163E-01
  13 F= -.19144124E+03 E0= -.19133941E+03  d E =-.446079E-01
       N       E                     dE             d eps       ncg     rms          rms(c)
DAV:   1    -0.191429504499E+03    0.11812E-01   -0.29149E-01  8160   0.116E+00    0.142E-01
DAV:   2    -0.191431441412E+03   -0.19369E-02   -0.10616E-02 13560   0.476E-01    0.410E-01
DAV:   3    -0.191429843422E+03    0.15980E-02   -0.35138E-03 11480   0.433E-01    0.119E-01
DAV:   4    -0.191429779806E+03    0.63616E-04   -0.51949E-04  8480   0.148E-01
  14 F= -.19142978E+03 E0= -.19132796E+03  d E =0.114615E-01
       N       E                     dE             d eps       ncg     rms          rms(c)
DAV:   1    -0.191351694886E+03    0.78149E-01   -0.12931E+01  8160   0.767E+00    0.829E-01
DAV:   2    -0.191389424073E+03   -0.37729E-01   -0.36352E-01 13160   0.222E+00    0.143E+00
DAV:   3    -0.191374726906E+03    0.14697E-01   -0.82024E-02 11440   0.203E+00    0.105E+00
DAV:   4    -0.191367185785E+03    0.75411E-02   -0.30936E-02 12120   0.116E+00    0.587E-01
DAV:   5    -0.191364273955E+03    0.29118E-02   -0.12317E-02 11400   0.815E-01    0.461E-01
DAV:   6    -0.191362698669E+03    0.15753E-02   -0.78437E-03 11880   0.617E-01    0.262E-01
DAV:   7    -0.191361843439E+03    0.85523E-03   -0.21675E-03 12480   0.255E-01    0.100E-01
DAV:   8    -0.191361827334E+03    0.16105E-04   -0.61395E-04  9640   0.167E-01
  15 F= -.19136183E+03 E0= -.19126092E+03  d E =0.679525E-01
       N       E                     dE             d eps       ncg     rms          rms(c)
DAV:   1    -0.191384554043E+03   -0.22711E-01   -0.18211E+00  8160   0.287E+00    0.349E-01
DAV:   2    -0.191395369943E+03   -0.10816E-01   -0.69504E-02 13560   0.124E+00    0.867E-01
DAV:   3    -0.191387699539E+03    0.76704E-02   -0.19270E-02 11960   0.103E+00    0.310E-01
DAV:   4    -0.191387612361E+03    0.87178E-04   -0.48145E-03 11040   0.446E-01    0.335E-01
DAV:   5    -0.191386638916E+03    0.97344E-03   -0.29307E-03  9840   0.385E-01    0.172E-01
DAV:   6    -0.191386301499E+03    0.33742E-03   -0.11671E-03 10360   0.187E-01    0.730E-02
DAV:   7    -0.191386245843E+03    0.55656E-04   -0.31152E-04  7600   0.729E-02
  16 F= -.19138625E+03 E0= -.19128452E+03  d E =-.244185E-01
       N       E                     dE             d eps       ncg     rms          rms(c)
DAV:   1    -0.191399648775E+03   -0.13347E-01   -0.52364E-01  8160   0.155E+00    0.193E-01
DAV:   2    -0.191402196676E+03   -0.25479E-02   -0.18830E-02 13560   0.622E-01    0.417E-01
DAV:   3    -0.191400428660E+03    0.17680E-02   -0.50108E-03 11920   0.530E-01    0.173E-01
DAV:   4    -0.191400350806E+03    0.77854E-04   -0.12927E-03  9680   0.230E-01    0.170E-01
DAV:   5    -0.191400158248E+03    0.19256E-03   -0.93439E-04  9280   0.217E-01    0.116E-01
DAV:   6    -0.191400019996E+03    0.13825E-03   -0.37381E-04  7240   0.116E-01    0.379E-02
DAV:   7    -0.191400009230E+03    0.10766E-04   -0.87075E-05  6240   0.412E-02
  17 F= -.19140001E+03 E0= -.19129790E+03  d E =-.137634E-01
       N       E                     dE             d eps       ncg     rms          rms(c)
DAV:   1    -0.191396539996E+03    0.34800E-02   -0.33880E-02  8160   0.394E-01    0.513E-02
DAV:   2    -0.191396924129E+03   -0.38413E-03   -0.15428E-03 13200   0.205E-01    0.185E-01
DAV:   3    -0.191396555601E+03    0.36853E-03   -0.65176E-04  8160   0.181E-01    0.339E-02
DAV:   4    -0.191396571336E+03   -0.15734E-04   -0.63822E-05  5440   0.566E-02
  18 F= -.19139657E+03 E0= -.19129447E+03  d E =0.343789E-02
       N       E                     dE             d eps       ncg     rms          rms(c)
DAV:   1    -0.191344538134E+03    0.52017E-01   -0.69188E+00  8160   0.559E+00    0.633E-01
DAV:   2    -0.191372675058E+03   -0.28137E-01   -0.22774E-01 13560   0.193E+00    0.121E+00
DAV:   3    -0.191357124431E+03    0.15551E-01   -0.49041E-02 12120   0.160E+00    0.607E-01
DAV:   4    -0.191355233798E+03    0.18906E-02   -0.14446E-02 11760   0.757E-01    0.489E-01
DAV:   5    -0.191353610022E+03    0.16238E-02   -0.82647E-03 11640   0.655E-01    0.387E-01
DAV:   6    -0.191352314088E+03    0.12959E-02   -0.45337E-03 11720   0.440E-01    0.164E-01
DAV:   7    -0.191352035774E+03    0.27831E-03   -0.12140E-03 11720   0.161E-01    0.625E-02
DAV:   8    -0.191351993921E+03    0.41854E-04   -0.24764E-04  8360   0.946E-02
  19 F= -.19135199E+03 E0= -.19125044E+03  d E =0.445774E-01
       N       E                     dE             d eps       ncg     rms          rms(c)
DAV:   1    -0.191310437196E+03    0.41599E-01   -0.69796E+00  8160   0.562E+00    0.636E-01
DAV:   2    -0.191341199682E+03   -0.30762E-01   -0.21484E-01 13600   0.197E+00    0.137E+00
DAV:   3    -0.191321317423E+03    0.19882E-01   -0.56172E-02 11680   0.172E+00    0.643E-01
DAV:   4    -0.191320048720E+03    0.12687E-02   -0.16271E-02 12120   0.812E-01    0.561E-01
DAV:   5    -0.191317590714E+03    0.24580E-02   -0.97576E-03 10240   0.693E-01    0.351E-01
DAV:   6    -0.191316275280E+03    0.13154E-02   -0.36533E-03 11520   0.377E-01    0.134E-01
DAV:   7    -0.191316406071E+03   -0.13079E-03   -0.13957E-03 12200   0.220E-01    0.178E-01
DAV:   8    -0.191316092913E+03    0.31316E-03   -0.75966E-04  8800   0.203E-01    0.699E-02
DAV:   9    -0.191316052075E+03    0.40838E-04   -0.11134E-04  5920   0.672E-02
  20 F= -.19131605E+03 E0= -.19121560E+03  d E =0.359418E-01
       N       E                     dE             d eps       ncg     rms          rms(c)
DAV:   1    -0.191337112625E+03   -0.21020E-01   -0.19109E+00  8160   0.295E+00    0.421E-01
DAV:   2    -0.191356170949E+03   -0.19058E-01   -0.98426E-02 13160   0.163E+00    0.121E+00
DAV:   3    -0.191340837610E+03    0.15333E-01   -0.31595E-02 12240   0.134E+00    0.328E-01
DAV:   4    -0.191341178001E+03   -0.34039E-03   -0.69413E-03 11480   0.539E-01    0.413E-01
DAV:   5    -0.191339644404E+03    0.15336E-02   -0.47334E-03 11560   0.487E-01    0.200E-01
DAV:   6    -0.191339172838E+03    0.47157E-03   -0.13565E-03 10160   0.196E-01    0.690E-02
DAV:   7    -0.191339266991E+03   -0.94153E-04   -0.65158E-04 10560   0.138E-01
  21 F= -.19133927E+03 E0= -.19123757E+03  d E =-.232149E-01
       N       E                     dE             d eps       ncg     rms          rms(c)
DAV:   1    -0.191357002374E+03   -0.17830E-01   -0.16392E+00  8160   0.273E+00    0.349E-01
DAV:   2    -0.191368658655E+03   -0.11656E-01   -0.64410E-02 13480   0.121E+00    0.919E-01
DAV:   3    -0.191359832770E+03    0.88259E-02   -0.20652E-02 12120   0.107E+00    0.319E-01
DAV:   4    -0.191359661632E+03    0.17114E-03   -0.51667E-03 11080   0.444E-01    0.310E-01
DAV:   5    -0.191358894462E+03    0.76717E-03   -0.32004E-03 11000   0.396E-01    0.190E-01
DAV:   6    -0.191358471293E+03    0.42317E-03   -0.10188E-03 10240   0.192E-01    0.612E-02
DAV:   7    -0.191358571123E+03   -0.99830E-04   -0.45560E-04  8840   0.118E-01
  22 F= -.19135857E+03 E0= -.19125611E+03  d E =-.193041E-01
       N       E                     dE             d eps       ncg     rms          rms(c)
DAV:   1    -0.191364343513E+03   -0.58722E-02   -0.48525E-01  8160   0.148E+00    0.196E-01
DAV:   2    -0.191368774913E+03   -0.44314E-02   -0.18241E-02 13600   0.726E-01    0.637E-01
DAV:   3    -0.191364757146E+03    0.40178E-02   -0.79812E-03 11720   0.655E-01    0.154E-01
DAV:   4    -0.191364756860E+03    0.28577E-06   -0.12753E-03 10080   0.204E-01    0.142E-01
DAV:   5    -0.191364594918E+03    0.16194E-03   -0.75429E-04 11040   0.195E-01    0.107E-01
DAV:   6    -0.191364481476E+03    0.11344E-03   -0.32705E-04  8200   0.123E-01    0.438E-02
DAV:   7    -0.191364522034E+03   -0.40559E-04   -0.19153E-04  6280   0.907E-02
  23 F= -.19136452E+03 E0= -.19126208E+03  d E =-.595091E-02
       N       E                     dE             d eps       ncg     rms          rms(c)
DAV:   1    -0.191381521408E+03   -0.17040E-01   -0.12845E+00  8160   0.243E+00    0.286E-01
DAV:   2    -0.191387627504E+03   -0.61061E-02   -0.41296E-02 13600   0.871E-01    0.638E-01
DAV:   3    -0.191383598024E+03    0.40295E-02   -0.11510E-02 11880   0.799E-01    0.293E-01
DAV:   4    -0.191383307751E+03    0.29027E-03   -0.37251E-03 11000   0.376E-01    0.244E-01
DAV:   5    -0.191382846296E+03    0.46145E-03   -0.22582E-03  9800   0.326E-01    0.173E-01
DAV:   6    -0.191382532273E+03    0.31402E-03   -0.84676E-04 10120   0.188E-01    0.589E-02
DAV:   7    -0.191382533636E+03   -0.13635E-05   -0.25805E-04  7200   0.768E-02
  24 F= -.19138253E+03 E0= -.19128017E+03  d E =-.180116E-01
       N       E                     dE             d eps       ncg     rms          rms(c)
DAV:   1    -0.191349661194E+03    0.32871E-01   -0.40095E+00  8160   0.428E+00    0.482E-01
DAV:   2    -0.191363670552E+03   -0.14009E-01   -0.11566E-01 13600   0.132E+00    0.915E-01
DAV:   3    -0.191355915990E+03    0.77546E-02   -0.26860E-02 11160   0.121E+00    0.547E-01
DAV:   4    -0.191354554300E+03    0.13617E-02   -0.11176E-02 12120   0.666E-01    0.412E-01
DAV:   5    -0.191353244352E+03    0.13099E-02   -0.66759E-03 11360   0.552E-01    0.300E-01
DAV:   6    -0.191352341267E+03    0.90309E-03   -0.27258E-03 11400   0.343E-01    0.112E-01
DAV:   7    -0.191352306291E+03    0.34976E-04   -0.88991E-04 11120   0.148E-01
  25 F= -.19135231E+03 E0= -.19124959E+03  d E =0.302273E-01
       N       E                     dE             d eps       ncg     rms          rms(c)
DAV:   1    -0.191337852424E+03    0.14489E-01   -0.13797E+00  8160   0.251E+00    0.286E-01
DAV:   2    -0.191344317056E+03   -0.64646E-02   -0.40241E-02 13600   0.769E-01    0.691E-01
DAV:   3    -0.191340074566E+03    0.42425E-02   -0.13875E-02 12040   0.833E-01    0.333E-01
DAV:   4    -0.191339385814E+03    0.68875E-03   -0.33013E-03 10920   0.319E-01    0.166E-01
DAV:   5    -0.191338972888E+03    0.41293E-03   -0.11459E-03 11120   0.175E-01    0.120E-01
DAV:   6    -0.191339025243E+03   -0.52355E-04   -0.79181E-04  9360   0.216E-01
  26 F= -.19133903E+03 E0= -.19123591E+03  d E =0.132810E-01
       N       E                     dE             d eps       ncg     rms          rms(c)
DAV:   1    -0.191349791886E+03   -0.10819E-01   -0.64698E-01  8160   0.172E+00    0.274E-01
DAV:   2    -0.191356738420E+03   -0.69465E-02   -0.33883E-02 13240   0.973E-01    0.793E-01
DAV:   3    -0.191350555079E+03    0.61833E-02   -0.13849E-02 11160   0.864E-01    0.253E-01
DAV:   4    -0.191350431073E+03    0.12401E-03   -0.33566E-03 11200   0.367E-01    0.253E-01
DAV:   5    -0.191349883907E+03    0.54717E-03   -0.20745E-03  9800   0.314E-01    0.143E-01
DAV:   6    -0.191349606349E+03    0.27756E-03   -0.71375E-04  9800   0.146E-01    0.400E-02
DAV:   7    -0.191349605852E+03    0.49746E-06   -0.16325E-04  6520   0.572E-02
  27 F= -.19134961E+03 E0= -.19124580E+03  d E =-.105806E-01
       N       E                     dE             d eps       ncg     rms          rms(c)
DAV:   1    -0.191351882025E+03   -0.22757E-02   -0.20558E-01  8160   0.954E-01    0.102E-01
DAV:   2    -0.191352420925E+03   -0.53890E-03   -0.53888E-03 12400   0.249E-01    0.177E-01
DAV:   3    -0.191352279058E+03    0.14187E-03   -0.14619E-03 10280   0.272E-01    0.151E-01
DAV:   4    -0.191352083731E+03    0.19533E-03   -0.44838E-04  8120   0.139E-01    0.592E-02
DAV:   5    -0.191352081416E+03    0.23150E-05   -0.17655E-04  6600   0.982E-02
  28 F= -.19135208E+03 E0= -.19124800E+03  d E =-.247556E-02
       N       E                     dE             d eps       ncg     rms          rms(c)
DAV:   1    -0.191364636211E+03   -0.12552E-01   -0.91573E-01  8160   0.203E+00    0.252E-01
DAV:   2    -0.191371090675E+03   -0.64545E-02   -0.31830E-02 13560   0.866E-01    0.704E-01
DAV:   3    -0.191365952983E+03    0.51377E-02   -0.11315E-02 11480   0.786E-01    0.229E-01
DAV:   4    -0.191366022060E+03   -0.69077E-04   -0.27291E-03 10960   0.327E-01    0.247E-01
DAV:   5    -0.191365473520E+03    0.54854E-03   -0.16843E-03  9800   0.287E-01    0.119E-01
DAV:   6    -0.191365316900E+03    0.15662E-03   -0.48343E-04  8760   0.124E-01    0.478E-02
DAV:   7    -0.191365331574E+03   -0.14674E-04   -0.18993E-04  6440   0.723E-02
  29 F= -.19136533E+03 E0= -.19126109E+03  d E =-.132502E-01
       N       E                     dE             d eps       ncg     rms          rms(c)
DAV:   1    -0.191352112211E+03    0.13205E-01   -0.78773E-01  8160   0.189E+00    0.227E-01
DAV:   2    -0.191356562225E+03   -0.44500E-02   -0.27354E-02 13600   0.722E-01    0.560E-01
DAV:   3    -0.191353402878E+03    0.31593E-02   -0.83726E-03 11520   0.659E-01    0.236E-01
DAV:   4    -0.191353231013E+03    0.17187E-03   -0.22558E-03 10480   0.295E-01    0.202E-01
DAV:   5    -0.191352905382E+03    0.32563E-03   -0.12903E-03  9640   0.246E-01    0.123E-01
DAV:   6    -0.191352725077E+03    0.18030E-03   -0.46613E-04  8560   0.131E-01    0.425E-02
DAV:   7    -0.191352736161E+03   -0.11084E-04   -0.14669E-04  6360   0.627E-02
  30 F= -.19135274E+03 E0= -.19124860E+03  d E =0.125954E-01
       N       E                     dE             d eps       ncg     rms          rms(c)
DAV:   1    -0.191316823850E+03    0.35901E-01   -0.57897E+00  8160   0.513E+00    0.589E-01
DAV:   2    -0.191342273652E+03   -0.25450E-01   -0.18818E-01 13600   0.163E+00    0.122E+00
DAV:   3    -0.191328245913E+03    0.14028E-01   -0.51234E-02 12240   0.158E+00    0.717E-01
DAV:   4    -0.191325559266E+03    0.26866E-02   -0.17100E-02 12120   0.809E-01    0.492E-01
DAV:   5    -0.191323657160E+03    0.19021E-02   -0.84933E-03 10360   0.607E-01    0.345E-01
DAV:   6    -0.191322403889E+03    0.12533E-02   -0.35902E-03 11560   0.403E-01    0.140E-01
DAV:   7    -0.191322328290E+03    0.75599E-04   -0.11400E-03 11600   0.162E-01    0.774E-02
DAV:   8    -0.191322188408E+03    0.13988E-03   -0.25610E-04  8240   0.828E-02    0.434E-02
DAV:   9    -0.191322198561E+03   -0.10152E-04   -0.12504E-04  6160   0.819E-02
  31 F= -.19132220E+03 E0= -.19121822E+03  d E =0.305376E-01
       N       E                     dE             d eps       ncg     rms          rms(c)
DAV:   1    -0.191317878786E+03    0.43096E-02   -0.38938E-01  8160   0.133E+00    0.153E-01
DAV:   2    -0.191319543395E+03   -0.16646E-02   -0.11574E-02 13600   0.419E-01    0.354E-01
DAV:   3    -0.191318525186E+03    0.10182E-02   -0.42185E-03 11440   0.436E-01    0.196E-01
DAV:   4    -0.191318235488E+03    0.28970E-03   -0.99519E-04  9480   0.181E-01    0.879E-02
DAV:   5    -0.191318170416E+03    0.65072E-04   -0.35302E-04  7960   0.111E-01
  32 F= -.19131817E+03 E0= -.19121398E+03  d E =0.402815E-02
       N       E                     dE             d eps       ncg     rms          rms(c)
DAV:   1    -0.191321917927E+03   -0.36824E-02   -0.26128E-01  8160   0.108E+00    0.155E-01
DAV:   2    -0.191326051461E+03   -0.41335E-02   -0.12235E-02 13600   0.658E-01    0.620E-01
DAV:   3    -0.191322152013E+03    0.38994E-02   -0.64916E-03 11040   0.604E-01    0.114E-01
DAV:   4    -0.191322068409E+03    0.83604E-04   -0.54267E-04  9160   0.111E-01
  33 F= -.19132207E+03 E0= -.19121771E+03  d E =-.389799E-02
       N       E                     dE             d eps       ncg     rms          rms(c)
DAV:   1    -0.191329550515E+03   -0.73985E-02   -0.43943E-01  8160   0.141E+00    0.235E-01
DAV:   2    -0.191339038697E+03   -0.94882E-02   -0.28761E-02 13120   0.988E-01    0.946E-01
DAV:   3    -0.191330241726E+03    0.87970E-02   -0.15936E-02 10960   0.903E-01    0.189E-01
DAV:   4    -0.191330247390E+03   -0.56643E-05   -0.19315E-03 10280   0.272E-01    0.183E-01
DAV:   5    -0.191329930299E+03    0.31709E-03   -0.90607E-04  9760   0.207E-01    0.825E-02
DAV:   6    -0.191329841475E+03    0.88824E-04   -0.23409E-04  7080   0.825E-02
  34 F= -.19132984E+03 E0= -.19122519E+03  d E =-.777307E-02
       N       E                     dE             d eps       ncg     rms          rms(c)
DAV:   1    -0.191337192069E+03   -0.72618E-02   -0.44029E-01  8160   0.141E+00    0.194E-01
DAV:   2    -0.191342007831E+03   -0.48158E-02   -0.19556E-02 13480   0.712E-01    0.645E-01
DAV:   3    -0.191337912669E+03    0.40952E-02   -0.83190E-03 10880   0.660E-01    0.182E-01
DAV:   4    -0.191337850215E+03    0.62454E-04   -0.15326E-03  9560   0.231E-01    0.158E-01
DAV:   5    -0.191337639411E+03    0.21080E-03   -0.80316E-04  9080   0.199E-01    0.978E-02
DAV:   6    -0.191337530070E+03    0.10934E-03   -0.27913E-04  7400   0.108E-01    0.375E-02
DAV:   7    -0.191337596219E+03   -0.66149E-04   -0.18548E-04  6800   0.917E-02
  35 F= -.19133760E+03 E0= -.19123274E+03  d E =-.775474E-02
       N       E                     dE             d eps       ncg     rms          rms(c)
DAV:   1    -0.191355362696E+03   -0.17833E-01   -0.30259E+00  8160   0.370E+00    0.479E-01
DAV:   2    -0.191383897713E+03   -0.28535E-01   -0.12506E-01 13400   0.174E+00    0.160E+00
DAV:   3    -0.191361185165E+03    0.22713E-01   -0.55816E-02 11520   0.165E+00    0.477E-01
DAV:   4    -0.191360290257E+03    0.89491E-03   -0.99319E-03 11240   0.591E-01    0.395E-01
DAV:   5    -0.191358852814E+03    0.14374E-02   -0.49572E-03 11520   0.493E-01    0.232E-01
DAV:   6    -0.191358217017E+03    0.63580E-03   -0.17452E-03 11520   0.248E-01    0.937E-02
DAV:   7    -0.191358461190E+03   -0.24417E-03   -0.10393E-03 10680   0.192E-01    0.175E-01
DAV:   8    -0.191358164747E+03    0.29644E-03   -0.66355E-04  8440   0.186E-01    0.638E-02
DAV:   9    -0.191358126321E+03    0.38426E-04   -0.95874E-05  5680   0.594E-02
  36 F= -.19135813E+03 E0= -.19125301E+03  d E =-.205301E-01
       N       E                     dE             d eps       ncg     rms          rms(c)
DAV:   1    -0.191352761783E+03    0.54030E-02   -0.20196E-01  8160   0.955E-01    0.112E-01
DAV:   2    -0.191354084231E+03   -0.13224E-02   -0.73425E-03 13560   0.379E-01    0.315E-01
DAV:   3    -0.191353125990E+03    0.95824E-03   -0.24140E-03 10520   0.347E-01    0.117E-01
DAV:   4    -0.191353078564E+03    0.47426E-04   -0.53289E-04  8200   0.136E-01
  37 F= -.19135308E+03 E0= -.19124788E+03  d E =0.504776E-02
       N       E                     dE             d eps       ncg     rms          rms(c)
DAV:   1    -0.191365143361E+03   -0.12017E-01   -0.16277E+00  8160   0.270E+00    0.375E-01
DAV:   2    -0.191386166310E+03   -0.21023E-01   -0.74196E-02 13520   0.156E+00    0.144E+00
DAV:   3    -0.191367093807E+03    0.19073E-01   -0.37044E-02 11840   0.138E+00    0.284E-01
DAV:   4    -0.191367243466E+03   -0.14966E-03   -0.47639E-03 11440   0.443E-01    0.320E-01
DAV:   5    -0.191366257647E+03    0.98582E-03   -0.30283E-03 10520   0.382E-01    0.164E-01
DAV:   6    -0.191366156057E+03    0.10159E-03   -0.12918E-03  9680   0.214E-01    0.156E-01
DAV:   7    -0.191366090782E+03    0.65275E-04   -0.99324E-04  9160   0.223E-01
  38 F= -.19136609E+03 E0= -.19126069E+03  d E =-.130122E-01
       N       E                     dE             d eps       ncg     rms          rms(c)
DAV:   1    -0.191362484482E+03    0.36716E-02   -0.41134E-01  8160   0.135E+00    0.197E-01
DAV:   2    -0.191367386391E+03   -0.49019E-02   -0.17976E-02 13000   0.795E-01    0.696E-01
DAV:   3    -0.191362633621E+03    0.47528E-02   -0.85908E-03 10920   0.686E-01    0.144E-01
DAV:   4    -0.191362504146E+03    0.12948E-03   -0.86676E-04  9560   0.182E-01    0.102E-01
DAV:   5    -0.191362480111E+03    0.24034E-04   -0.60866E-04  9680   0.185E-01
  39 F= -.19136248E+03 E0= -.19125744E+03  d E =0.361067E-02
       N       E                     dE             d eps       ncg     rms          rms(c)
DAV:   1    -0.191361104551E+03    0.13996E-02   -0.14087E-01  8160   0.792E-01    0.131E-01
DAV:   2    -0.191362997206E+03   -0.18927E-02   -0.65764E-03 11680   0.488E-01    0.443E-01
DAV:   3    -0.191361023823E+03    0.19734E-02   -0.33058E-03 10560   0.427E-01    0.947E-02
DAV:   4    -0.191361091083E+03   -0.67259E-04   -0.55271E-04  8280   0.153E-01
  40 F= -.19136109E+03 E0= -.19125605E+03  d E =0.138903E-02
       N       E                     dE             d eps       ncg     rms          rms(c)
DAV:   1    -0.191369588036E+03   -0.85642E-02   -0.54995E-01  8160   0.159E+00    0.196E-01
DAV:   2    -0.191372493741E+03   -0.29057E-02   -0.18034E-02 13600   0.546E-01    0.439E-01
DAV:   3    -0.191370380105E+03    0.21136E-02   -0.57746E-03 11680   0.555E-01    0.194E-01
DAV:   4    -0.191370228080E+03    0.15203E-03   -0.13728E-03  9560   0.225E-01    0.156E-01
DAV:   5    -0.191370090374E+03    0.13771E-03   -0.96551E-04  8400   0.215E-01    0.127E-01
DAV:   6    -0.191369934991E+03    0.15538E-03   -0.40180E-04  8120   0.132E-01    0.438E-02
DAV:   7    -0.191369939410E+03   -0.44188E-05   -0.13534E-04  6560   0.584E-02
  41 F= -.19136994E+03 E0= -.19126526E+03  d E =-.884833E-02
       N       E                     dE             d eps       ncg     rms          rms(c)
DAV:   1    -0.191363291234E+03    0.66438E-02   -0.53923E-01  8160   0.156E+00    0.194E-01
DAV:   2    -0.191367771003E+03   -0.44798E-02   -0.19965E-02 13600   0.684E-01    0.603E-01
DAV:   3    -0.191363956609E+03    0.38144E-02   -0.76819E-03 11160   0.632E-01    0.170E-01
DAV:   4    -0.191363900109E+03    0.56500E-04   -0.11650E-03  9760   0.211E-01    0.146E-01
DAV:   5    -0.191363705100E+03    0.19501E-03   -0.62743E-04  9040   0.190E-01    0.949E-02
DAV:   6    -0.191363610649E+03    0.94451E-04   -0.28187E-04  7720   0.113E-01
  42 F= -.19136361E+03 E0= -.19125874E+03  d E =0.632876E-02
       N       E                     dE             d eps       ncg     rms          rms(c)
DAV:   1    -0.191372454504E+03   -0.87494E-02   -0.60193E-01  8160   0.168E+00    0.286E-01
DAV:   2    -0.191380771080E+03   -0.83166E-02   -0.32453E-02 12840   0.105E+00    0.954E-01
DAV:   3    -0.191372433808E+03    0.83373E-02   -0.16898E-02 11240   0.938E-01    0.239E-01
DAV:   4    -0.191372474234E+03   -0.40426E-04   -0.33740E-03 11320   0.384E-01    0.264E-01
DAV:   5    -0.191371845008E+03    0.62923E-03   -0.23920E-03 10240   0.340E-01    0.152E-01
DAV:   6    -0.191371592801E+03    0.25221E-03   -0.93617E-04  9600   0.163E-01    0.845E-02
DAV:   7    -0.191371623462E+03   -0.30661E-04   -0.47297E-04  8120   0.153E-01
  43 F= -.19137162E+03 E0= -.19126633E+03  d E =-.801281E-02
       N       E                     dE             d eps       ncg     rms          rms(c)
DAV:   1    -0.191377979702E+03   -0.63869E-02   -0.25160E-01  8160   0.108E+00    0.139E-01
DAV:   2    -0.191378522344E+03   -0.54264E-03   -0.81022E-03 11280   0.279E-01    0.164E-01
DAV:   3    -0.191378477354E+03    0.44990E-04   -0.20324E-03 12200   0.280E-01    0.212E-01
DAV:   4    -0.191378135897E+03    0.34146E-03   -0.10838E-03  8600   0.227E-01    0.981E-02
DAV:   5    -0.191378027417E+03    0.10848E-03   -0.30488E-04  7040   0.916E-02    0.445E-02
DAV:   6    -0.191378059481E+03   -0.32064E-04   -0.19570E-04  8000   0.945E-02
  44 F= -.19137806E+03 E0= -.19127323E+03  d E =-.643602E-02
       N       E                     dE             d eps       ncg     rms          rms(c)
DAV:   1    -0.191390390280E+03   -0.12363E-01   -0.90140E-01  8160   0.203E+00    0.224E-01
DAV:   2    -0.191392882918E+03   -0.24926E-02   -0.24834E-02 13360   0.547E-01    0.368E-01
DAV:   3    -0.191392310564E+03    0.57235E-03   -0.66799E-03 11960   0.567E-01    0.340E-01
DAV:   4    -0.191391387693E+03    0.92287E-03   -0.26247E-03 10880   0.322E-01    0.129E-01
DAV:   5    -0.191391141315E+03    0.24638E-03   -0.74650E-04  9920   0.131E-01    0.875E-02
DAV:   6    -0.191391260008E+03   -0.11869E-03   -0.62258E-04 10280   0.180E-01    0.133E-01
DAV:   7    -0.191391112150E+03    0.14786E-03   -0.40848E-04  8200   0.146E-01    0.640E-02
DAV:   8    -0.191391081861E+03    0.30288E-04   -0.10687E-04  5520   0.787E-02
  45 F= -.19139108E+03 E0= -.19128679E+03  d E =-.130224E-01
       N       E                     dE             d eps       ncg     rms          rms(c)
DAV:   1    -0.191392577032E+03   -0.14649E-02   -0.10027E-02  8160   0.218E-01    0.335E-02
DAV:   2    -0.191392613580E+03   -0.36548E-04   -0.35081E-04  9640   0.872E-02
  46 F= -.19139261E+03 E0= -.19128830E+03  d E =-.153172E-02
       N       E                     dE             d eps       ncg     rms          rms(c)
DAV:   1    -0.191399704913E+03   -0.71279E-02   -0.30433E-01  8160   0.117E+00    0.155E-01
DAV:   2    -0.191402763337E+03   -0.30584E-02   -0.13979E-02 13560   0.568E-01    0.503E-01
DAV:   3    -0.191400359265E+03    0.24041E-02   -0.51660E-03 10360   0.517E-01    0.138E-01
DAV:   4    -0.191400325312E+03    0.33953E-04   -0.86368E-04  8880   0.166E-01
  47 F= -.19140033E+03 E0= -.19129669E+03  d E =-.771173E-02
       N       E                     dE             d eps       ncg     rms          rms(c)
DAV:   1    -0.191413908374E+03   -0.13549E-01   -0.69090E-01  8160   0.182E+00    0.242E-01
DAV:   2    -0.191414824242E+03   -0.91587E-03   -0.17462E-02 13600   0.433E-01    0.304E-01
DAV:   3    -0.191414863372E+03   -0.39129E-04   -0.59882E-03 12240   0.535E-01    0.380E-01
DAV:   4    -0.191413821375E+03    0.10420E-02   -0.33195E-03 11400   0.394E-01    0.176E-01
DAV:   5    -0.191413509076E+03    0.31230E-03   -0.13252E-03 10040   0.203E-01    0.134E-01
DAV:   6    -0.191413389741E+03    0.11934E-03   -0.77490E-04  8560   0.202E-01    0.920E-02
DAV:   7    -0.191413308272E+03    0.81469E-04   -0.24847E-04  7280   0.108E-01
  48 F= -.19141331E+03 E0= -.19130983E+03  d E =-.129830E-01
       N       E                     dE             d eps       ncg     rms          rms(c)
DAV:   1    -0.191404141869E+03    0.92479E-02   -0.46616E-01  8160   0.149E+00    0.224E-01
DAV:   2    -0.191404589315E+03   -0.44745E-03   -0.14645E-02 11920   0.468E-01    0.312E-01
DAV:   3    -0.191404280616E+03    0.30870E-03   -0.44876E-03 11160   0.511E-01    0.288E-01
DAV:   4    -0.191403684134E+03    0.59648E-03   -0.25759E-03  9880   0.340E-01    0.201E-01
DAV:   5    -0.191403493691E+03    0.19044E-03   -0.17710E-03  9520   0.296E-01    0.154E-01
DAV:   6    -0.191403206153E+03    0.28754E-03   -0.62085E-04  8400   0.153E-01    0.339E-02
DAV:   7    -0.191403246939E+03   -0.40786E-04   -0.13992E-04  6240   0.771E-02
  49 F= -.19140325E+03 E0= -.19129972E+03  d E =0.100613E-01
       N       E                     dE             d eps       ncg     rms          rms(c)
DAV:   1    -0.191405639947E+03   -0.24338E-02   -0.23982E-02  8160   0.343E-01    0.499E-02
DAV:   2    -0.191405752317E+03   -0.11237E-03   -0.91151E-04 10720   0.132E-01    0.104E-01
DAV:   3    -0.191405653290E+03    0.99026E-04   -0.30285E-04  8440   0.130E-01
  50 F= -.19140565E+03 E0= -.19130210E+03  d E =-.240635E-02
       N       E                     dE             d eps       ncg     rms          rms(c)
DAV:   1    -0.191400800668E+03    0.49516E-02   -0.15624E-01  8160   0.852E-01    0.134E-01
DAV:   2    -0.191404059662E+03   -0.32590E-02   -0.99507E-03 12680   0.611E-01    0.576E-01
DAV:   3    -0.191400907057E+03    0.31526E-02   -0.50973E-03 11400   0.516E-01    0.807E-02
DAV:   4    -0.191400936496E+03   -0.29438E-04   -0.39600E-04  8560   0.125E-01
  51 F= -.19140094E+03 E0= -.19129741E+03  d E =0.471679E-02
       N       E                     dE             d eps       ncg     rms          rms(c)
DAV:   1    -0.191399203505E+03    0.17036E-02   -0.13843E+00  8160   0.247E+00    0.306E-01
DAV:   2    -0.191408506220E+03   -0.93027E-02   -0.45988E-02 13560   0.113E+00    0.894E-01
DAV:   3    -0.191400713365E+03    0.77929E-02   -0.16965E-02 11800   0.958E-01    0.289E-01
DAV:   4    -0.191400386107E+03    0.32726E-03   -0.34831E-03  9800   0.381E-01    0.251E-01
DAV:   5    -0.191399961033E+03    0.42507E-03   -0.22902E-03 10680   0.342E-01    0.176E-01
DAV:   6    -0.191399601370E+03    0.35966E-03   -0.10020E-03 10080   0.188E-01    0.751E-02
DAV:   7    -0.191399816314E+03   -0.21494E-03   -0.69070E-04  9320   0.193E-01    0.159E-01
DAV:   8    -0.191399549458E+03    0.26686E-03   -0.38321E-04  8320   0.146E-01    0.186E-02
DAV:   9    -0.191399560874E+03   -0.11416E-04   -0.27573E-05  5680   0.221E-02
  52 F= -.19139956E+03 E0= -.19129719E+03  d E =0.137562E-02
       N       E                     dE             d eps       ncg     rms          rms(c)
DAV:   1    -0.191395372846E+03    0.41766E-02   -0.16988E+00  8160   0.272E+00    0.294E-01
DAV:   2    -0.191405519064E+03   -0.10146E-01   -0.47224E-02 13560   0.109E+00    0.939E-01
DAV:   3    -0.191397181714E+03    0.83373E-02   -0.17028E-02 11760   0.954E-01    0.235E-01
DAV:   4    -0.191397012754E+03    0.16896E-03   -0.22873E-03 10440   0.276E-01    0.196E-01
DAV:   5    -0.191396701362E+03    0.31139E-03   -0.14327E-03 10400   0.277E-01    0.143E-01
DAV:   6    -0.191396551186E+03    0.15018E-03   -0.80287E-04 10040   0.176E-01    0.706E-02
DAV:   7    -0.191396554897E+03   -0.37113E-05   -0.30550E-04  7800   0.112E-01
  53 F= -.19139655E+03 E0= -.19129313E+03  d E =0.300598E-02
       N       E                     dE             d eps       ncg     rms          rms(c)
DAV:   1    -0.191391369151E+03    0.51820E-02   -0.29239E+00  8160   0.357E+00    0.368E-01
DAV:   2    -0.191401361920E+03   -0.99928E-02   -0.67054E-02 12400   0.111E+00    0.899E-01
DAV:   3    -0.191394464401E+03    0.68975E-02   -0.20241E-02 12440   0.101E+00    0.364E-01
DAV:   4    -0.191393256398E+03    0.12080E-02   -0.30988E-03 11120   0.318E-01    0.139E-01
DAV:   5    -0.191393256489E+03   -0.91467E-07   -0.15541E-03 11160   0.212E-01    0.165E-01
DAV:   6    -0.191393414304E+03   -0.15781E-03   -0.16723E-03 10520   0.297E-01    0.211E-01
DAV:   7    -0.191392964025E+03    0.45028E-03   -0.78066E-04  8520   0.198E-01    0.551E-02
DAV:   8    -0.191392959205E+03    0.48198E-05   -0.13209E-04  5640   0.814E-02
  54 F= -.19139296E+03 E0= -.19128876E+03  d E =0.359569E-02
       N       E                     dE             d eps       ncg     rms          rms(c)
DAV:   1    -0.191392093883E+03    0.87014E-03   -0.46967E-02  8160   0.458E-01    0.462E-02
DAV:   2    -0.191392196418E+03   -0.10253E-03   -0.99824E-04 12320   0.108E-01    0.785E-02
DAV:   3    -0.191392163704E+03    0.32714E-04   -0.25500E-04  7480   0.115E-01
  55 F= -.19139216E+03 E0= -.19128779E+03  d E =0.795501E-03
       N       E                     dE             d eps       ncg     rms          rms(c)
DAV:   1    -0.191414441282E+03   -0.22245E-01   -0.21403E+00  8160   0.317E+00    0.436E-01
DAV:   2    -0.191423853524E+03   -0.94122E-02   -0.74657E-02 13440   0.128E+00    0.951E-01
DAV:   3    -0.191415629538E+03    0.82240E-02   -0.24922E-02 12080   0.115E+00    0.409E-01
DAV:   4    -0.191415716646E+03   -0.87108E-04   -0.88742E-03 12240   0.617E-01    0.471E-01
DAV:   5    -0.191413920032E+03    0.17966E-02   -0.63488E-03 10160   0.558E-01    0.263E-01
DAV:   6    -0.191413049210E+03    0.87082E-03   -0.24275E-03 10720   0.270E-01    0.800E-02
DAV:   7    -0.191413059712E+03   -0.10502E-04   -0.57054E-04 10440   0.124E-01
  56 F= -.19141306E+03 E0= -.19130862E+03  d E =-.208960E-01
       N       E                     dE             d eps       ncg     rms          rms(c)
DAV:   1    -0.191411503342E+03    0.15459E-02   -0.37165E-02  8160   0.428E-01    0.735E-02
DAV:   2    -0.191412725041E+03   -0.12217E-02   -0.34859E-03 12480   0.350E-01    0.340E-01
DAV:   3    -0.191411541789E+03    0.11833E-02   -0.17790E-03 10000   0.303E-01    0.351E-02
DAV:   4    -0.191411570712E+03   -0.28923E-04   -0.76995E-05  5520   0.622E-02
  57 F= -.19141157E+03 E0= -.19130718E+03  d E =0.148900E-02
       N       E                     dE             d eps       ncg     rms          rms(c)
DAV:   1    -0.191421164133E+03   -0.96223E-02   -0.62728E-01  8160   0.168E+00    0.186E-01
DAV:   2    -0.191424359520E+03   -0.31954E-02   -0.19315E-02 12440   0.641E-01    0.502E-01
DAV:   3    -0.191422043081E+03    0.23164E-02   -0.63203E-03 11320   0.557E-01    0.181E-01
DAV:   4    -0.191421968200E+03    0.74881E-04   -0.12053E-03  9600   0.228E-01    0.158E-01
DAV:   5    -0.191421733296E+03    0.23490E-03   -0.69583E-04  8960   0.197E-01    0.901E-02
DAV:   6    -0.191421664867E+03    0.68429E-04   -0.31034E-04  7640   0.110E-01
  58 F= -.19142166E+03 E0= -.19131731E+03  d E =-.100942E-01
       N       E                     dE             d eps       ncg     rms          rms(c)
DAV:   1    -0.191416934123E+03    0.47992E-02   -0.17017E+00  8160   0.271E+00    0.272E-01
DAV:   2    -0.191424749168E+03   -0.78150E-02   -0.39319E-02 13360   0.960E-01    0.808E-01
DAV:   3    -0.191418474456E+03    0.62747E-02   -0.13553E-02 11480   0.846E-01    0.217E-01
DAV:   4    -0.191418113045E+03    0.36141E-03   -0.15182E-03 11200   0.194E-01    0.110E-01
DAV:   5    -0.191417992446E+03    0.12060E-03   -0.71274E-04 11400   0.149E-01    0.924E-02
DAV:   6    -0.191418093556E+03   -0.10111E-03   -0.67599E-04  9080   0.199E-01    0.124E-01
DAV:   7    -0.191417902557E+03    0.19100E-03   -0.29651E-04  7760   0.128E-01    0.217E-02
DAV:   8    -0.191417901582E+03    0.97549E-06   -0.32659E-05  6080   0.232E-02
  59 F= -.19141790E+03 E0= -.19131389E+03  d E =0.376329E-02
       N       E                     dE             d eps       ncg     rms          rms(c)
DAV:   1    -0.191418275246E+03   -0.37269E-03   -0.30162E-03  8160   0.117E-01    0.178E-02
DAV:   2    -0.191418333058E+03   -0.57812E-04   -0.14203E-04  8400   0.780E-02
  60 F= -.19141833E+03 E0= -.19131444E+03  d E =-.431476E-03
       N       E                     dE             d eps       ncg     rms          rms(c)
DAV:   1    -0.191436072453E+03   -0.17797E-01   -0.12302E+00  8160   0.237E+00    0.253E-01
DAV:   2    -0.191439451616E+03   -0.33792E-02   -0.33285E-02 12400   0.630E-01    0.447E-01
DAV:   3    -0.191438323698E+03    0.11279E-02   -0.87950E-03 12240   0.641E-01    0.335E-01
DAV:   4    -0.191437440147E+03    0.88355E-03   -0.25873E-03 11080   0.334E-01    0.154E-01
DAV:   5    -0.191437201690E+03    0.23846E-03   -0.95878E-04 10120   0.196E-01    0.128E-01
DAV:   6    -0.191437156586E+03    0.45104E-04   -0.79954E-04 10320   0.207E-01
  61 F= -.19143716E+03 E0= -.19133408E+03  d E =-.188235E-01
       N       E                     dE             d eps       ncg     rms          rms(c)
DAV:   1    -0.191403891544E+03    0.33310E-01   -0.34448E+00  8160   0.397E+00    0.421E-01
DAV:   2    -0.191413448601E+03   -0.95571E-02   -0.92615E-02 13200   0.110E+00    0.765E-01
DAV:   3    -0.191409802405E+03    0.36462E-02   -0.24993E-02 11680   0.107E+00    0.540E-01
DAV:   4    -0.191407455126E+03    0.23473E-02   -0.72679E-03 11280   0.557E-01    0.250E-01
DAV:   5    -0.191406776394E+03    0.67873E-03   -0.24734E-03 11520   0.316E-01    0.210E-01
DAV:   6    -0.191406699171E+03    0.77223E-04   -0.21461E-03 11320   0.338E-01    0.188E-01
DAV:   7    -0.191406506340E+03    0.19283E-03   -0.11244E-03  9560   0.228E-01    0.147E-01
DAV:   8    -0.191406307574E+03    0.19877E-03   -0.48507E-04  8240   0.152E-01    0.485E-02
DAV:   9    -0.191406290037E+03    0.17536E-04   -0.69054E-05  5800   0.497E-02
  62 F= -.19140629E+03 E0= -.19130191E+03  d E =0.308665E-01
       N       E                     dE             d eps       ncg     rms          rms(c)
DAV:   1    -0.191304331143E+03    0.10198E+00   -0.39522E+01  8160   0.136E+01    0.143E+00
DAV:   2    -0.191420631916E+03   -0.11630E+00   -0.11224E+00 13240   0.357E+00    0.242E+00
DAV:   3    -0.191388887748E+03    0.31744E-01   -0.25970E-01 12040   0.353E+00    0.204E+00
DAV:   4    -0.191356883845E+03    0.32004E-01   -0.97950E-02 12320   0.200E+00    0.877E-01
DAV:   5    -0.191345062037E+03    0.11822E-01   -0.28527E-02 10480   0.841E-01    0.535E-01
DAV:   6    -0.191349417058E+03   -0.43550E-02   -0.26504E-02 12720   0.113E+00    0.837E-01
DAV:   7    -0.191343249123E+03    0.61679E-02   -0.17376E-02 11480   0.905E-01    0.401E-01
DAV:   8    -0.191341921507E+03    0.13276E-02   -0.48138E-03 10760   0.471E-01    0.219E-01
DAV:   9    -0.191341447761E+03    0.47375E-03   -0.10641E-03 10680   0.208E-01    0.587E-02
DAV:  10    -0.191341396337E+03    0.51424E-04   -0.23809E-04  7120   0.659E-02
  63 F= -.19134140E+03 E0= -.19123539E+03  d E =0.648937E-01
       N       E                     dE             d eps       ncg     rms          rms(c)
DAV:   1    -0.191359403061E+03   -0.17955E-01   -0.93005E+00  8160   0.651E+00    0.775E-01
DAV:   2    -0.191421756686E+03   -0.62354E-01   -0.32304E-01 13480   0.253E+00    0.239E+00
DAV:   3    -0.191376859800E+03    0.44897E-01   -0.15022E-01 11760   0.255E+00    0.864E-01
DAV:   4    -0.191372679653E+03    0.41801E-02   -0.23952E-02 11360   0.868E-01    0.595E-01
DAV:   5    -0.191369513814E+03    0.31658E-02   -0.12285E-02 11640   0.788E-01    0.427E-01
DAV:   6    -0.191367706316E+03    0.18075E-02   -0.53394E-03 12320   0.477E-01    0.199E-01
DAV:   7    -0.191368312683E+03   -0.60637E-03   -0.31616E-03 12080   0.360E-01    0.319E-01
DAV:   8    -0.191367331523E+03    0.98116E-03   -0.19467E-03  9960   0.321E-01    0.890E-02
DAV:   9    -0.191367249865E+03    0.81658E-04   -0.20812E-04  6520   0.798E-02
  64 F= -.19136725E+03 E0= -.19126143E+03  d E =-.258535E-01
       N       E                     dE             d eps       ncg     rms          rms(c)
DAV:   1    -0.191365545553E+03    0.17860E-02   -0.22358E-01  8160   0.102E+00    0.128E-01
DAV:   2    -0.191366883011E+03   -0.13375E-02   -0.70555E-03 13360   0.399E-01    0.355E-01
DAV:   3    -0.191365723236E+03    0.11598E-02   -0.27578E-03 11480   0.382E-01    0.118E-01
DAV:   4    -0.191365622402E+03    0.10083E-03   -0.44586E-04  8400   0.119E-01    0.655E-02
DAV:   5    -0.191365574137E+03    0.48264E-04   -0.20080E-04  6960   0.893E-02
  65 F= -.19136557E+03 E0= -.19125933E+03  d E =0.167573E-02
       N       E                     dE             d eps       ncg     rms          rms(c)
DAV:   1    -0.191370226792E+03   -0.46044E-02   -0.54140E-01  8160   0.156E+00    0.248E-01
DAV:   2    -0.191378918930E+03   -0.86921E-02   -0.29143E-02 13200   0.103E+00    0.936E-01
DAV:   3    -0.191370709668E+03    0.82093E-02   -0.15345E-02 11640   0.893E-01    0.201E-01
DAV:   4    -0.191370736177E+03   -0.26509E-04   -0.22161E-03 10240   0.308E-01    0.211E-01
DAV:   5    -0.191370351608E+03    0.38457E-03   -0.15125E-03 10520   0.264E-01    0.122E-01
DAV:   6    -0.191370251581E+03    0.10003E-03   -0.63165E-04  8240   0.147E-01    0.104E-01
DAV:   7    -0.191370223949E+03    0.27632E-04   -0.45564E-04  8280   0.153E-01
  66 F= -.19137022E+03 E0= -.19126309E+03  d E =-.464981E-02
       N       E                     dE             d eps       ncg     rms          rms(c)
DAV:   1    -0.191373740903E+03   -0.34893E-02   -0.20209E-01  8160   0.967E-01    0.123E-01
DAV:   2    -0.191374462864E+03   -0.72196E-03   -0.65279E-03 12520   0.312E-01    0.242E-01
DAV:   3    -0.191374106597E+03    0.35627E-03   -0.24362E-03 10520   0.325E-01    0.184E-01
DAV:   4    -0.191373821248E+03    0.28535E-03   -0.77543E-04  8200   0.167E-01    0.652E-02
DAV:   5    -0.191373764856E+03    0.56392E-04   -0.17369E-04  5600   0.610E-02
  67 F= -.19137376E+03 E0= -.19126690E+03  d E =-.354091E-02
       N       E                     dE             d eps       ncg     rms          rms(c)
DAV:   1    -0.191379634706E+03   -0.58135E-02   -0.47118E-01  8160   0.146E+00    0.181E-01
DAV:   2    -0.191382943856E+03   -0.33091E-02   -0.18251E-02 13560   0.611E-01    0.528E-01
DAV:   3    -0.191380483821E+03    0.24600E-02   -0.68830E-03 11440   0.562E-01    0.187E-01
DAV:   4    -0.191380297891E+03    0.18593E-03   -0.11906E-03  9560   0.179E-01    0.117E-01
DAV:   5    -0.191380201495E+03    0.96396E-04   -0.61572E-04  9080   0.168E-01
  68 F= -.19138020E+03 E0= -.19127323E+03  d E =-.643664E-02
       N       E                     dE             d eps       ncg     rms          rms(c)
DAV:   1    -0.191381382447E+03   -0.10846E-02   -0.16512E-02  8160   0.301E-01    0.707E-02
DAV:   2    -0.191382269729E+03   -0.88728E-03   -0.19850E-03 11120   0.308E-01    0.299E-01
DAV:   3    -0.191381338623E+03    0.93111E-03   -0.13040E-03  9600   0.269E-01    0.464E-02
DAV:   4    -0.191381371848E+03   -0.33225E-04   -0.10986E-04  5960   0.756E-02
  69 F= -.19138137E+03 E0= -.19127434E+03  d E =-.117035E-02
       N       E                     dE             d eps       ncg     rms          rms(c)
DAV:   1    -0.191389335941E+03   -0.79973E-02   -0.75247E-01  8160   0.185E+00    0.216E-01
DAV:   2    -0.191393502566E+03   -0.41666E-02   -0.25118E-02 13600   0.686E-01    0.592E-01
DAV:   3    -0.191390661561E+03    0.28410E-02   -0.91889E-03 11840   0.646E-01    0.238E-01
DAV:   4    -0.191390317770E+03    0.34379E-03   -0.16890E-03  9720   0.239E-01    0.148E-01
DAV:   5    -0.191390165835E+03    0.15193E-03   -0.95425E-04 10360   0.223E-01    0.123E-01
DAV:   6    -0.191390029248E+03    0.13659E-03   -0.45643E-04  8120   0.136E-01    0.478E-02
DAV:   7    -0.191390013109E+03    0.16138E-04   -0.12097E-04  6520   0.566E-02
  70 F= -.19139001E+03 E0= -.19128272E+03  d E =-.864126E-02
       N       E                     dE             d eps       ncg     rms          rms(c)
DAV:   1    -0.191373124556E+03    0.16905E-01   -0.21809E+00  8160   0.315E+00    0.356E-01
DAV:   2    -0.191384648965E+03   -0.11524E-01   -0.73987E-02 13600   0.113E+00    0.918E-01
DAV:   3    -0.191377423851E+03    0.72251E-02   -0.23465E-02 12160   0.104E+00    0.413E-01
DAV:   4    -0.191376418026E+03    0.10058E-02   -0.52269E-03 11000   0.409E-01    0.254E-01
DAV:   5    -0.191375834586E+03    0.58344E-03   -0.24761E-03 11560   0.341E-01    0.187E-01
DAV:   6    -0.191375561094E+03    0.27349E-03   -0.13062E-03 10120   0.234E-01    0.103E-01
DAV:   7    -0.191375698408E+03   -0.13731E-03   -0.78602E-04  9600   0.190E-01    0.162E-01
DAV:   8    -0.191375431541E+03    0.26687E-03   -0.45063E-04  8280   0.161E-01    0.357E-02
DAV:   9    -0.191375431776E+03   -0.23501E-06   -0.48690E-05  5520   0.370E-02
  71 F= -.19137543E+03 E0= -.19126843E+03  d E =0.145813E-01
       N       E                     dE             d eps       ncg     rms          rms(c)
DAV:   1    -0.191359699608E+03    0.15732E-01   -0.33953E+00  8160   0.394E+00    0.460E-01
DAV:   2    -0.191380854688E+03   -0.21155E-01   -0.11446E-01 13600   0.152E+00    0.134E+00
DAV:   3    -0.191365003092E+03    0.15852E-01   -0.43946E-02 12360   0.141E+00    0.475E-01
DAV:   4    -0.191364140206E+03    0.86289E-03   -0.84276E-03 10840   0.527E-01    0.372E-01
DAV:   5    -0.191362824554E+03    0.13157E-02   -0.45285E-03 12320   0.476E-01    0.232E-01
DAV:   6    -0.191362313160E+03    0.51139E-03   -0.19294E-03 11720   0.276E-01    0.116E-01
DAV:   7    -0.191362611284E+03   -0.29812E-03   -0.12460E-03 10280   0.241E-01    0.214E-01
DAV:   8    -0.191362150656E+03    0.46063E-03   -0.73623E-04  8280   0.207E-01    0.449E-02
DAV:   9    -0.191362144510E+03    0.61460E-05   -0.67709E-05  5480   0.440E-02
  72 F= -.19136214E+03 E0= -.19125550E+03  d E =0.132873E-01
       N       E                     dE             d eps       ncg     rms          rms(c)
DAV:   1    -0.191358608705E+03    0.35420E-02   -0.20551E-01  8160   0.958E-01    0.124E-01
DAV:   2    -0.191360789623E+03   -0.21809E-02   -0.88101E-03 13600   0.457E-01    0.435E-01
DAV:   3    -0.191358942992E+03    0.18466E-02   -0.35991E-03 11080   0.442E-01    0.106E-01
DAV:   4    -0.191358883799E+03    0.59193E-04   -0.36740E-04  8160   0.933E-02
  73 F= -.19135888E+03 E0= -.19125232E+03  d E =0.326071E-02
       N       E                     dE             d eps       ncg     rms          rms(c)
DAV:   1    -0.191359294486E+03   -0.35149E-03   -0.12607E-02  8160   0.248E-01    0.776E-02
DAV:   2    -0.191360169564E+03   -0.87508E-03   -0.24007E-03 11400   0.327E-01    0.293E-01
DAV:   3    -0.191359215642E+03    0.95392E-03   -0.15267E-03  9600   0.278E-01    0.515E-02
DAV:   4    -0.191359272475E+03   -0.56833E-04   -0.21383E-04  6560   0.101E-01
  74 F= -.19135927E+03 E0= -.19125268E+03  d E =-.388676E-03
       N       E                     dE             d eps       ncg     rms          rms(c)
DAV:   1    -0.191365704376E+03   -0.64887E-02   -0.82619E-01  8160   0.192E+00    0.241E-01
DAV:   2    -0.191375018358E+03   -0.93140E-02   -0.35394E-02 13600   0.978E-01    0.949E-01
DAV:   3    -0.191367092602E+03    0.79258E-02   -0.17322E-02 11600   0.897E-01    0.202E-01
DAV:   4    -0.191366861681E+03    0.23092E-03   -0.16062E-03 10000   0.196E-01    0.139E-01
DAV:   5    -0.191366731496E+03    0.13019E-03   -0.85189E-04 10640   0.192E-01    0.131E-01
DAV:   6    -0.191366614629E+03    0.11687E-03   -0.52815E-04  8160   0.150E-01    0.774E-02
DAV:   7    -0.191366701793E+03   -0.87164E-04   -0.39731E-04  8000   0.142E-01
  75 F= -.19136670E+03 E0= -.19125961E+03  d E =-.742932E-02
       N       E                     dE             d eps       ncg     rms          rms(c)
DAV:   1    -0.191367404307E+03   -0.78968E-03   -0.27443E-02  8160   0.365E-01    0.690E-02
DAV:   2    -0.191367848538E+03   -0.44423E-03   -0.18293E-03 11480   0.238E-01    0.213E-01
DAV:   3    -0.191367394671E+03    0.45387E-03   -0.93629E-04  8560   0.225E-01    0.674E-02
DAV:   4    -0.191367385523E+03    0.91474E-05   -0.17160E-04  6320   0.894E-02
  76 F= -.19136739E+03 E0= -.19126033E+03  d E =-.683730E-03
       N       E                     dE             d eps       ncg     rms          rms(c)
DAV:   1    -0.191371831941E+03   -0.44373E-02   -0.35337E-01  8160   0.126E+00    0.188E-01
DAV:   2    -0.191378007824E+03   -0.61759E-02   -0.19664E-02 12880   0.766E-01    0.785E-01
DAV:   3    -0.191372386451E+03    0.56214E-02   -0.11202E-02 11000   0.721E-01    0.158E-01
DAV:   4    -0.191372341577E+03    0.44874E-04   -0.11580E-03  9600   0.197E-01    0.134E-01
DAV:   5    -0.191372189459E+03    0.15212E-03   -0.59472E-04  9160   0.171E-01    0.836E-02
DAV:   6    -0.191372124672E+03    0.64787E-04   -0.22700E-04  6560   0.922E-02
  77 F= -.19137212E+03 E0= -.19126470E+03  d E =-.473915E-02
       N       E                     dE             d eps       ncg     rms          rms(c)
DAV:   1    -0.191368956622E+03    0.32328E-02   -0.15899E-01  8160   0.848E-01    0.146E-01
DAV:   2    -0.191373873727E+03   -0.49171E-02   -0.11541E-02 13440   0.689E-01    0.698E-01
DAV:   3    -0.191369047936E+03    0.48258E-02   -0.68950E-03 11240   0.631E-01    0.784E-02
DAV:   4    -0.191369042034E+03    0.59021E-05   -0.35591E-04  8320   0.732E-02
  78 F= -.19136904E+03 E0= -.19126182E+03  d E =0.308264E-02
       N       E                     dE             d eps       ncg     rms          rms(c)
DAV:   1    -0.191347345736E+03    0.21702E-01   -0.54173E+00  8160   0.493E+00    0.692E-01
DAV:   2    -0.191415252986E+03   -0.67907E-01   -0.24620E-01 13360   0.277E+00    0.233E+00
DAV:   3    -0.191354203389E+03    0.61050E-01   -0.96984E-02 11640   0.235E+00    0.522E-01
DAV:   4    -0.191353450676E+03    0.75271E-03   -0.13538E-02 10960   0.718E-01    0.481E-01
DAV:   5    -0.191351447388E+03    0.20033E-02   -0.85424E-03 12600   0.650E-01    0.318E-01
DAV:   6    -0.191350390074E+03    0.10573E-02   -0.36159E-03 11480   0.350E-01    0.156E-01
DAV:   7    -0.191351189651E+03   -0.79958E-03   -0.28614E-03 11360   0.363E-01    0.328E-01
DAV:   8    -0.191350143422E+03    0.10462E-02   -0.17138E-03  9640   0.291E-01    0.548E-02
DAV:   9    -0.191350132518E+03    0.10903E-04   -0.12390E-04  5560   0.521E-02
  79 F= -.19135013E+03 E0= -.19124456E+03  d E =0.189095E-01
       N       E                     dE             d eps       ncg     rms          rms(c)
DAV:   1    -0.191345590413E+03    0.45530E-02   -0.31283E-01  8160   0.119E+00    0.160E-01
DAV:   2    -0.191349333261E+03   -0.37428E-02   -0.14021E-02 13600   0.631E-01    0.583E-01
DAV:   3    -0.191346010649E+03    0.33226E-02   -0.64445E-03 11560   0.573E-01    0.128E-01
DAV:   4    -0.191345937007E+03    0.73642E-04   -0.66616E-04  9320   0.128E-01
  80 F= -.19134594E+03 E0= -.19124044E+03  d E =0.419551E-02
       N       E                     dE             d eps       ncg     rms          rms(c)
DAV:   1    -0.191337395067E+03    0.86156E-02   -0.22388E+00  8160   0.318E+00    0.425E-01
DAV:   2    -0.191359299352E+03   -0.21904E-01   -0.89254E-02 13600   0.155E+00    0.144E+00
DAV:   3    -0.191340141702E+03    0.19158E-01   -0.45921E-02 12240   0.145E+00    0.392E-01
DAV:   4    -0.191339084241E+03    0.10575E-02   -0.57800E-03 11200   0.392E-01    0.257E-01
DAV:   5    -0.191339179125E+03   -0.94884E-04   -0.38493E-03 11400   0.434E-01    0.330E-01
DAV:   6    -0.191338168443E+03    0.10107E-02   -0.23481E-03 10680   0.334E-01    0.110E-01
DAV:   7    -0.191338385947E+03   -0.21750E-03   -0.94921E-04 10120   0.222E-01    0.163E-01
DAV:   8    -0.191338072582E+03    0.31337E-03   -0.49826E-04  8520   0.175E-01    0.400E-02
DAV:   9    -0.191338057792E+03    0.14790E-04   -0.59275E-05  5720   0.365E-02
  81 F= -.19133806E+03 E0= -.19123296E+03  d E =0.787922E-02
       N       E                     dE             d eps       ncg     rms          rms(c)
DAV:   1    -0.191338196240E+03   -0.12366E-03   -0.15789E-02  8160   0.268E-01    0.297E-02
DAV:   2    -0.191338245836E+03   -0.49596E-04   -0.41329E-04 11120   0.804E-02
  82 F= -.19133825E+03 E0= -.19123310E+03  d E =-.188044E-03
       N       E                     dE             d eps       ncg     rms          rms(c)
DAV:   1    -0.191345949905E+03   -0.77537E-02   -0.69884E-01  8160   0.177E+00    0.259E-01
DAV:   2    -0.191355531062E+03   -0.95812E-02   -0.32143E-02 13520   0.101E+00    0.940E-01
DAV:   3    -0.191346825470E+03    0.87056E-02   -0.16449E-02 11680   0.950E-01    0.235E-01
DAV:   4    -0.191346460801E+03    0.36467E-03   -0.21420E-03 11120   0.253E-01    0.158E-01
DAV:   5    -0.191346406743E+03    0.54058E-04   -0.13554E-03 10640   0.247E-01    0.164E-01
DAV:   6    -0.191346140785E+03    0.26596E-03   -0.74353E-04  8320   0.174E-01    0.814E-02
DAV:   7    -0.191346219699E+03   -0.78913E-04   -0.47656E-04  8120   0.149E-01
  83 F= -.19134622E+03 E0= -.19124086E+03  d E =-.797386E-02
       N       E                     dE             d eps       ncg     rms          rms(c)
DAV:   1    -0.191355356250E+03   -0.92155E-02   -0.22335E+00  8160   0.318E+00    0.427E-01
DAV:   2    -0.191382010175E+03   -0.26654E-01   -0.10101E-01 13600   0.162E+00    0.159E+00
DAV:   3    -0.191359671032E+03    0.22339E-01   -0.51533E-02 11720   0.157E+00    0.408E-01
DAV:   4    -0.191358527917E+03    0.11431E-02   -0.62057E-03 10920   0.404E-01    0.272E-01
DAV:   5    -0.191358302080E+03    0.22584E-03   -0.38092E-03 10800   0.398E-01    0.292E-01
DAV:   6    -0.191357550667E+03    0.75141E-03   -0.19471E-03  9720   0.280E-01    0.123E-01
DAV:   7    -0.191357862728E+03   -0.31206E-03   -0.12157E-03 10080   0.243E-01    0.194E-01
DAV:   8    -0.191357456718E+03    0.40601E-03   -0.66284E-04  8760   0.193E-01    0.379E-02
DAV:   9    -0.191357446940E+03    0.97787E-05   -0.62926E-05  6000   0.421E-02
  84 F= -.19135745E+03 E0= -.19125178E+03  d E =-.112272E-01
       N       E                     dE             d eps       ncg     rms          rms(c)
DAV:   1    -0.191359092240E+03   -0.16355E-02   -0.25456E-01  8160   0.110E+00    0.143E-01
DAV:   2    -0.191359959532E+03   -0.86729E-03   -0.84954E-03 13520   0.407E-01    0.293E-01
DAV:   3    -0.191359297445E+03    0.66209E-03   -0.25589E-03 10840   0.354E-01    0.154E-01
DAV:   4    -0.191359241683E+03    0.55762E-04   -0.10488E-03  8560   0.211E-01    0.152E-01
DAV:   5    -0.191359064154E+03    0.17753E-03   -0.71342E-04  8240   0.187E-01    0.895E-02
DAV:   6    -0.191358985783E+03    0.78371E-04   -0.30500E-04  6760   0.984E-02
  85 F= -.19135899E+03 E0= -.19125321E+03  d E =-.153884E-02
       N       E                     dE             d eps       ncg     rms          rms(c)
DAV:   1    -0.191364998299E+03   -0.59341E-02   -0.48595E-01  8160   0.147E+00    0.184E-01
DAV:   2    -0.191369792764E+03   -0.47945E-02   -0.19545E-02 13440   0.693E-01    0.664E-01
DAV:   3    -0.191365808599E+03    0.39842E-02   -0.89198E-03 11360   0.652E-01    0.172E-01
DAV:   4    -0.191365661400E+03    0.14720E-03   -0.11019E-03  9640   0.177E-01    0.119E-01
DAV:   5    -0.191365564048E+03    0.97352E-04   -0.56965E-04  9120   0.164E-01
  86 F= -.19136556E+03 E0= -.19125943E+03  d E =-.657827E-02
       N       E                     dE             d eps       ncg     rms          rms(c)
DAV:   1    -0.191365464977E+03    0.19642E-03   -0.52647E-02  8160   0.518E-01    0.841E-02
DAV:   2    -0.191366332846E+03   -0.86787E-03   -0.31678E-03 13200   0.317E-01    0.297E-01
DAV:   3    -0.191365481940E+03    0.85091E-03   -0.17253E-03  9960   0.287E-01    0.724E-02
DAV:   4    -0.191365477619E+03    0.43211E-05   -0.21153E-04  6520   0.783E-02
  87 F= -.19136548E+03 E0= -.19125954E+03  d E =0.864289E-04
       N       E                     dE             d eps       ncg     rms          rms(c)
DAV:   1    -0.191365806401E+03   -0.32446E-03   -0.39568E-02  8160   0.443E-01    0.102E-01
DAV:   2    -0.191367547349E+03   -0.17409E-02   -0.42354E-03 12960   0.428E-01    0.430E-01
DAV:   3    -0.191365689921E+03    0.18574E-02   -0.30054E-03 10080   0.399E-01    0.673E-02
DAV:   4    -0.191365722351E+03   -0.32430E-04   -0.23981E-04  6720   0.850E-02
  88 F= -.19136572E+03 E0= -.19125999E+03  d E =-.244732E-03
       N       E                     dE             d eps       ncg     rms          rms(c)
DAV:   1    -0.191371481720E+03   -0.57918E-02   -0.15517E+00  8160   0.270E+00    0.402E-01
DAV:   2    -0.191388246733E+03   -0.16765E-01   -0.72967E-02 13560   0.139E+00    0.136E+00
DAV:   3    -0.191372783976E+03    0.15463E-01   -0.38140E-02 12000   0.134E+00    0.358E-01
DAV:   4    -0.191371869328E+03    0.91465E-03   -0.51923E-03 10920   0.380E-01    0.270E-01
DAV:   5    -0.191371795757E+03    0.73571E-04   -0.41984E-03 10680   0.429E-01    0.318E-01
DAV:   6    -0.191370883932E+03    0.91183E-03   -0.24154E-03 10200   0.306E-01    0.102E-01
DAV:   7    -0.191370936394E+03   -0.52462E-04   -0.77051E-04  9640   0.168E-01
  89 F= -.19137094E+03 E0= -.19126411E+03  d E =-.521404E-02
       N       E                     dE             d eps       ncg     rms          rms(c)
DAV:   1    -0.191372389852E+03   -0.15059E-02   -0.70911E-01  8160   0.180E+00    0.229E-01
DAV:   2    -0.191377540343E+03   -0.51505E-02   -0.25477E-02 13600   0.730E-01    0.692E-01
DAV:   3    -0.191373423060E+03    0.41173E-02   -0.11880E-02 12200   0.738E-01    0.251E-01
DAV:   4    -0.191372948350E+03    0.47471E-03   -0.19622E-03 10240   0.224E-01    0.126E-01
DAV:   5    -0.191372901054E+03    0.47296E-04   -0.95896E-04 10760   0.210E-01
  90 F= -.19137290E+03 E0= -.19126521E+03  d E =-.196466E-02
       N       E                     dE             d eps       ncg     rms          rms(c)
DAV:   1    -0.191380579875E+03   -0.76315E-02   -0.32691E+00  8160   0.385E+00    0.497E-01
DAV:   2    -0.191412328753E+03   -0.31749E-01   -0.13473E-01 13600   0.180E+00    0.184E+00
DAV:   3    -0.191385402332E+03    0.26926E-01   -0.72378E-02 12040   0.172E+00    0.444E-01
DAV:   4    -0.191383593141E+03    0.18092E-02   -0.64484E-03 11000   0.374E-01    0.214E-01
DAV:   5    -0.191383209637E+03    0.38350E-03   -0.29566E-03 12720   0.337E-01    0.238E-01
DAV:   6    -0.191382929017E+03    0.28062E-03   -0.24838E-03 11560   0.345E-01    0.163E-01
DAV:   7    -0.191382676698E+03    0.25232E-03   -0.80757E-04  9520   0.173E-01    0.921E-02
DAV:   8    -0.191382615583E+03    0.61115E-04   -0.22303E-04  7120   0.107E-01
  91 F= -.19138262E+03 E0= -.19127329E+03  d E =-.971453E-02
       N       E                     dE             d eps       ncg     rms          rms(c)
DAV:   1    -0.191388911137E+03   -0.62344E-02   -0.10769E+00  8160   0.220E+00    0.268E-01
DAV:   2    -0.191397961561E+03   -0.90504E-02   -0.43139E-02 13600   0.987E-01    0.931E-01
DAV:   3    -0.191390689372E+03    0.72722E-02   -0.19405E-02 11960   0.903E-01    0.243E-01
DAV:   4    -0.191390229984E+03    0.45939E-03   -0.17151E-03 10000   0.200E-01    0.121E-01
DAV:   5    -0.191390134161E+03    0.95823E-04   -0.87746E-04 11320   0.194E-01
  92 F= -.19139013E+03 E0= -.19128003E+03  d E =-.751858E-02
       N       E                     dE             d eps       ncg     rms          rms(c)
DAV:   1    -0.191381536722E+03    0.86933E-02   -0.22520E+00  8160   0.319E+00    0.371E-01
DAV:   2    -0.191394361543E+03   -0.12825E-01   -0.71263E-02 13600   0.123E+00    0.102E+00
DAV:   3    -0.191384545733E+03    0.98158E-02   -0.26360E-02 11720   0.111E+00    0.405E-01
DAV:   4    -0.191383703045E+03    0.84269E-03   -0.60851E-03 10800   0.461E-01    0.284E-01
DAV:   5    -0.191383210247E+03    0.49280E-03   -0.34831E-03 11080   0.404E-01    0.223E-01
DAV:   6    -0.191382657575E+03    0.55267E-03   -0.15162E-03 10040   0.234E-01    0.978E-02
DAV:   7    -0.191382985803E+03   -0.32823E-03   -0.10423E-03 10360   0.233E-01    0.201E-01
DAV:   8    -0.191382569659E+03    0.41614E-03   -0.56776E-04  8280   0.179E-01    0.249E-02
DAV:   9    -0.191382585331E+03   -0.15671E-04   -0.41153E-05  5640   0.279E-02
  93 F= -.19138259E+03 E0= -.19127383E+03  d E =0.754883E-02
       N       E                     dE             d eps       ncg     rms          rms(c)
DAV:   1    -0.191384678603E+03   -0.21089E-02   -0.10805E-01  8160   0.692E-01    0.780E-02
DAV:   2    -0.191385251041E+03   -0.57244E-03   -0.35161E-03 13600   0.290E-01    0.213E-01
DAV:   3    -0.191384823104E+03    0.42794E-03   -0.10016E-03  9440   0.224E-01    0.719E-02
DAV:   4    -0.191384848789E+03   -0.25685E-04   -0.27551E-04  7400   0.111E-01
  94 F= -.19138485E+03 E0= -.19127594E+03  d E =-.226346E-02
       N       E                     dE             d eps       ncg     rms          rms(c)
DAV:   1    -0.191388146230E+03   -0.33231E-02   -0.20462E-01  8160   0.965E-01    0.133E-01
DAV:   2    -0.191390833180E+03   -0.26870E-02   -0.10279E-02 13560   0.500E-01    0.518E-01
DAV:   3    -0.191388427984E+03    0.24052E-02   -0.53461E-03 11240   0.478E-01    0.105E-01
DAV:   4    -0.191388361750E+03    0.66234E-04   -0.37208E-04  8120   0.839E-02
  95 F= -.19138836E+03 E0= -.19127899E+03  d E =-.351296E-02
       N       E                     dE             d eps       ncg     rms          rms(c)
DAV:   1    -0.191382964695E+03    0.54633E-02   -0.43547E-01  8160   0.140E+00    0.176E-01
DAV:   2    -0.191388672936E+03   -0.57082E-02   -0.20755E-02 13560   0.737E-01    0.760E-01
DAV:   3    -0.191383536370E+03    0.51366E-02   -0.10567E-02 11000   0.667E-01    0.121E-01
DAV:   4    -0.191383516463E+03    0.19906E-04   -0.70985E-04  9840   0.143E-01
  96 F= -.19138352E+03 E0= -.19127479E+03  d E =0.484529E-02
       N       E                     dE             d eps       ncg     rms          rms(c)
DAV:   1    -0.191385519555E+03   -0.19832E-02   -0.13491E-01  8160   0.772E-01    0.986E-02
DAV:   2    -0.191386179122E+03   -0.65957E-03   -0.37378E-03 13480   0.310E-01    0.244E-01
DAV:   3    -0.191385559900E+03    0.61922E-03   -0.13782E-03  9920   0.270E-01    0.797E-02
DAV:   4    -0.191385637334E+03   -0.77434E-04   -0.47484E-04  7960   0.137E-01
  97 F= -.19138564E+03 E0= -.19127698E+03  d E =-.212087E-02
       N       E                     dE             d eps       ncg     rms          rms(c)
DAV:   1    -0.191391141369E+03   -0.55815E-02   -0.41720E-01  8160   0.138E+00    0.175E-01
DAV:   2    -0.191393941068E+03   -0.27997E-02   -0.15423E-02 13440   0.564E-01    0.527E-01
DAV:   3    -0.191391657408E+03    0.22837E-02   -0.67818E-03 11240   0.536E-01    0.176E-01
DAV:   4    -0.191391385117E+03    0.27229E-03   -0.78945E-04  9360   0.142E-01    0.752E-02
DAV:   5    -0.191391401942E+03   -0.16825E-04   -0.45006E-04  9080   0.134E-01
  98 F= -.19139140E+03 E0= -.19128242E+03  d E =-.576461E-02
       N       E                     dE             d eps       ncg     rms          rms(c)
DAV:   1    -0.191393510023E+03   -0.21249E-02   -0.63452E-02  8160   0.539E-01    0.953E-02
DAV:   2    -0.191394651620E+03   -0.11416E-02   -0.35355E-03 12520   0.389E-01    0.323E-01
DAV:   3    -0.191393462874E+03    0.11887E-02   -0.18424E-03  9960   0.327E-01    0.595E-02
DAV:   4    -0.191393525637E+03   -0.62763E-04   -0.27225E-04  7040   0.107E-01
  99 F= -.19139353E+03 E0= -.19128460E+03  d E =-.212369E-02
       N       E                     dE             d eps       ncg     rms          rms(c)
DAV:   1    -0.191401932286E+03   -0.84694E-02   -0.60695E-01  8160   0.165E+00    0.210E-01
DAV:   2    -0.191406870166E+03   -0.49379E-02   -0.23781E-02 13600   0.755E-01    0.701E-01
DAV:   3    -0.191402682332E+03    0.41878E-02   -0.10579E-02 11440   0.670E-01    0.187E-01
DAV:   4    -0.191402606310E+03    0.76023E-04   -0.13935E-03  9960   0.239E-01    0.164E-01
DAV:   5    -0.191402394698E+03    0.21161E-03   -0.99071E-04 10600   0.233E-01    0.110E-01
DAV:   6    -0.191402343258E+03    0.51440E-04   -0.44362E-04  8280   0.131E-01
 100 F= -.19140234E+03 E0= -.19129256E+03  d E =-.881762E-02
