<?xml version="1.0" encoding="ISO-8859-1"?>
<modeling>
 <generator>
  <i name="program" type="string">vasp </i>
  <i name="version" type="string">5.4.1  </i>
  <i name="subversion" type="string">05Feb16 (build Jul 05 2020 17:13:04) complex                          parallel </i>
  <i name="platform" type="string">IFC91_ompi </i>
  <i name="date" type="string">2024 04 21 </i>
  <i name="time" type="string">20:10:12 </i>
 </generator>
 <incar>
  <i type="int" name="ISTART">     0</i>
  <i type="string" name="PREC">normal</i>
  <i type="string" name="ALGO"> Normal</i>
  <i type="int" name="ISPIN">     1</i>
  <i type="int" name="ICHARG">     2</i>
  <i type="int" name="IBRION">     1</i>
  <i type="int" name="NSW">   100</i>
  <i type="int" name="ISIF">     3</i>
  <i type="int" name="ISYM">     0</i>
  <i name="SYMPREC">      0.00000001</i>
  <i name="POTIM">      0.50000000</i>
  <i type="logical" name="LREAL"> F  </i>
  <i type="logical" name="LPLANE"> F  </i>
  <i type="int" name="ISMEAR">     0</i>
  <i type="logical" name="LWAVE"> F  </i>
  <i type="logical" name="LCHARG"> F  </i>
  <v type="int" name="KPOINT_BSE">    -1     0     0     0</v>
 </incar>
 <kpoints>
  <generation param="Gamma">
   <v type="int" name="divisions">       8        8        1 </v>
   <v name="usershift">      0.00000000       0.00000000       0.00000000 </v>
   <v name="genvec1">      0.12500000       0.00000000       0.00000000 </v>
   <v name="genvec2">     -0.00000000       0.12500000       0.00000000 </v>
   <v name="genvec3">      0.00000000       0.00000000       1.00000000 </v>
   <v name="shift">      0.00000000       0.00000000       0.00000000 </v>
  </generation>
  <varray name="kpointlist" >
   <v>       0.00000000       0.00000000       0.00000000 </v>
   <v>       0.12500000       0.00000000       0.00000000 </v>
   <v>       0.25000000       0.00000000       0.00000000 </v>
   <v>       0.37500000       0.00000000       0.00000000 </v>
   <v>       0.50000000       0.00000000       0.00000000 </v>
   <v>       0.00000000       0.12500000       0.00000000 </v>
   <v>       0.12500000       0.12500000       0.00000000 </v>
   <v>       0.25000000       0.12500000       0.00000000 </v>
   <v>       0.37500000       0.12500000       0.00000000 </v>
   <v>       0.50000000       0.12500000       0.00000000 </v>
   <v>      -0.37500000       0.12500000       0.00000000 </v>
   <v>      -0.25000000       0.12500000       0.00000000 </v>
   <v>      -0.12500000       0.12500000       0.00000000 </v>
   <v>       0.00000000       0.25000000       0.00000000 </v>
   <v>       0.12500000       0.25000000       0.00000000 </v>
   <v>       0.25000000       0.25000000       0.00000000 </v>
   <v>       0.37500000       0.25000000       0.00000000 </v>
   <v>       0.50000000       0.25000000       0.00000000 </v>
   <v>      -0.37500000       0.25000000       0.00000000 </v>
   <v>      -0.25000000       0.25000000       0.00000000 </v>
   <v>      -0.12500000       0.25000000       0.00000000 </v>
   <v>      -0.00000000       0.37500000       0.00000000 </v>
   <v>       0.12500000       0.37500000       0.00000000 </v>
   <v>       0.25000000       0.37500000       0.00000000 </v>
   <v>       0.37500000       0.37500000       0.00000000 </v>
   <v>       0.50000000       0.37500000       0.00000000 </v>
   <v>      -0.37500000       0.37500000       0.00000000 </v>
   <v>      -0.25000000       0.37500000       0.00000000 </v>
   <v>      -0.12500000       0.37500000       0.00000000 </v>
   <v>       0.00000000       0.50000000       0.00000000 </v>
   <v>       0.12500000       0.50000000       0.00000000 </v>
   <v>       0.25000000       0.50000000       0.00000000 </v>
   <v>       0.37500000       0.50000000       0.00000000 </v>
   <v>       0.50000000       0.50000000       0.00000000 </v>
  </varray>
  <varray name="weights" >
   <v>       0.01562500 </v>
   <v>       0.03125000 </v>
   <v>       0.03125000 </v>
   <v>       0.03125000 </v>
   <v>       0.01562500 </v>
   <v>       0.03125000 </v>
   <v>       0.03125000 </v>
   <v>       0.03125000 </v>
   <v>       0.03125000 </v>
   <v>       0.03125000 </v>
   <v>       0.03125000 </v>
   <v>       0.03125000 </v>
   <v>       0.03125000 </v>
   <v>       0.03125000 </v>
   <v>       0.03125000 </v>
   <v>       0.03125000 </v>
   <v>       0.03125000 </v>
   <v>       0.03125000 </v>
   <v>       0.03125000 </v>
   <v>       0.03125000 </v>
   <v>       0.03125000 </v>
   <v>       0.03125000 </v>
   <v>       0.03125000 </v>
   <v>       0.03125000 </v>
   <v>       0.03125000 </v>
   <v>       0.03125000 </v>
   <v>       0.03125000 </v>
   <v>       0.03125000 </v>
   <v>       0.03125000 </v>
   <v>       0.01562500 </v>
   <v>       0.03125000 </v>
   <v>       0.03125000 </v>
   <v>       0.03125000 </v>
   <v>       0.01562500 </v>
  </varray>
 </kpoints>
 <parameters>
  <separator name="general" >
   <i type="string" name="SYSTEM">unknown system</i>
   <i type="logical" name="LCOMPAT"> F  </i>
  </separator>
  <separator name="electronic" >
   <i type="string" name="PREC">normal</i>
   <i name="ENMAX">    280.00000000</i>
   <i name="ENAUG">    373.43800000</i>
   <i name="EDIFF">      0.00010000</i>
   <i type="int" name="IALGO">    38</i>
   <i type="int" name="IWAVPR">    11</i>
   <i type="int" name="NBANDS">   120</i>
   <i name="NELECT">    159.00000000</i>
   <i type="int" name="TURBO">     0</i>
   <i type="int" name="IRESTART">     0</i>
   <i type="int" name="NREBOOT">     0</i>
   <i type="int" name="NMIN">     0</i>
   <i name="EREF">      0.00000000</i>
   <separator name="electronic smearing" >
    <i type="int" name="ISMEAR">     0</i>
    <i name="SIGMA">      0.20000000</i>
    <i name="KSPACING">      0.50000000</i>
    <i type="logical" name="KGAMMA"> T  </i>
   </separator>
   <separator name="electronic projectors" >
    <i type="logical" name="LREAL"> F  </i>
    <v name="ROPT">      0.00000000      0.00000000      0.00000000      0.00000000</v>
    <i type="int" name="LMAXPAW">  -100</i>
    <i type="int" name="LMAXMIX">     2</i>
    <i type="logical" name="NLSPLINE"> F  </i>
   </separator>
   <separator name="electronic startup" >
    <i type="int" name="ISTART">     0</i>
    <i type="int" name="ICHARG">     2</i>
    <i type="int" name="INIWAV">     1</i>
   </separator>
   <separator name="electronic spin" >
    <i type="int" name="ISPIN">     1</i>
    <i type="logical" name="LNONCOLLINEAR"> F  </i>
    <v name="MAGMOM">      1.00000000      1.00000000      1.00000000      1.00000000      1.00000000      1.00000000      1.00000000      1.00000000      1.00000000      1.00000000      1.00000000      1.00000000      1.00000000      1.00000000      1.00000000      1.00000000      1.00000000      1.00000000      1.00000000      1.00000000
      1.00000000      1.00000000      1.00000000      1.00000000      1.00000000      1.00000000      1.00000000</v>
    <i name="NUPDOWN">     -1.00000000</i>
    <i type="logical" name="LSORBIT"> F  </i>
    <v name="SAXIS">      0.00000000      0.00000000      1.00000000</v>
    <i type="logical" name="LSPIRAL"> F  </i>
    <v name="QSPIRAL">      0.00000000      0.00000000      0.00000000</v>
    <i type="logical" name="LZEROZ"> F  </i>
   </separator>
   <separator name="electronic exchange-correlation" >
    <i type="logical" name="LASPH"> F  </i>
    <i type="logical" name="LMETAGGA"> F  </i>
   </separator>
   <separator name="electronic convergence" >
    <i type="int" name="NELM">    60</i>
    <i type="int" name="NELMDL">    -5</i>
    <i type="int" name="NELMIN">     2</i>
    <i name="ENINI">    280.00000000</i>
    <separator name="electronic convergence detail" >
     <i type="logical" name="LDIAG"> T  </i>
     <i type="logical" name="LSUBROT"> F  </i>
     <i name="WEIMIN">      0.00100000</i>
     <i name="EBREAK">      0.00000021</i>
     <i name="DEPER">      0.30000000</i>
     <i type="int" name="NRMM">     4</i>
     <i name="TIME">      0.40000000</i>
    </separator>
   </separator>
   <separator name="electronic mixer" >
    <i name="AMIX">      0.40000000</i>
    <i name="BMIX">      1.00000000</i>
    <i name="AMIN">      0.10000000</i>
    <i name="AMIX_MAG">      1.60000000</i>
    <i name="BMIX_MAG">      1.00000000</i>
    <separator name="electronic mixer details" >
     <i type="int" name="IMIX">     4</i>
     <i type="logical" name="MIXFIRST"> F  </i>
     <i type="int" name="MAXMIX">   -45</i>
     <i name="WC">    100.00000000</i>
     <i type="int" name="INIMIX">     1</i>
     <i type="int" name="MIXPRE">     1</i>
     <i type="int" name="MREMOVE">     5</i>
    </separator>
   </separator>
   <separator name="electronic dipolcorrection" >
    <i type="logical" name="LDIPOL"> F  </i>
    <i type="logical" name="LMONO"> F  </i>
    <i type="int" name="IDIPOL">     0</i>
    <i name="EPSILON">      1.00000000</i>
    <v name="DIPOL">   -100.00000000   -100.00000000   -100.00000000</v>
    <i name="EFIELD">      0.00000000</i>
   </separator>
  </separator>
  <separator name="grids" >
   <i type="int" name="NGX">    42</i>
   <i type="int" name="NGY">    42</i>
   <i type="int" name="NGZ">   126</i>
   <i type="int" name="NGXF">    84</i>
   <i type="int" name="NGYF">    84</i>
   <i type="int" name="NGZF">   252</i>
   <i type="logical" name="ADDGRID"> F  </i>
  </separator>
  <separator name="ionic" >
   <i type="int" name="NSW">   100</i>
   <i type="int" name="IBRION">     1</i>
   <i type="int" name="ISIF">     3</i>
   <i name="PSTRESS">      0.00000000</i>
   <i name="EDIFFG">      0.00100000</i>
   <i type="int" name="NFREE">     0</i>
   <i name="POTIM">      0.50000000</i>
   <i name="SMASS">     -3.00000000</i>
   <i name="SCALEE">      1.00000000</i>
  </separator>
  <separator name="ionic md" >
   <i name="TEBEG">      0.00010000</i>
   <i name="TEEND">      0.00010000</i>
   <i type="int" name="NBLOCK">     1</i>
   <i type="int" name="KBLOCK">   100</i>
   <i type="int" name="NPACO">   256</i>
   <i name="APACO">     16.00000000</i>
  </separator>
  <separator name="symmetry" >
   <i type="int" name="ISYM">     0</i>
   <i name="SYMPREC">      0.00000001</i>
  </separator>
  <separator name="dos" >
   <i type="logical" name="LORBIT"> F  </i>
   <v name="RWIGS">     -1.00000000     -1.00000000     -1.00000000     -1.00000000</v>
   <i type="int" name="NEDOS">   301</i>
   <i name="EMIN">     10.00000000</i>
   <i name="EMAX">    -10.00000000</i>
   <i name="EFERMI">      0.00000000</i>
  </separator>
  <separator name="writing" >
   <i type="int" name="NWRITE">     2</i>
   <i type="logical" name="LWAVE"> F  </i>
   <i type="logical" name="LCHARG"> F  </i>
   <i type="logical" name="LPARD"> F  </i>
   <i type="logical" name="LVTOT"> F  </i>
   <i type="logical" name="LVHAR"> F  </i>
   <i type="logical" name="LELF"> F  </i>
   <i type="logical" name="LOPTICS"> F  </i>
   <v name="STM">      0.00000000      0.00000000      0.00000000      0.00000000      0.00000000      0.00000000      0.00000000</v>
  </separator>
  <separator name="performance" >
   <i type="int" name="NPAR">    40</i>
   <i type="int" name="NSIM">     4</i>
   <i type="int" name="NBLK">    -1</i>
   <i type="logical" name="LPLANE"> F  </i>
   <i type="logical" name="LSCALAPACK"> T  </i>
   <i type="logical" name="LSCAAWARE"> F  </i>
   <i type="logical" name="LSCALU"> F  </i>
   <i type="logical" name="LASYNC"> F  </i>
   <i type="logical" name="LORBITALREAL"> F  </i>
  </separator>
  <separator name="miscellaneous" >
   <i type="int" name="IDIOT">     3</i>
   <i type="logical" name="LMUSIC"> F  </i>
   <v name="POMASS">     50.94100000     95.94000000    183.85000000     32.06600000</v>
   <v name="DARWINR">      0.00000000      0.00000000      0.00000000      0.00000000</v>
   <v name="DARWINV">      1.00000000      1.00000000      1.00000000      1.00000000</v>
   <i type="logical" name="LCORR"> T  </i>
  </separator>
  <i type="logical" name="GGA_COMPAT"> T  </i>
  <i type="logical" name="LBERRY"> F  </i>
  <i type="int" name="ICORELEVEL">     0</i>
  <i type="logical" name="LDAU"> F  </i>
  <i type="int" name="I_CONSTRAINED_M">     0</i>
  <separator name="electronic exchange-correlation" >
   <i type="string" name="GGA">--</i>
   <i type="int" name="VOSKOWN">     0</i>
   <i type="logical" name="LHFCALC"> F  </i>
   <i type="string" name="PRECFOCK"></i>
   <i type="logical" name="LSYMGRAD"> F  </i>
   <i type="logical" name="LHFONE"> F  </i>
   <i type="logical" name="LRHFCALC"> F  </i>
   <i type="logical" name="LTHOMAS"> F  </i>
   <i type="logical" name="LMODELHF"> F  </i>
   <i name="ENCUT4O">     -1.00000000</i>
   <i type="int" name="EXXOEP">     0</i>
   <i type="int" name="FOURORBIT">     0</i>
   <i name="AEXX">      0.00000000</i>
   <i name="HFALPHA">      0.00000000</i>
   <i name="MCALPHA">      0.00000000</i>
   <i name="ALDAX">      1.00000000</i>
   <i name="AGGAX">      1.00000000</i>
   <i name="ALDAC">      1.00000000</i>
   <i name="AGGAC">      1.00000000</i>
   <i type="int" name="NKREDX">     1</i>
   <i type="int" name="NKREDY">     1</i>
   <i type="int" name="NKREDZ">     1</i>
   <i type="logical" name="SHIFTRED"> F  </i>
   <i type="logical" name="ODDONLY"> F  </i>
   <i type="logical" name="EVENONLY"> F  </i>
   <i type="int" name="LMAXFOCK">     0</i>
   <i type="int" name="NMAXFOCKAE">     0</i>
   <i type="logical" name="LFOCKAEDFT"> F  </i>
   <i name="HFSCREEN">      0.00000000</i>
   <i name="HFSCREENC">      0.00000000</i>
   <i type="int" name="NBANDSGWLOW">     0</i>
  </separator>
  <separator name="vdW DFT" >
   <i type="logical" name="LUSE_VDW"> F  </i>
   <i name="Zab_VDW">     -0.84910000</i>
   <i name="PARAM1">      0.12340000</i>
   <i name="PARAM2">      1.00000000</i>
   <i name="PARAM3">      0.00000000</i>
  </separator>
  <separator name="model GW" >
   <i type="int" name="MODEL_GW">     0</i>
   <i name="MODEL_EPS0">     58.26239943</i>
   <i name="MODEL_ALPHA">      1.00000000</i>
  </separator>
  <separator name="linear response parameters" >
   <i type="logical" name="LEPSILON"> F  </i>
   <i type="logical" name="LRPA"> F  </i>
   <i type="logical" name="LNABLA"> F  </i>
   <i type="logical" name="LVEL"> F  </i>
   <i type="int" name="KINTER">     0</i>
   <i name="CSHIFT">      0.10000000</i>
   <i name="OMEGAMAX">     -1.00000000</i>
   <i name="DEG_THRESHOLD">      0.00200000</i>
  </separator>
  <separator name="orbital magnetization" >
   <i type="logical" name="NUCIND"> F  </i>
   <v name="MAGPOS">      0.00000000      0.00000000      0.00000000</v>
   <i type="logical" name="LNICSALL"> T  </i>
   <i type="logical" name="ORBITALMAG"> F  </i>
   <i type="logical" name="LMAGBLOCH"> F  </i>
   <i type="logical" name="LCHIMAG"> F  </i>
   <i type="logical" name="LGAUGE"> T  </i>
   <i type="int" name="MAGATOM">     0</i>
   <v name="MAGDIPOL">      0.00000000      0.00000000      0.00000000</v>
   <v name="AVECCONST">      0.00000000      0.00000000      0.00000000</v>
  </separator>
  <separator name="response functions" >
   <i type="logical" name="LADDER"> F  </i>
   <i type="logical" name="LFXC"> F  </i>
   <i type="logical" name="LHARTREE"> T  </i>
   <i type="int" name="IBSE">     0</i>
   <v type="int" name="KPOINT">    -1     0     0     0</v>
   <i type="logical" name="LTCTE"> F  </i>
   <i type="logical" name="LTETE"> F  </i>
   <i type="logical" name="LTRIPLET"> F  </i>
   <i type="logical" name="LFXCEPS"> F  </i>
   <i type="logical" name="LFXHEG"> F  </i>
   <i type="int" name="NATURALO">     0</i>
   <i type="logical" name="L2ORDER"> F  </i>
   <i type="logical" name="LUSEW"> F  </i>
   <i name="ENCUTGW">     -2.00000000</i>
   <i name="ENCUTGWSOFT">     -2.00000000</i>
   <i name="ENCUTLF">     -1.00000000</i>
   <i type="int" name="LMAXMP2">    -1</i>
   <i name="SCISSOR">      0.00000000</i>
   <i type="int" name="NOMEGA">     0</i>
   <i type="int" name="NOMEGAR">     0</i>
   <i type="int" name="NBANDSGW">    -1</i>
   <i type="int" name="NBANDSO">    -1</i>
   <i type="int" name="NBANDSV">    -1</i>
   <i type="int" name="NELM">     1</i>
   <i type="int" name="NELMHF">     1</i>
   <i type="int" name="DIM">     3</i>
   <i type="int" name="ANTIRES">     0</i>
   <i name="OMEGAMAX">    -30.00000000</i>
   <i name="OMEGAMIN">    -30.00000000</i>
   <i name="OMEGATL">   -200.00000000</i>
   <i type="int" name="OMEGAGRID">     0</i>
   <i name="CSHIFT">     -0.10000000</i>
   <i type="logical" name="SELFENERGY"> F  </i>
   <i type="logical" name="LSPECTRAL"> F  </i>
   <i type="logical" name="LSPECTRALGW"> F  </i>
   <i type="logical" name="LSINGLES"> F  </i>
   <i type="logical" name="LFERMIGW"> F  </i>
   <i type="logical" name="ODDONLYGW"> F  </i>
   <i type="logical" name="EVENONLYGW"> F  </i>
   <i type="int" name="NKREDLFX">     1</i>
   <i type="int" name="NKREDLFY">     1</i>
   <i type="int" name="NKREDLFZ">     1</i>
   <i type="int" name="MAXMEM">  1800</i>
   <i type="int" name="TELESCOPE">     0</i>
   <i type="int" name="TAUPAR">     1</i>
   <i type="int" name="OMEGAPAR">    -1</i>
   <i name="LAMBDA">      1.00000000</i>
  </separator>
  <separator name="External order field" >
   <i name="OFIELD_KAPPA">      0.00000000</i>
   <v name="OFIELD_K">      0.00000000      0.00000000      0.00000000</v>
   <i name="OFIELD_Q6_NEAR">      0.00000000</i>
   <i name="OFIELD_Q6_FAR">      0.00000000</i>
   <i name="OFIELD_A">      0.00000000</i>
  </separator>
 </parameters>
 <atominfo>
  <atoms>      27 </atoms>
  <types>       4 </types>
  <array name="atoms" >
   <dimension dim="1">ion</dimension>
   <field type="string">element</field>
   <field type="int">atomtype</field>
   <set>
    <rc><c>V </c><c>   1</c></rc>
    <rc><c>V </c><c>   1</c></rc>
    <rc><c>V </c><c>   1</c></rc>
    <rc><c>Mo</c><c>   2</c></rc>
    <rc><c>Mo</c><c>   2</c></rc>
    <rc><c>Mo</c><c>   2</c></rc>
    <rc><c>W </c><c>   3</c></rc>
    <rc><c>W </c><c>   3</c></rc>
    <rc><c>W </c><c>   3</c></rc>
    <rc><c>S </c><c>   4</c></rc>
    <rc><c>S </c><c>   4</c></rc>
    <rc><c>S </c><c>   4</c></rc>
    <rc><c>S </c><c>   4</c></rc>
    <rc><c>S </c><c>   4</c></rc>
    <rc><c>S </c><c>   4</c></rc>
    <rc><c>S </c><c>   4</c></rc>
    <rc><c>S </c><c>   4</c></rc>
    <rc><c>S </c><c>   4</c></rc>
    <rc><c>S </c><c>   4</c></rc>
    <rc><c>S </c><c>   4</c></rc>
    <rc><c>S </c><c>   4</c></rc>
    <rc><c>S </c><c>   4</c></rc>
    <rc><c>S </c><c>   4</c></rc>
    <rc><c>S </c><c>   4</c></rc>
    <rc><c>S </c><c>   4</c></rc>
    <rc><c>S </c><c>   4</c></rc>
    <rc><c>S </c><c>   4</c></rc>
   </set>
  </array>
  <array name="atomtypes" >
   <dimension dim="1">type</dimension>
   <field type="int">atomspertype</field>
   <field type="string">element</field>
   <field>mass</field>
   <field>valence</field>
   <field type="string">pseudopotential</field>
   <set>
    <rc><c>   3</c><c>V </c><c>     50.94100000</c><c>      5.00000000</c><c> PAW_PBE V 08Apr2002                    </c></rc>
    <rc><c>   3</c><c>Mo</c><c>     95.94000000</c><c>      6.00000000</c><c> PAW_PBE Mo 08Apr2002                   </c></rc>
    <rc><c>   3</c><c>W </c><c>    183.85000000</c><c>      6.00000000</c><c> PAW_PBE W 08Apr2002                    </c></rc>
    <rc><c>  18</c><c>S </c><c>     32.06600000</c><c>      6.00000000</c><c>  PAW_PBE S 17Jan2003                   </c></rc>
   </set>
  </array>
 </atominfo>
 <structure name="initialpos" >
  <crystal>
   <varray name="basis" >
    <v>       8.66999996       5.03999989       0.00000000 </v>
    <v>      -8.66999982       5.04000013       0.00000000 </v>
    <v>       0.00000000       0.00000000      30.00000000 </v>
   </varray>
   <i name="volume">   2621.80797419 </i>
   <varray name="rec_basis" >
    <v>       0.05767013       0.09920635       0.00000000 </v>
    <v>      -0.05767013       0.09920635       0.00000000 </v>
    <v>       0.00000000       0.00000000       0.03333333 </v>
   </varray>
  </crystal>
  <varray name="positions" >
   <v>       0.33333334       0.66666669       0.00000000 </v>
   <v>       0.00000000       0.00000000       0.00000000 </v>
   <v>       0.00000000       0.66666669       0.00000000 </v>
   <v>       0.66666669       0.66666669       0.00000000 </v>
   <v>       0.66666669       0.33333334       0.00000000 </v>
   <v>       0.33333334       0.00000000       0.00000000 </v>
   <v>       1.00000000       0.33333334       0.00000000 </v>
   <v>       0.33333334       0.33333334       0.00000000 </v>
   <v>       0.66666669       0.00000000       0.00000000 </v>
   <v>       0.11068511       0.22244981       0.95539999 </v>
   <v>       0.22244981       0.11068511       0.04460000 </v>
   <v>       0.11068511       0.55578315       0.95539999 </v>
   <v>       0.22244981       0.44401845       0.04460000 </v>
   <v>       0.11068511       0.88911647       0.95539999 </v>
   <v>       0.22244981       0.77735180       0.04460000 </v>
   <v>       0.44401845       0.22244981       0.95539999 </v>
   <v>       0.55578315       0.11068511       0.04460000 </v>
   <v>       0.44401845       0.55578315       0.95539999 </v>
   <v>       0.55578315       0.44401845       0.04460000 </v>
   <v>       0.44401845       0.88911647       0.95539999 </v>
   <v>       0.55578315       0.77735180       0.04460000 </v>
   <v>       0.77735180       0.22244981       0.95539999 </v>
   <v>       0.88911647       0.11068511       0.04460000 </v>
   <v>       0.77735180       0.55578315       0.95539999 </v>
   <v>       0.88911647       0.44401845       0.04460000 </v>
   <v>       0.77735180       0.88911647       0.95539999 </v>
   <v>       0.88911647       0.77735180       0.04460000 </v>
  </varray>
 </structure>
 <calculation>
  <scstep>
   <time name="dav">   21.55   21.60</time>
   <time name="total">   21.60   21.65</time>
   <energy>
    <i name="alphaZ">     81.65567618 </i>
    <i name="ewald">  41890.25209519 </i>
    <i name="hartreedc"> -47722.88714022 </i>
    <i name="XCdc">   -242.92853611 </i>
    <i name="pawpsdc">   3467.42045192 </i>
    <i name="pawaedc">  -2871.19716117 </i>
    <i name="eentropy">     -0.53638821 </i>
    <i name="bandstr">   -237.50297966 </i>
    <i name="atom">   6761.44252427 </i>
    <i name="e_fr_energy">   1125.71854218 </i>
    <i name="e_wo_entrp">   1126.25493039 </i>
    <i name="e_0_energy">   1125.98673629 </i>
   </energy>
  </scstep>
  <scstep>
   <time name="dav">   27.91   27.98</time>
   <time name="total">   27.91   27.99</time>
   <energy>
    <i name="e_fr_energy">     -3.25741645 </i>
    <i name="e_wo_entrp">     -3.07410781 </i>
    <i name="e_0_energy">     -3.16576213 </i>
   </energy>
  </scstep>
  <scstep>
   <time name="dav">   27.30   27.37</time>
   <time name="total">   27.30   27.38</time>
   <energy>
    <i name="e_fr_energy">   -199.72640228 </i>
    <i name="e_wo_entrp">   -199.44729525 </i>
    <i name="e_0_energy">   -199.58684876 </i>
   </energy>
  </scstep>
  <scstep>
   <time name="dav">   30.14   30.21</time>
   <time name="total">   30.14   30.22</time>
   <energy>
    <i name="e_fr_energy">   -208.97760477 </i>
    <i name="e_wo_entrp">   -208.65949439 </i>
    <i name="e_0_energy">   -208.81854958 </i>
   </energy>
  </scstep>
  <scstep>
   <time name="dav">   28.85   28.92</time>
   <time name="total">   29.32   29.39</time>
   <energy>
    <i name="e_fr_energy">   -209.28827776 </i>
    <i name="e_wo_entrp">   -208.97290037 </i>
    <i name="e_0_energy">   -209.13058906 </i>
   </energy>
  </scstep>
  <scstep>
   <time name="dav">   30.71   30.78</time>
   <time name="total">   31.20   31.29</time>
   <energy>
    <i name="e_fr_energy">   -236.75410640 </i>
    <i name="e_wo_entrp">   -236.46706336 </i>
    <i name="e_0_energy">   -236.61058488 </i>
   </energy>
  </scstep>
  <scstep>
   <time name="dav">   32.41   32.49</time>
   <time name="total">   32.92   33.00</time>
   <energy>
    <i name="e_fr_energy">   -196.69558074 </i>
    <i name="e_wo_entrp">   -196.37534791 </i>
    <i name="e_0_energy">   -196.53546433 </i>
   </energy>
  </scstep>
  <scstep>
   <time name="dav">   29.30   29.37</time>
   <time name="total">   29.81   29.89</time>
   <energy>
    <i name="e_fr_energy">   -190.04323406 </i>
    <i name="e_wo_entrp">   -189.76979612 </i>
    <i name="e_0_energy">   -189.90651509 </i>
   </energy>
  </scstep>
  <scstep>
   <time name="dav">   29.63   29.70</time>
   <time name="total">   30.16   30.24</time>
   <energy>
    <i name="e_fr_energy">   -188.24820077 </i>
    <i name="e_wo_entrp">   -187.90991854 </i>
    <i name="e_0_energy">   -188.07905966 </i>
   </energy>
  </scstep>
  <scstep>
   <time name="dav">   32.35   32.43</time>
   <time name="total">   32.88   32.97</time>
   <energy>
    <i name="e_fr_energy">   -187.06006353 </i>
    <i name="e_wo_entrp">   -186.71675212 </i>
    <i name="e_0_energy">   -186.88840783 </i>
   </energy>
  </scstep>
  <scstep>
   <time name="dav">   31.37   31.44</time>
   <time name="total">   31.90   31.99</time>
   <energy>
    <i name="e_fr_energy">   -187.00159726 </i>
    <i name="e_wo_entrp">   -186.65030515 </i>
    <i name="e_0_energy">   -186.82595121 </i>
   </energy>
  </scstep>
  <scstep>
   <time name="dav">   31.02   31.10</time>
   <time name="total">   31.55   31.63</time>
   <energy>
    <i name="e_fr_energy">   -187.12794596 </i>
    <i name="e_wo_entrp">   -186.79440475 </i>
    <i name="e_0_energy">   -186.96117536 </i>
   </energy>
  </scstep>
  <scstep>
   <time name="dav">   31.29   31.37</time>
   <time name="total">   31.83   31.91</time>
   <energy>
    <i name="e_fr_energy">   -186.91432469 </i>
    <i name="e_wo_entrp">   -186.57729367 </i>
    <i name="e_0_energy">   -186.74580918 </i>
   </energy>
  </scstep>
  <scstep>
   <time name="dav">   31.96   32.03</time>
   <time name="total">   32.49   32.57</time>
   <energy>
    <i name="e_fr_energy">   -186.90188910 </i>
    <i name="e_wo_entrp">   -186.55909646 </i>
    <i name="e_0_energy">   -186.73049278 </i>
   </energy>
  </scstep>
  <scstep>
   <time name="dav">   30.67   30.75</time>
   <time name="total">   31.20   31.29</time>
   <energy>
    <i name="e_fr_energy">   -186.87293950 </i>
    <i name="e_wo_entrp">   -186.52673011 </i>
    <i name="e_0_energy">   -186.69983481 </i>
   </energy>
  </scstep>
  <scstep>
   <time name="dav">   30.34   30.41</time>
   <time name="total">   30.87   30.95</time>
   <energy>
    <i name="e_fr_energy">   -186.86835076 </i>
    <i name="e_wo_entrp">   -186.52272933 </i>
    <i name="e_0_energy">   -186.69554004 </i>
   </energy>
  </scstep>
  <scstep>
   <time name="dav">   31.13   31.21</time>
   <time name="total">   31.67   31.75</time>
   <energy>
    <i name="e_fr_energy">   -186.86602743 </i>
    <i name="e_wo_entrp">   -186.52214866 </i>
    <i name="e_0_energy">   -186.69408804 </i>
   </energy>
  </scstep>
  <scstep>
   <time name="dav">   28.52   28.59</time>
   <time name="total">   29.05   29.13</time>
   <energy>
    <i name="e_fr_energy">   -186.86547341 </i>
    <i name="e_wo_entrp">   -186.52156569 </i>
    <i name="e_0_energy">   -186.69351955 </i>
   </energy>
  </scstep>
  <scstep>
   <time name="dav">   25.36   25.42</time>
   <time name="total">   25.90   25.97</time>
   <energy>
    <i name="e_fr_energy">   -186.86529963 </i>
    <i name="e_wo_entrp">   -186.52112434 </i>
    <i name="e_0_energy">   -186.69321198 </i>
   </energy>
  </scstep>
  <scstep>
   <time name="dav">   23.41   23.47</time>
   <time name="total">   23.94   24.01</time>
   <energy>
    <i name="e_fr_energy">   -186.86613102 </i>
    <i name="e_wo_entrp">   -186.52212855 </i>
    <i name="e_0_energy">   -186.69412978 </i>
   </energy>
  </scstep>
  <scstep>
   <time name="dav">   21.76   21.81</time>
   <time name="total">   22.30   22.36</time>
   <energy>
    <i name="e_fr_energy">   -186.86676601 </i>
    <i name="e_wo_entrp">   -186.52286970 </i>
    <i name="e_0_energy">   -186.69481786 </i>
   </energy>
  </scstep>
  <scstep>
   <time name="dav">   20.34   20.39</time>
   <time name="total">   20.87   20.93</time>
   <energy>
    <i name="e_fr_energy">   -186.86784574 </i>
    <i name="e_wo_entrp">   -186.52380292 </i>
    <i name="e_0_energy">   -186.69582433 </i>
   </energy>
  </scstep>
  <scstep>
   <time name="dav">   20.45   20.50</time>
   <time name="total">   20.98   21.04</time>
   <energy>
    <i name="e_fr_energy">   -186.86900524 </i>
    <i name="e_wo_entrp">   -186.52508813 </i>
    <i name="e_0_energy">   -186.69704669 </i>
   </energy>
  </scstep>
  <scstep>
   <time name="dav">   18.53   18.58</time>
   <time name="total">   19.07   19.12</time>
   <energy>
    <i name="e_fr_energy">   -186.86959996 </i>
    <i name="e_wo_entrp">   -186.52564089 </i>
    <i name="e_0_energy">   -186.69762042 </i>
   </energy>
  </scstep>
  <scstep>
   <time name="dav">   16.44   16.48</time>
   <time name="total">   16.97   17.02</time>
   <energy>
    <i name="e_fr_energy">   -186.86995288 </i>
    <i name="e_wo_entrp">   -186.52597246 </i>
    <i name="e_0_energy">   -186.69796267 </i>
   </energy>
  </scstep>
  <scstep>
   <time name="dav">   18.72   18.76</time>
   <time name="total">   19.25   19.30</time>
   <energy>
    <i name="e_fr_energy">   -186.87019928 </i>
    <i name="e_wo_entrp">   -186.52623547 </i>
    <i name="e_0_energy">   -186.69821737 </i>
   </energy>
  </scstep>
  <scstep>
   <time name="dav">   19.76   19.81</time>
   <time name="total">   19.79   19.85</time>
   <energy>
    <i name="alphaZ">     81.65567618 </i>
    <i name="ewald">  41890.25209519 </i>
    <i name="hartreedc"> -47833.01521620 </i>
    <i name="XCdc">   -231.60443288 </i>
    <i name="pawpsdc">   4192.12207810 </i>
    <i name="pawaedc">  -3610.13619348 </i>
    <i name="eentropy">     -0.34396948 </i>
    <i name="bandstr">  -1437.24284986 </i>
    <i name="atom">   6761.44252427 </i>
    <i name="e_fr_energy">   -186.87028816 </i>
    <i name="e_wo_entrp">   -186.52631868 </i>
    <i name="e_0_energy">   -186.69830342 </i>
   </energy>
  </scstep>
  <structure>
   <crystal>
    <varray name="basis" >
     <v>       8.66999996       5.03999989       0.00000000 </v>
     <v>      -8.66999982       5.04000013       0.00000000 </v>
     <v>       0.00000000       0.00000000      30.00000000 </v>
    </varray>
    <i name="volume">   2621.80797419 </i>
    <varray name="rec_basis" >
     <v>       0.05767013       0.09920635       0.00000000 </v>
     <v>      -0.05767013       0.09920635       0.00000000 </v>
     <v>       0.00000000       0.00000000       0.03333333 </v>
    </varray>
   </crystal>
   <varray name="positions" >
    <v>       0.33333334       0.66666669       0.00000000 </v>
    <v>       0.00000000       0.00000000       0.00000000 </v>
    <v>       0.00000000       0.66666669       0.00000000 </v>
    <v>       0.66666669       0.66666669       0.00000000 </v>
    <v>       0.66666669       0.33333334       0.00000000 </v>
    <v>       0.33333334       0.00000000       0.00000000 </v>
    <v>       1.00000000       0.33333334       0.00000000 </v>
    <v>       0.33333334       0.33333334       0.00000000 </v>
    <v>       0.66666669       0.00000000       0.00000000 </v>
    <v>       0.11068511       0.22244981       0.95539999 </v>
    <v>       0.22244981       0.11068511       0.04460000 </v>
    <v>       0.11068511       0.55578315       0.95539999 </v>
    <v>       0.22244981       0.44401845       0.04460000 </v>
    <v>       0.11068511       0.88911647       0.95539999 </v>
    <v>       0.22244981       0.77735180       0.04460000 </v>
    <v>       0.44401845       0.22244981       0.95539999 </v>
    <v>       0.55578315       0.11068511       0.04460000 </v>
    <v>       0.44401845       0.55578315       0.95539999 </v>
    <v>       0.55578315       0.44401845       0.04460000 </v>
    <v>       0.44401845       0.88911647       0.95539999 </v>
    <v>       0.55578315       0.77735180       0.04460000 </v>
    <v>       0.77735180       0.22244981       0.95539999 </v>
    <v>       0.88911647       0.11068511       0.04460000 </v>
    <v>       0.77735180       0.55578315       0.95539999 </v>
    <v>       0.88911647       0.44401845       0.04460000 </v>
    <v>       0.77735180       0.88911647       0.95539999 </v>
    <v>       0.88911647       0.77735180       0.04460000 </v>
   </varray>
  </structure>
  <varray name="forces" >
   <v>      -0.08762528       0.20310948      -0.05930866 </v>
   <v>       0.28465173      -0.14693034       0.07178306 </v>
   <v>      -0.21482117      -0.02585006       0.01890801 </v>
   <v>       0.30159805      -0.14175435      -0.02303433 </v>
   <v>      -0.26444565      -0.13116527      -0.01963451 </v>
   <v>       0.00069502       0.19285221       0.04254916 </v>
   <v>      -0.33147041      -0.10020948      -0.02400733 </v>
   <v>       0.55341963       0.31004495      -0.12762029 </v>
   <v>      -0.23657442      -0.18568822       0.10172511 </v>
   <v>       0.46177091      -0.55409315      -2.11367259 </v>
   <v>      -0.62710712      -0.58473957       2.15722378 </v>
   <v>      -0.21696237       0.53342935      -1.43895931 </v>
   <v>      -0.47785789       0.56318182       2.11076890 </v>
   <v>      -0.31830886      -0.66639018      -1.41833796 </v>
   <v>       0.31772010      -0.65991660       1.39192895 </v>
   <v>      -0.06819656       0.00952479      -2.94681903 </v>
   <v>       0.06707643       0.02091763       2.90394929 </v>
   <v>      -0.68980276      -0.16974623      -2.12738452 </v>
   <v>      -0.19729696      -0.13169241       2.93689908 </v>
   <v>       0.62128069      -0.57996711      -2.18449234 </v>
   <v>      -0.61455572      -0.52470966       2.13486958 </v>
   <v>       0.25585206       0.01498619      -2.88648860 </v>
   <v>       0.62483147      -0.00790247       2.15141360 </v>
   <v>       0.52035756       0.69016673      -2.15326819 </v>
   <v>      -0.35684720       0.68867700       2.15865778 </v>
   <v>       0.37522656       0.69609571      -2.11006469 </v>
   <v>       0.31739215       0.68776925       1.45241605 </v>
  </varray>
  <varray name="stress" >
   <v>       7.27481941       0.08344817      -1.54064710 </v>
   <v>       0.08344837       4.49015639       0.06345909 </v>
   <v>      -1.54064719       0.06345915      30.29569072 </v>
  </varray>
  <energy>
   <i name="e_fr_energy">   -186.87028816 </i>
   <i name="e_wo_entrp">   -186.69830342 </i>
   <i name="e_0_energy">     -0.34396948 </i>
  </energy>
  <time name="totalsc">  774.79  776.86</time>
 </calculation>
 <calculation>
  <scstep>
   <time name="dav">   21.52   21.57</time>
   <time name="total">   22.06   22.11</time>
   <energy>
    <i name="alphaZ">     78.91889302 </i>
    <i name="ewald">  39378.81999859 </i>
    <i name="hartreedc"> -45336.29105936 </i>
    <i name="XCdc">   -239.06307963 </i>
    <i name="pawpsdc">   4192.10171047 </i>
    <i name="pawaedc">  -3610.11598104 </i>
    <i name="eentropy">     -0.28587362 </i>
    <i name="bandstr">  -1413.03404014 </i>
    <i name="atom">   6761.44252427 </i>
    <i name="e_fr_energy">   -187.50690743 </i>
    <i name="e_wo_entrp">   -187.22103381 </i>
    <i name="e_0_energy">   -187.36397062 </i>
   </energy>
  </scstep>
  <scstep>
   <time name="dav">   30.13   30.20</time>
   <time name="total">   30.67   30.75</time>
   <energy>
    <i name="e_fr_energy">   -189.39291482 </i>
    <i name="e_wo_entrp">   -189.06549663 </i>
    <i name="e_0_energy">   -189.22920573 </i>
   </energy>
  </scstep>
  <scstep>
   <time name="dav">   30.07   30.14</time>
   <time name="total">   30.61   30.70</time>
   <energy>
    <i name="e_fr_energy">   -189.40165305 </i>
    <i name="e_wo_entrp">   -189.12162553 </i>
    <i name="e_0_energy">   -189.26163929 </i>
   </energy>
  </scstep>
  <scstep>
   <time name="dav">   30.26   30.33</time>
   <time name="total">   30.80   30.88</time>
   <energy>
    <i name="e_fr_energy">   -188.78493827 </i>
    <i name="e_wo_entrp">   -188.50054366 </i>
    <i name="e_0_energy">   -188.64274097 </i>
   </energy>
  </scstep>
  <scstep>
   <time name="dav">   27.85   27.92</time>
   <time name="total">   28.39   28.46</time>
   <energy>
    <i name="e_fr_energy">   -188.89358596 </i>
    <i name="e_wo_entrp">   -188.60228584 </i>
    <i name="e_0_energy">   -188.74793590 </i>
   </energy>
  </scstep>
  <scstep>
   <time name="dav">   30.80   30.87</time>
   <time name="total">   31.34   31.42</time>
   <energy>
    <i name="e_fr_energy">   -188.75879116 </i>
    <i name="e_wo_entrp">   -188.47148985 </i>
    <i name="e_0_energy">   -188.61514051 </i>
   </energy>
  </scstep>
  <scstep>
   <time name="dav">   28.80   28.87</time>
   <time name="total">   29.34   29.42</time>
   <energy>
    <i name="e_fr_energy">   -188.71186171 </i>
    <i name="e_wo_entrp">   -188.42619824 </i>
    <i name="e_0_energy">   -188.56902998 </i>
   </energy>
  </scstep>
  <scstep>
   <time name="dav">   31.43   31.50</time>
   <time name="total">   31.97   32.06</time>
   <energy>
    <i name="e_fr_energy">   -188.71112013 </i>
    <i name="e_wo_entrp">   -188.42660467 </i>
    <i name="e_0_energy">   -188.56886240 </i>
   </energy>
  </scstep>
  <scstep>
   <time name="dav">   29.72   29.79</time>
   <time name="total">   30.26   30.34</time>
   <energy>
    <i name="e_fr_energy">   -188.68045195 </i>
    <i name="e_wo_entrp">   -188.39673231 </i>
    <i name="e_0_energy">   -188.53859213 </i>
   </energy>
  </scstep>
  <scstep>
   <time name="dav">   27.94   28.01</time>
   <time name="total">   28.48   28.56</time>
   <energy>
    <i name="e_fr_energy">   -188.67759312 </i>
    <i name="e_wo_entrp">   -188.39383970 </i>
    <i name="e_0_energy">   -188.53571641 </i>
   </energy>
  </scstep>
  <scstep>
   <time name="dav">   31.40   31.47</time>
   <time name="total">   31.94   32.02</time>
   <energy>
    <i name="e_fr_energy">   -188.67715239 </i>
    <i name="e_wo_entrp">   -188.39398518 </i>
    <i name="e_0_energy">   -188.53556879 </i>
   </energy>
  </scstep>
  <scstep>
   <time name="dav">   29.27   29.35</time>
   <time name="total">   29.82   29.90</time>
   <energy>
    <i name="e_fr_energy">   -188.67703535 </i>
    <i name="e_wo_entrp">   -188.39420858 </i>
    <i name="e_0_energy">   -188.53562197 </i>
   </energy>
  </scstep>
  <scstep>
   <time name="dav">   20.27   20.32</time>
   <time name="total">   20.32   20.59</time>
   <energy>
    <i name="alphaZ">     78.91889302 </i>
    <i name="ewald">  39378.81999859 </i>
    <i name="hartreedc"> -45347.06237232 </i>
    <i name="XCdc">   -237.97505864 </i>
    <i name="pawpsdc">   3950.54098534 </i>
    <i name="pawaedc">  -3365.05380904 </i>
    <i name="eentropy">     -0.28303139 </i>
    <i name="bandstr">  -1408.02518018 </i>
    <i name="atom">   6761.44252427 </i>
    <i name="e_fr_energy">   -188.67705034 </i>
    <i name="e_wo_entrp">   -188.39401895 </i>
    <i name="e_0_energy">   -188.53553465 </i>
   </energy>
  </scstep>
  <structure>
   <crystal>
    <varray name="basis" >
     <v>       8.85564587       5.10828356       0.00000000 </v>
     <v>      -8.85318629       5.10405299       0.00000000 </v>
     <v>       0.00000000       0.00000000      30.00000000 </v>
    </varray>
    <i name="volume">   2712.72815340 </i>
    <varray name="rec_basis" >
     <v>       0.05644561       0.09790719       0.00000000 </v>
     <v>      -0.05649239       0.09793439       0.00000000 </v>
     <v>       0.00000000       0.00000000       0.03333333 </v>
    </varray>
   </crystal>
   <varray name="positions" >
    <v>       0.33406163       0.66788255      -0.00009537 </v>
    <v>       0.00008874      -0.00149515       0.00011543 </v>
    <v>      -0.00072138       0.66714064       0.00003041 </v>
    <v>       0.66682735       0.66514916      -0.00003704 </v>
    <v>       0.66530320       0.33344132      -0.00003157 </v>
    <v>       0.33425826       0.00092105       0.00006842 </v>
    <v>       0.99859820       0.33377595      -0.00003861 </v>
    <v>       0.33635691       0.33327751      -0.00020522 </v>
    <v>       0.66511980      -0.00023051       0.00016358 </v>
    <v>       0.10931795       0.21851321       0.95200102 </v>
    <v>       0.21790655       0.10963127       0.04806901 </v>
    <v>       0.11263447       0.55893976       0.95308602 </v>
    <v>       0.22381571       0.44804331       0.04799430 </v>
    <v>       0.10661020       0.88681272       0.95311918 </v>
    <v>       0.22017541       0.77330950       0.04683834 </v>
    <v>       0.44387431       0.22268513       0.95066124 </v>
    <v>       0.55606988       0.11059860       0.04926981 </v>
    <v>       0.44128691       0.55688989       0.95197897 </v>
    <v>       0.55460396       0.44393709       0.04932279 </v>
    <v>       0.44297125       0.88461225       0.95188713 </v>
    <v>       0.55156211       0.77655034       0.04803306 </v>
    <v>       0.77813534       0.22180971       0.95075826 </v>
    <v>       0.89081703       0.10890891       0.04805966 </v>
    <v>       0.78210264       0.55763856       0.95193734 </v>
    <v>       0.89141965       0.44830725       0.04807131 </v>
    <v>       0.78172724       0.89140402       0.95200682 </v>
    <v>       0.89329115       0.77976041       0.04693561 </v>
   </varray>
  </structure>
  <varray name="forces" >
   <v>      -0.05039584       0.20238405       0.07557452 </v>
   <v>       0.15807987      -0.12290176      -0.05736356 </v>
   <v>      -0.15291805      -0.06453567       0.00561173 </v>
   <v>       0.26158417      -0.30420448      -0.08906634 </v>
   <v>      -0.28806805      -0.29745051      -0.00920342 </v>
   <v>       0.00200975       0.48822284       0.08125386 </v>
   <v>      -0.26419470      -0.23576864       0.01826036 </v>
   <v>       0.61404902       0.37756564      -0.03782693 </v>
   <v>      -0.28357388      -0.03889269       0.04139447 </v>
   <v>      -0.05519764       0.06970704       0.25180102 </v>
   <v>      -0.08663363       0.05641248      -0.02354318 </v>
   <v>       0.04558134      -0.06891689       0.10645744 </v>
   <v>       0.05527726      -0.07112677      -0.29784754 </v>
   <v>       0.01152096      -0.04368264       0.08274365 </v>
   <v>      -0.00326198      -0.04196050      -0.14472415 </v>
   <v>      -0.13858583       0.00942328      -0.27523170 </v>
   <v>       0.14121888       0.01616077       0.17049210 </v>
   <v>       0.02283210      -0.11926356      -0.02208457 </v>
   <v>      -0.04731708      -0.11031461       0.23132685 </v>
   <v>       0.07941129       0.03542553      -0.05858610 </v>
   <v>      -0.07698533       0.05146317      -0.05236468 </v>
   <v>       0.09000114      -0.00486154      -0.01102259 </v>
   <v>      -0.08667184      -0.01155730      -0.08711207 </v>
   <v>       0.03184545       0.08495937      -0.07340805 </v>
   <v>       0.10367275       0.05302055      -0.03130615 </v>
   <v>      -0.10920413       0.04959630       0.17561183 </v>
   <v>       0.02592397       0.04109652       0.03016319 </v>
  </varray>
  <varray name="stress" >
   <v>     -19.88859849      -0.01261557       0.03462240 </v>
   <v>      -0.01261565     -19.49029647      -0.03086824 </v>
   <v>       0.03462244      -0.03086833      -1.74109803 </v>
  </varray>
  <energy>
   <i name="e_fr_energy">   -188.67705034 </i>
   <i name="e_wo_entrp">   -188.53553465 </i>
   <i name="e_0_energy">     -0.28303139 </i>
  </energy>
  <time name="totalsc">  417.71  419.02</time>
 </calculation>
 <calculation>
  <scstep>
   <time name="dav">   23.45   23.51</time>
   <time name="total">   23.99   24.04</time>
   <energy>
    <i name="alphaZ">     82.33785059 </i>
    <i name="ewald">  41299.35716055 </i>
    <i name="hartreedc"> -47298.06929505 </i>
    <i name="XCdc">   -233.85786922 </i>
    <i name="pawpsdc">   3949.79970482 </i>
    <i name="pawaedc">  -3364.30550496 </i>
    <i name="eentropy">     -0.23740800 </i>
    <i name="bandstr">  -1387.06222283 </i>
    <i name="atom">   6761.44252427 </i>
    <i name="e_fr_energy">   -190.59505983 </i>
    <i name="e_wo_entrp">   -190.35765183 </i>
    <i name="e_0_energy">   -190.47635583 </i>
   </energy>
  </scstep>
  <scstep>
   <time name="dav">   27.82   27.89</time>
   <time name="total">   28.34   28.42</time>
   <energy>
    <i name="e_fr_energy">   -190.55799650 </i>
    <i name="e_wo_entrp">   -190.31444095 </i>
    <i name="e_0_energy">   -190.43621872 </i>
   </energy>
  </scstep>
  <scstep>
   <time name="dav">   30.16   30.23</time>
   <time name="total">   30.68   30.76</time>
   <energy>
    <i name="e_fr_energy">   -190.08084569 </i>
    <i name="e_wo_entrp">   -189.82977515 </i>
    <i name="e_0_energy">   -189.95531042 </i>
   </energy>
  </scstep>
  <scstep>
   <time name="dav">   31.02   31.09</time>
   <time name="total">   31.54   31.63</time>
   <energy>
    <i name="e_fr_energy">   -189.87663994 </i>
    <i name="e_wo_entrp">   -189.63724248 </i>
    <i name="e_0_energy">   -189.75694121 </i>
   </energy>
  </scstep>
  <scstep>
   <time name="dav">   29.86   29.94</time>
   <time name="total">   30.39   30.47</time>
   <energy>
    <i name="e_fr_energy">   -189.91602428 </i>
    <i name="e_wo_entrp">   -189.66914476 </i>
    <i name="e_0_energy">   -189.79258452 </i>
   </energy>
  </scstep>
  <scstep>
   <time name="dav">   29.96   30.03</time>
   <time name="total">   30.48   30.56</time>
   <energy>
    <i name="e_fr_energy">   -189.77249734 </i>
    <i name="e_wo_entrp">   -189.53208008 </i>
    <i name="e_0_energy">   -189.65228871 </i>
   </energy>
  </scstep>
  <scstep>
   <time name="dav">   29.70   29.77</time>
   <time name="total">   30.22   30.30</time>
   <energy>
    <i name="e_fr_energy">   -189.76581779 </i>
    <i name="e_wo_entrp">   -189.52532213 </i>
    <i name="e_0_energy">   -189.64556996 </i>
   </energy>
  </scstep>
  <scstep>
   <time name="dav">   28.82   28.89</time>
   <time name="total">   29.34   29.42</time>
   <energy>
    <i name="e_fr_energy">   -189.76676922 </i>
    <i name="e_wo_entrp">   -189.52630745 </i>
    <i name="e_0_energy">   -189.64653833 </i>
   </energy>
  </scstep>
  <scstep>
   <time name="dav">   26.16   26.22</time>
   <time name="total">   26.69   26.76</time>
   <energy>
    <i name="e_fr_energy">   -189.76579691 </i>
    <i name="e_wo_entrp">   -189.52536171 </i>
    <i name="e_0_energy">   -189.64557931 </i>
   </energy>
  </scstep>
  <scstep>
   <time name="dav">   25.53   25.59</time>
   <time name="total">   26.06   26.13</time>
   <energy>
    <i name="e_fr_energy">   -189.76598636 </i>
    <i name="e_wo_entrp">   -189.52541366 </i>
    <i name="e_0_energy">   -189.64570001 </i>
   </energy>
  </scstep>
  <scstep>
   <time name="dav">   22.85   22.91</time>
   <time name="total">   23.38   23.44</time>
   <energy>
    <i name="e_fr_energy">   -189.76580886 </i>
    <i name="e_wo_entrp">   -189.52526275 </i>
    <i name="e_0_energy">   -189.64553581 </i>
   </energy>
  </scstep>
  <scstep>
   <time name="dav">   20.15   20.20</time>
   <time name="total">   20.19   20.24</time>
   <energy>
    <i name="alphaZ">     82.33785059 </i>
    <i name="ewald">  41299.35716055 </i>
    <i name="hartreedc"> -47271.62870556 </i>
    <i name="XCdc">   -235.24731736 </i>
    <i name="pawpsdc">   4038.79359732 </i>
    <i name="pawaedc">  -3454.49954804 </i>
    <i name="eentropy">     -0.24052172 </i>
    <i name="bandstr">  -1410.08086920 </i>
    <i name="atom">   6761.44252427 </i>
    <i name="e_fr_energy">   -189.76582914 </i>
    <i name="e_wo_entrp">   -189.52530742 </i>
    <i name="e_0_energy">   -189.64556828 </i>
   </energy>
  </scstep>
  <structure>
   <crystal>
    <varray name="basis" >
     <v>       8.66788992       5.00206733       0.00000000 </v>
     <v>      -8.66561976       4.99816270       0.00000000 </v>
     <v>       0.00000000       0.00000000      30.00000000 </v>
    </varray>
    <i name="volume">   2600.08612572 </i>
    <varray name="rec_basis" >
     <v>       0.05766920       0.09998461       0.00000000 </v>
     <v>      -0.05771425       0.10001080       0.00000000 </v>
     <v>       0.00000000       0.00000000       0.03333333 </v>
    </varray>
   </crystal>
   <varray name="positions" >
    <v>       0.33435001       0.66826775      -0.00005256 </v>
    <v>       0.00003589      -0.00185144       0.00008294 </v>
    <v>      -0.00097544       0.66718003       0.00003358 </v>
    <v>       0.66657213       0.66439177      -0.00008749 </v>
    <v>       0.66453200       0.33322284      -0.00003679 </v>
    <v>       0.33507248       0.00173164       0.00011445 </v>
    <v>       0.99795252       0.33363720      -0.00002826 </v>
    <v>       0.33757409       0.33331638      -0.00022665 </v>
    <v>       0.66478309      -0.00002301       0.00018703 </v>
    <v>       0.10938098       0.21868221       0.95214365 </v>
    <v>       0.21791730       0.10980832       0.04805567 </v>
    <v>       0.11256353       0.55878131       0.95314632 </v>
    <v>       0.22375039       0.44787187       0.04782559 </v>
    <v>       0.10654857       0.88672897       0.95316605 </v>
    <v>       0.22010247       0.77324280       0.04675637 </v>
    <v>       0.44375705       0.22283385       0.95050534 </v>
    <v>       0.55623223       0.11048993       0.04936638 </v>
    <v>       0.44111038       0.55666949       0.95196646 </v>
    <v>       0.55437504       0.44379892       0.04945383 </v>
    <v>       0.44310636       0.88459498       0.95185395 </v>
    <v>       0.55157389       0.77670989       0.04800340 </v>
    <v>       0.77821358       0.22171522       0.95075202 </v>
    <v>       0.89071466       0.10897288       0.04801032 </v>
    <v>       0.78227454       0.55774938       0.95189576 </v>
    <v>       0.89160731       0.44829597       0.04805358 </v>
    <v>       0.78170500       0.89159140       0.95210629 </v>
    <v>       0.89338439       0.77980392       0.04695270 </v>
   </varray>
  </structure>
  <varray name="forces" >
   <v>      -0.02836846       0.21842976       0.08728712 </v>
   <v>       0.10040204      -0.10556126      -0.07483186 </v>
   <v>      -0.13053753      -0.08873192      -0.00024408 </v>
   <v>       0.24241622      -0.35430770      -0.07990416 </v>
   <v>      -0.28775176      -0.36043944      -0.00399322 </v>
   <v>       0.00545631       0.57316597       0.06385370 </v>
   <v>      -0.23627234      -0.28861912       0.02413621 </v>
   <v>       0.62748206       0.38704198      -0.00004097 </v>
   <v>      -0.30258823       0.01263711       0.00738449 </v>
   <v>       0.02349215      -0.03802654      -0.22573260 </v>
   <v>      -0.08907869      -0.06023748       0.47057215 </v>
   <v>      -0.04073980       0.07156231      -0.35596549 </v>
   <v>       0.00620729       0.04340875       0.17264253 </v>
   <v>      -0.00844040      -0.08933994      -0.35196140 </v>
   <v>       0.02111174      -0.09758374       0.29168288 </v>
   <v>      -0.03745830       0.00454957      -0.86893000 </v>
   <v>       0.05240506       0.02698950       0.74409066 </v>
   <v>      -0.09047693      -0.05451123      -0.53048322 </v>
   <v>      -0.00609460      -0.03691908       0.80535333 </v>
   <v>       0.06566903      -0.08987675      -0.56323720 </v>
   <v>      -0.05739631      -0.07581845       0.43888242 </v>
   <v>       0.00474151      -0.02065220      -0.57172221 </v>
   <v>       0.06343248      -0.02097126       0.42636956 </v>
   <v>       0.08539981       0.14539413      -0.56877896 </v>
   <v>      -0.03846864       0.10524805       0.47300245 </v>
   <v>      -0.00392244       0.10008687      -0.29598749 </v>
   <v>       0.05937873       0.09308211       0.48655534 </v>
  </varray>
  <varray name="stress" >
   <v>     -10.15276170      -0.02365830       0.00525489 </v>
   <v>      -0.02365815      -9.84312164      -0.04686706 </v>
   <v>       0.00525487      -0.04686702       6.48093497 </v>
  </varray>
  <energy>
   <i name="e_fr_energy">   -189.76582914 </i>
   <i name="e_wo_entrp">   -189.64556828 </i>
   <i name="e_0_energy">     -0.24052172 </i>
  </energy>
  <time name="totalsc">  372.72  373.70</time>
 </calculation>
 <calculation>
  <scstep>
   <time name="dav">   21.52   21.57</time>
   <time name="total">   22.04   22.09</time>
   <energy>
    <i name="alphaZ">     85.81785433 </i>
    <i name="ewald">  42831.56512028 </i>
    <i name="hartreedc"> -48848.31570266 </i>
    <i name="XCdc">   -232.95946540 </i>
    <i name="pawpsdc">   4038.80369299 </i>
    <i name="pawaedc">  -3454.50693991 </i>
    <i name="eentropy">     -0.20381267 </i>
    <i name="bandstr">  -1372.97893730 </i>
    <i name="atom">   6761.44252427 </i>
    <i name="e_fr_energy">   -191.33566607 </i>
    <i name="e_wo_entrp">   -191.13185341 </i>
    <i name="e_0_energy">   -191.23375974 </i>
   </energy>
  </scstep>
  <scstep>
   <time name="dav">   31.98   32.05</time>
   <time name="total">   32.48   32.57</time>
   <energy>
    <i name="e_fr_energy">   -191.17876630 </i>
    <i name="e_wo_entrp">   -190.96929300 </i>
    <i name="e_0_energy">   -191.07402965 </i>
   </energy>
  </scstep>
  <scstep>
   <time name="dav">   29.89   29.96</time>
   <time name="total">   30.40   30.48</time>
   <energy>
    <i name="e_fr_energy">   -191.28380033 </i>
    <i name="e_wo_entrp">   -191.06255878 </i>
    <i name="e_0_energy">   -191.17317955 </i>
   </energy>
  </scstep>
  <scstep>
   <time name="dav">   31.18   31.26</time>
   <time name="total">   31.70   31.78</time>
   <energy>
    <i name="e_fr_energy">   -190.88306383 </i>
    <i name="e_wo_entrp">   -190.67572242 </i>
    <i name="e_0_energy">   -190.77939312 </i>
   </energy>
  </scstep>
  <scstep>
   <time name="dav">   29.99   30.07</time>
   <time name="total">   30.51   30.59</time>
   <energy>
    <i name="e_fr_energy">   -190.80418312 </i>
    <i name="e_wo_entrp">   -190.59327484 </i>
    <i name="e_0_energy">   -190.69872898 </i>
   </energy>
  </scstep>
  <scstep>
   <time name="dav">   30.57   30.65</time>
   <time name="total">   31.09   31.17</time>
   <energy>
    <i name="e_fr_energy">   -190.77547419 </i>
    <i name="e_wo_entrp">   -190.56458628 </i>
    <i name="e_0_energy">   -190.67003023 </i>
   </energy>
  </scstep>
  <scstep>
   <time name="dav">   29.12   29.19</time>
   <time name="total">   29.64   29.71</time>
   <energy>
    <i name="e_fr_energy">   -190.75535076 </i>
    <i name="e_wo_entrp">   -190.54528124 </i>
    <i name="e_0_energy">   -190.65031600 </i>
   </energy>
  </scstep>
  <scstep>
   <time name="dav">   28.72   28.79</time>
   <time name="total">   29.23   29.31</time>
   <energy>
    <i name="e_fr_energy">   -190.75247950 </i>
    <i name="e_wo_entrp">   -190.54238628 </i>
    <i name="e_0_energy">   -190.64743289 </i>
   </energy>
  </scstep>
  <scstep>
   <time name="dav">   27.97   28.04</time>
   <time name="total">   28.49   28.56</time>
   <energy>
    <i name="e_fr_energy">   -190.75186126 </i>
    <i name="e_wo_entrp">   -190.54180592 </i>
    <i name="e_0_energy">   -190.64683359 </i>
   </energy>
  </scstep>
  <scstep>
   <time name="dav">   28.10   28.17</time>
   <time name="total">   28.61   28.69</time>
   <energy>
    <i name="e_fr_energy">   -190.75198186 </i>
    <i name="e_wo_entrp">   -190.54166633 </i>
    <i name="e_0_energy">   -190.64682410 </i>
   </energy>
  </scstep>
  <scstep>
   <time name="dav">   25.28   25.34</time>
   <time name="total">   25.80   25.87</time>
   <energy>
    <i name="e_fr_energy">   -190.75175813 </i>
    <i name="e_wo_entrp">   -190.54169312 </i>
    <i name="e_0_energy">   -190.64672562 </i>
   </energy>
  </scstep>
  <scstep>
   <time name="dav">   20.26   20.31</time>
   <time name="total">   20.30   20.36</time>
   <energy>
    <i name="alphaZ">     85.81785433 </i>
    <i name="ewald">  42831.56512028 </i>
    <i name="hartreedc"> -48819.69571095 </i>
    <i name="XCdc">   -234.28937019 </i>
    <i name="pawpsdc">   4063.74005684 </i>
    <i name="pawaedc">  -3479.62771219 </i>
    <i name="eentropy">     -0.21008505 </i>
    <i name="bandstr">  -1399.49443118 </i>
    <i name="atom">   6761.44252427 </i>
    <i name="e_fr_energy">   -190.75175385 </i>
    <i name="e_wo_entrp">   -190.54166879 </i>
    <i name="e_0_energy">   -190.64671132 </i>
   </energy>
  </scstep>
  <structure>
   <crystal>
    <varray name="basis" >
     <v>       8.48562173       4.90111739       0.00000000 </v>
     <v>      -8.48443460       4.89908559       0.00000000 </v>
     <v>       0.00000000       0.00000000      30.00000000 </v>
    </varray>
    <i name="volume">   2494.64991424 </i>
    <varray name="rec_basis" >
     <v>       0.05891511       0.10203157       0.00000000 </v>
     <v>      -0.05893954       0.10204584       0.00000000 </v>
     <v>       0.00000000       0.00000000       0.03333333 </v>
    </varray>
   </crystal>
   <varray name="positions" >
    <v>       0.33568739       0.66974711       0.00013811 </v>
    <v>      -0.00030223      -0.00274940      -0.00008685 </v>
    <v>      -0.00203105       0.66700347       0.00002810 </v>
    <v>       0.66507618       0.66119797      -0.00024514 </v>
    <v>       0.66107791       0.33184742      -0.00004063 </v>
    <v>       0.33889919       0.00550995       0.00023186 </v>
    <v>       0.99519933       0.33251113       0.00002671 </v>
    <v>       0.34230848       0.33347653      -0.00019461 </v>
    <v>       0.66387023       0.00130642       0.00017340 </v>
    <v>       0.10907195       0.21797654       0.95127029 </v>
    <v>       0.21692334       0.10946519       0.04945005 </v>
    <v>       0.11309107       0.55985223       0.95201617 </v>
    <v>       0.22426008       0.44847818       0.04858304 </v>
    <v>       0.10581575       0.88611449       0.95206775 </v>
    <v>       0.21946374       0.77238105       0.04773131 </v>
    <v>       0.44378363       0.22283991       0.94820153 </v>
    <v>       0.55648980       0.11062454       0.05139464 </v>
    <v>       0.44044062       0.55698016       0.95043589 </v>
    <v>       0.55436442       0.44371360       0.05160929 </v>
    <v>       0.44244802       0.88350126       0.95025875 </v>
    <v>       0.55060198       0.77609628       0.04932973 </v>
    <v>       0.77793918       0.22165210       0.94909160 </v>
    <v>       0.89100510       0.10837233       0.04932965 </v>
    <v>       0.78372177       0.55842525       0.95029699 </v>
    <v>       0.89205330       0.44942971       0.04946166 </v>
    <v>       0.78259537       0.89220704       0.95109252 </v>
    <v>       0.89435992       0.78025401       0.04834810 </v>
   </varray>
  </structure>
  <varray name="forces" >
   <v>      -0.03109471       0.24340375       0.08217718 </v>
   <v>       0.02661689      -0.09381183      -0.07980642 </v>
   <v>      -0.08295742      -0.08667309      -0.00852759 </v>
   <v>       0.24276774      -0.38195668      -0.03927035 </v>
   <v>      -0.24440660      -0.39851330       0.00104264 </v>
   <v>       0.02325599       0.59319243       0.00689430 </v>
   <v>      -0.26123256      -0.35610965       0.03250362 </v>
   <v>       0.63110481       0.38577219       0.03670974 </v>
   <v>      -0.34156109       0.07853221      -0.03384254 </v>
   <v>       0.03646912       0.04984936      -0.07152949 </v>
   <v>       0.00271371       0.02976198       0.30598664 </v>
   <v>      -0.03715025       0.02016690      -0.23380424 </v>
   <v>       0.06135659      -0.00944671      -0.00933360 </v>
   <v>       0.05973168       0.03055089      -0.22443890 </v>
   <v>      -0.05719776       0.03665040       0.19782907 </v>
   <v>       0.03025574       0.01323783      -0.70459810 </v>
   <v>      -0.01853007       0.04542430       0.59929095 </v>
   <v>       0.00479600      -0.04040745      -0.38867649 </v>
   <v>       0.03836955       0.01821382       0.61602267 </v>
   <v>      -0.01908471      -0.01722707      -0.38389329 </v>
   <v>       0.01517263      -0.00173342       0.26021555 </v>
   <v>      -0.08353221      -0.04156890      -0.41378180 </v>
   <v>       0.02727392      -0.05573616       0.31817001 </v>
   <v>       0.05133977       0.00960659      -0.40126840 </v>
   <v>      -0.09201534      -0.00963426       0.31665018 </v>
   <v>      -0.00046580      -0.04110792      -0.14415058 </v>
   <v>       0.01800437      -0.02043620       0.36342924 </v>
  </varray>
  <varray name="stress" >
   <v>      -5.78209507       0.08069274      -0.04724193 </v>
   <v>       0.08069273      -5.72042403       0.05533767 </v>
   <v>      -0.04724176       0.05533787       4.48406571 </v>
  </varray>
  <energy>
   <i name="e_fr_energy">   -190.75175385 </i>
   <i name="e_wo_entrp">   -190.64671132 </i>
   <i name="e_0_energy">     -0.21008505 </i>
  </energy>
  <time name="totalsc">  381.75  382.75</time>
 </calculation>
 <calculation>
  <scstep>
   <time name="dav">   21.53   21.58</time>
   <time name="total">   22.04   22.10</time>
   <energy>
    <i name="alphaZ">     90.17975276 </i>
    <i name="ewald">  44666.88282114 </i>
    <i name="hartreedc"> -50710.37738481 </i>
    <i name="XCdc">   -231.83191151 </i>
    <i name="pawpsdc">   4063.71617018 </i>
    <i name="pawaedc">  -3479.59855717 </i>
    <i name="eentropy">     -0.19690359 </i>
    <i name="bandstr">  -1352.34100285 </i>
    <i name="atom">   6761.44252427 </i>
    <i name="e_fr_energy">   -192.12449158 </i>
    <i name="e_wo_entrp">   -191.92758799 </i>
    <i name="e_0_energy">   -192.02603979 </i>
   </energy>
  </scstep>
  <scstep>
   <time name="dav">   27.90   27.97</time>
   <time name="total">   28.40   28.47</time>
   <energy>
    <i name="e_fr_energy">   -191.85691543 </i>
    <i name="e_wo_entrp">   -191.65333838 </i>
    <i name="e_0_energy">   -191.75512690 </i>
   </energy>
  </scstep>
  <scstep>
   <time name="dav">   29.17   29.24</time>
   <time name="total">   29.67   29.75</time>
   <energy>
    <i name="e_fr_energy">   -191.99294633 </i>
    <i name="e_wo_entrp">   -191.78880433 </i>
    <i name="e_0_energy">   -191.89087533 </i>
   </energy>
  </scstep>
  <scstep>
   <time name="dav">   28.23   28.29</time>
   <time name="total">   28.73   28.80</time>
   <energy>
    <i name="e_fr_energy">   -191.75005509 </i>
    <i name="e_wo_entrp">   -191.54933080 </i>
    <i name="e_0_energy">   -191.64969295 </i>
   </energy>
  </scstep>
  <scstep>
   <time name="dav">   30.00   30.07</time>
   <time name="total">   30.51   30.59</time>
   <energy>
    <i name="e_fr_energy">   -191.58222887 </i>
    <i name="e_wo_entrp">   -191.37855862 </i>
    <i name="e_0_energy">   -191.48039374 </i>
   </energy>
  </scstep>
  <scstep>
   <time name="dav">   30.03   30.11</time>
   <time name="total">   30.54   30.62</time>
   <energy>
    <i name="e_fr_energy">   -191.43855759 </i>
    <i name="e_wo_entrp">   -191.23247976 </i>
    <i name="e_0_energy">   -191.33551867 </i>
   </energy>
  </scstep>
  <scstep>
   <time name="dav">   30.10   30.17</time>
   <time name="total">   30.61   30.69</time>
   <energy>
    <i name="e_fr_energy">   -191.43110560 </i>
    <i name="e_wo_entrp">   -191.22691281 </i>
    <i name="e_0_energy">   -191.32900920 </i>
   </energy>
  </scstep>
  <scstep>
   <time name="dav">   29.59   29.66</time>
   <time name="total">   30.09   30.17</time>
   <energy>
    <i name="e_fr_energy">   -191.42888792 </i>
    <i name="e_wo_entrp">   -191.22384110 </i>
    <i name="e_0_energy">   -191.32636451 </i>
   </energy>
  </scstep>
  <scstep>
   <time name="dav">   30.38   30.45</time>
   <time name="total">   30.89   30.97</time>
   <energy>
    <i name="e_fr_energy">   -191.42222932 </i>
    <i name="e_wo_entrp">   -191.21716709 </i>
    <i name="e_0_energy">   -191.31969821 </i>
   </energy>
  </scstep>
  <scstep>
   <time name="dav">   27.32   27.38</time>
   <time name="total">   27.82   27.89</time>
   <energy>
    <i name="e_fr_energy">   -191.42253238 </i>
    <i name="e_wo_entrp">   -191.21719207 </i>
    <i name="e_0_energy">   -191.31986222 </i>
   </energy>
  </scstep>
  <scstep>
   <time name="dav">   27.67   27.73</time>
   <time name="total">   28.17   28.25</time>
   <energy>
    <i name="e_fr_energy">   -191.42237895 </i>
    <i name="e_wo_entrp">   -191.21718328 </i>
    <i name="e_0_energy">   -191.31978112 </i>
   </energy>
  </scstep>
  <scstep>
   <time name="dav">   19.39   19.44</time>
   <time name="total">   19.43   19.48</time>
   <energy>
    <i name="alphaZ">     90.17975276 </i>
    <i name="ewald">  44666.88282114 </i>
    <i name="hartreedc"> -50676.41603844 </i>
    <i name="XCdc">   -233.35986580 </i>
    <i name="pawpsdc">   4085.94734631 </i>
    <i name="pawaedc">  -3501.92840713 </i>
    <i name="eentropy">     -0.20527523 </i>
    <i name="bandstr">  -1383.96522090 </i>
    <i name="atom">   6761.44252427 </i>
    <i name="e_fr_energy">   -191.42236301 </i>
    <i name="e_wo_entrp">   -191.21708778 </i>
    <i name="e_0_energy">   -191.31972539 </i>
   </energy>
  </scstep>
  <structure>
   <crystal>
    <varray name="basis" >
     <v>       8.27816551       4.78597089       0.00000000 </v>
     <v>      -8.27265156       4.77644583       0.00000000 </v>
     <v>       0.00000000       0.00000000      30.00000000 </v>
    </varray>
    <i name="volume">   2373.98635938 </i>
    <varray name="rec_basis" >
     <v>       0.06035981       0.10454127       0.00000000 </v>
     <v>      -0.06048018       0.10461095       0.00000000 </v>
     <v>       0.00000000       0.00000000       0.03333333 </v>
    </varray>
   </crystal>
   <varray name="positions" >
    <v>       0.33850425       0.67292733       0.00048181 </v>
    <v>      -0.00126156      -0.00403661      -0.00042131 </v>
    <v>      -0.00376808       0.66646169      -0.00000741 </v>
    <v>       0.66197135       0.65470846      -0.00041531 </v>
    <v>       0.65428117       0.32860430      -0.00003401 </v>
    <v>       0.34656085       0.01286522       0.00027288 </v>
    <v>       0.98899496       0.32987563       0.00015831 </v>
    <v>       0.35158294       0.33374873      -0.00002991 </v>
    <v>       0.66245561       0.00473236       0.00002632 </v>
    <v>       0.10960423       0.21775294       0.95043018 </v>
    <v>       0.21672813       0.10941648       0.05125191 </v>
    <v>       0.11342027       0.56100455       0.95055764 </v>
    <v>       0.22486439       0.44848120       0.04910695 </v>
    <v>       0.10618431       0.88583260       0.95067121 </v>
    <v>       0.21923934       0.77273676       0.04900481 </v>
    <v>       0.44423622       0.22265553       0.94470378 </v>
    <v>       0.55683755       0.11139548       0.05443997 </v>
    <v>       0.43986072       0.55689420       0.94830070 </v>
    <v>       0.55500732       0.44375957       0.05474598 </v>
    <v>       0.44167529       0.88288198       0.94812630 </v>
    <v>       0.55015899       0.77551209       0.05095283 </v>
    <v>       0.77676671       0.22178073       0.94679557 </v>
    <v>       0.89082948       0.10723814       0.05116921 </v>
    <v>       0.78472835       0.55845812       0.94811038 </v>
    <v>       0.89143872       0.45049381       0.05131190 </v>
    <v>       0.78264078       0.89191413       0.94996842 </v>
    <v>       0.89467216       0.78011904       0.05032081 </v>
   </varray>
  </structure>
  <varray name="forces" >
   <v>      -0.05405646       0.31666443       0.02275555 </v>
   <v>      -0.01661891      -0.10233621      -0.02009197 </v>
   <v>      -0.04237636      -0.06072458      -0.02021253 </v>
   <v>       0.21522564      -0.22807397       0.01742111 </v>
   <v>       0.09271271      -0.03019030       0.03456507 </v>
   <v>       0.10805819       0.21811860      -0.05253077 </v>
   <v>      -0.31823589      -0.44032924       0.06470434 </v>
   <v>       0.25075523       0.15216352      -0.05759728 </v>
   <v>      -0.34930334       0.16573632       0.05342401 </v>
   <v>       0.01881491       0.20169420       0.24121048 </v>
   <v>       0.09162701       0.15255972      -0.01360129 </v>
   <v>       0.00240891      -0.05108112       0.07332405 </v>
   <v>       0.16875339      -0.11595750      -0.33699565 </v>
   <v>       0.09847065       0.14555320       0.07347694 </v>
   <v>      -0.12610303       0.19690433      -0.04833787 </v>
   <v>       0.04439040       0.01537920      -0.29045560 </v>
   <v>      -0.03526210       0.06613337       0.24453228 </v>
   <v>       0.10569327      -0.07401602      -0.05475202 </v>
   <v>       0.11215632       0.05535078       0.29266129 </v>
   <v>      -0.07268473       0.07661692      -0.11961756 </v>
   <v>       0.06889233       0.12449572      -0.06966221 </v>
   <v>      -0.16285293      -0.06443585      -0.23635169 </v>
   <v>      -0.03337376      -0.10101441       0.05973560 </v>
   <v>       0.00509554      -0.16570066      -0.06782325 </v>
   <v>      -0.09313683      -0.13398589       0.06306859 </v>
   <v>      -0.05400420      -0.22222289       0.12471505 </v>
   <v>      -0.02504597      -0.09730167       0.02243531 </v>
  </varray>
  <varray name="stress" >
   <v>      -0.03833386       0.19648870       0.14984307 </v>
   <v>       0.19648871       0.44310922       0.31904432 </v>
   <v>       0.14984289       0.31904445      -0.55774926 </v>
  </varray>
  <energy>
   <i name="e_fr_energy">   -191.42236301 </i>
   <i name="e_wo_entrp">   -191.31972539 </i>
   <i name="e_0_energy">     -0.20527523 </i>
  </energy>
  <time name="totalsc">  378.39  379.39</time>
 </calculation>
 <calculation>
  <scstep>
   <time name="dav">   21.50   21.56</time>
   <time name="total">   22.01   22.07</time>
   <energy>
    <i name="alphaZ">     90.05764605 </i>
    <i name="ewald">  44593.15300322 </i>
    <i name="hartreedc"> -50602.07095119 </i>
    <i name="XCdc">   -233.51910642 </i>
    <i name="pawpsdc">   4085.88247200 </i>
    <i name="pawaedc">  -3501.85922254 </i>
    <i name="eentropy">     -0.20895632 </i>
    <i name="bandstr">  -1384.37099748 </i>
    <i name="atom">   6761.44252427 </i>
    <i name="e_fr_energy">   -191.49358842 </i>
    <i name="e_wo_entrp">   -191.28463210 </i>
    <i name="e_0_energy">   -191.38911026 </i>
   </energy>
  </scstep>
  <scstep>
   <time name="dav">   32.66   32.73</time>
   <time name="total">   33.16   33.25</time>
   <energy>
    <i name="e_fr_energy">   -191.56474081 </i>
    <i name="e_wo_entrp">   -191.35049589 </i>
    <i name="e_0_energy">   -191.45761835 </i>
   </energy>
  </scstep>
  <scstep>
   <time name="dav">   30.20   30.27</time>
   <time name="total">   30.70   30.79</time>
   <energy>
    <i name="e_fr_energy">   -191.50753132 </i>
    <i name="e_wo_entrp">   -191.29769071 </i>
    <i name="e_0_energy">   -191.40261101 </i>
   </energy>
  </scstep>
  <scstep>
   <time name="dav">   28.22   28.29</time>
   <time name="total">   28.72   28.80</time>
   <energy>
    <i name="e_fr_energy">   -191.50931765 </i>
    <i name="e_wo_entrp">   -191.29982895 </i>
    <i name="e_0_energy">   -191.40457330 </i>
   </energy>
  </scstep>
  <scstep>
   <time name="dav">   28.40   28.46</time>
   <time name="total">   28.90   28.98</time>
   <energy>
    <i name="e_fr_energy">   -191.50463776 </i>
    <i name="e_wo_entrp">   -191.29448897 </i>
    <i name="e_0_energy">   -191.39956337 </i>
   </energy>
  </scstep>
  <scstep>
   <time name="dav">   26.35   26.42</time>
   <time name="total">   26.86   26.93</time>
   <energy>
    <i name="e_fr_energy">   -191.50451196 </i>
    <i name="e_wo_entrp">   -191.29435487 </i>
    <i name="e_0_energy">   -191.39943341 </i>
   </energy>
  </scstep>
  <scstep>
   <time name="dav">   28.53   28.60</time>
   <time name="total">   29.04   29.12</time>
   <energy>
    <i name="e_fr_energy">   -191.50509693 </i>
    <i name="e_wo_entrp">   -191.29518952 </i>
    <i name="e_0_energy">   -191.40014322 </i>
   </energy>
  </scstep>
  <scstep>
   <time name="dav">   24.36   24.42</time>
   <time name="total">   24.86   24.93</time>
   <energy>
    <i name="e_fr_energy">   -191.50398740 </i>
    <i name="e_wo_entrp">   -191.29385014 </i>
    <i name="e_0_energy">   -191.39891877 </i>
   </energy>
  </scstep>
  <scstep>
   <time name="dav">   16.86   16.90</time>
   <time name="total">   16.90   16.95</time>
   <energy>
    <i name="alphaZ">     90.05764605 </i>
    <i name="ewald">  44593.15300322 </i>
    <i name="hartreedc"> -50603.98173349 </i>
    <i name="XCdc">   -233.45826132 </i>
    <i name="pawpsdc">   4082.66575128 </i>
    <i name="pawaedc">  -3498.59547028 </i>
    <i name="eentropy">     -0.20999786 </i>
    <i name="bandstr">  -1382.57746112 </i>
    <i name="atom">   6761.44252427 </i>
    <i name="e_fr_energy">   -191.50399925 </i>
    <i name="e_wo_entrp">   -191.29400139 </i>
    <i name="e_0_energy">   -191.39900032 </i>
   </energy>
  </scstep>
  <structure>
   <crystal>
    <varray name="basis" >
     <v>       8.28104191       4.79639940       0.00000000 </v>
     <v>      -8.27067819       4.77846837       0.00000000 </v>
     <v>       0.00000000       0.00000000      30.00000000 </v>
    </varray>
    <i name="volume">   2377.20518268 </i>
    <varray name="rec_basis" >
     <v>       0.06030361       0.10437481       0.00000000 </v>
     <v>      -0.06052990       0.10450560       0.00000000 </v>
     <v>       0.00000000       0.00000000       0.03333333 </v>
    </varray>
   </crystal>
   <varray name="positions" >
    <v>       0.33988906       0.67461957       0.00051408 </v>
    <v>      -0.00180624      -0.00448336      -0.00044946 </v>
    <v>      -0.00417151       0.66628817      -0.00003897 </v>
    <v>       0.66149030       0.65302876      -0.00038591 </v>
    <v>       0.65446898       0.32822323       0.00002052 </v>
    <v>       0.34786942       0.01355860       0.00018935 </v>
    <v>       0.98596703       0.32863280       0.00025916 </v>
    <v>       0.35295717       0.33378147      -0.00012276 </v>
    <v>       0.66229196       0.00651958       0.00011235 </v>
    <v>       0.11065435       0.21870552       0.95082394 </v>
    <v>       0.21775239       0.10991358       0.05120759 </v>
    <v>       0.11316818       0.56072784       0.95069236 </v>
    <v>       0.22476430       0.44741849       0.04856508 </v>
    <v>       0.10718649       0.88627663       0.95080536 </v>
    <v>       0.21985851       0.77407447       0.04891178 </v>
    <v>       0.44443419       0.22260738       0.94428604 </v>
    <v>       0.55706130       0.11181589       0.05479008 </v>
    <v>       0.43980322       0.55622195       0.94824050 </v>
    <v>       0.55559477       0.44371136       0.05517101 </v>
    <v>       0.44185804       0.88348055       0.94796370 </v>
    <v>       0.55098136       0.77594121       0.05082177 </v>
    <v>       0.77599418       0.22192642       0.94645053 </v>
    <v>       0.89023305       0.10684654       0.05124045 </v>
    <v>       0.78390763       0.55761955       0.94803007 </v>
    <v>       0.89051360       0.45008161       0.05138818 </v>
    <v>       0.78138071       0.89096861       0.95018103 </v>
    <v>       0.89411202       0.77970805       0.05033207 </v>
   </varray>
  </structure>
  <varray name="forces" >
   <v>      -0.08415187       0.37624870       0.03063557 </v>
   <v>       0.01958392      -0.08817543      -0.04576773 </v>
   <v>      -0.05686974      -0.05205600      -0.04704674 </v>
   <v>       0.27312146      -0.29130897       0.01098274 </v>
   <v>       0.07522825      -0.03666239      -0.00130581 </v>
   <v>       0.12619403       0.22267238      -0.02599516 </v>
   <v>      -0.35493238      -0.49836243       0.03459614 </v>
   <v>       0.35019118       0.24041659       0.01915211 </v>
   <v>      -0.40273808       0.18262807       0.00861658 </v>
   <v>      -0.01733171       0.12589410       0.25164827 </v>
   <v>       0.05711871       0.08920930      -0.05263437 </v>
   <v>       0.01809114      -0.05238642       0.12801287 </v>
   <v>       0.07376290      -0.11320417      -0.37663293 </v>
   <v>       0.06215068       0.09053630       0.09576893 </v>
   <v>      -0.07583541       0.11954880      -0.07071917 </v>
   <v>       0.05136914       0.03111954      -0.17930803 </v>
   <v>      -0.03337797       0.03151275       0.20549175 </v>
   <v>       0.05874562      -0.03309147      -0.02834791 </v>
   <v>       0.07427577      -0.00072975       0.16996388 </v>
   <v>      -0.01658407       0.06448382      -0.11576346 </v>
   <v>       0.04785835       0.10650781      -0.08592985 </v>
   <v>      -0.09228236      -0.05482025      -0.23143776 </v>
   <v>      -0.03150570      -0.08045156       0.06243154 </v>
   <v>       0.01371911      -0.09692938      -0.04931498 </v>
   <v>      -0.06820440      -0.06276286       0.10817633 </v>
   <v>      -0.05451469      -0.16127996       0.17834143 </v>
   <v>      -0.01308190      -0.05855715       0.00638578 </v>
  </varray>
  <varray name="stress" >
   <v>      -0.19026331      -0.02577281      -0.00192667 </v>
   <v>      -0.02577267      -0.08682577       0.13026479 </v>
   <v>      -0.00192663       0.13026468      -1.27916766 </v>
  </varray>
  <energy>
   <i name="e_fr_energy">   -191.50399925 </i>
   <i name="e_wo_entrp">   -191.39900032 </i>
   <i name="e_0_energy">     -0.20999786 </i>
  </energy>
  <time name="totalsc">  282.46  283.21</time>
 </calculation>
 <calculation>
  <scstep>
   <time name="dav">   21.56   21.61</time>
   <time name="total">   22.06   22.12</time>
   <energy>
    <i name="alphaZ">     90.10798140 </i>
    <i name="ewald">  44617.16800836 </i>
    <i name="hartreedc"> -50628.49264409 </i>
    <i name="XCdc">   -233.42087878 </i>
    <i name="pawpsdc">   4082.49185613 </i>
    <i name="pawaedc">  -3498.41978668 </i>
    <i name="eentropy">     -0.21086267 </i>
    <i name="bandstr">  -1382.21662667 </i>
    <i name="atom">   6761.44252427 </i>
    <i name="e_fr_energy">   -191.55042873 </i>
    <i name="e_wo_entrp">   -191.33956605 </i>
    <i name="e_0_energy">   -191.44499739 </i>
   </energy>
  </scstep>
  <scstep>
   <time name="dav">   32.89   32.97</time>
   <time name="total">   33.40   33.48</time>
   <energy>
    <i name="e_fr_energy">   -191.56610452 </i>
    <i name="e_wo_entrp">   -191.35192652 </i>
    <i name="e_0_energy">   -191.45901552 </i>
   </energy>
  </scstep>
  <scstep>
   <time name="dav">   29.88   29.95</time>
   <time name="total">   30.38   30.46</time>
   <energy>
    <i name="e_fr_energy">   -191.55358879 </i>
    <i name="e_wo_entrp">   -191.34238217 </i>
    <i name="e_0_energy">   -191.44798548 </i>
   </energy>
  </scstep>
  <scstep>
   <time name="dav">   27.53   27.60</time>
   <time name="total">   28.04   28.11</time>
   <energy>
    <i name="e_fr_energy">   -191.55406450 </i>
    <i name="e_wo_entrp">   -191.34301037 </i>
    <i name="e_0_energy">   -191.44853744 </i>
   </energy>
  </scstep>
  <scstep>
   <time name="dav">   27.44   27.50</time>
   <time name="total">   27.94   28.01</time>
   <energy>
    <i name="e_fr_energy">   -191.55253123 </i>
    <i name="e_wo_entrp">   -191.34094914 </i>
    <i name="e_0_energy">   -191.44674019 </i>
   </energy>
  </scstep>
  <scstep>
   <time name="dav">   25.47   25.53</time>
   <time name="total">   25.51   25.57</time>
   <energy>
    <i name="alphaZ">     90.10798140 </i>
    <i name="ewald">  44617.16800836 </i>
    <i name="hartreedc"> -50628.45184472 </i>
    <i name="XCdc">   -233.42801102 </i>
    <i name="pawpsdc">   4083.61248456 </i>
    <i name="pawaedc">  -3499.55438927 </i>
    <i name="eentropy">     -0.21157310 </i>
    <i name="bandstr">  -1382.23766305 </i>
    <i name="atom">   6761.44252427 </i>
    <i name="e_fr_energy">   -191.55248256 </i>
    <i name="e_wo_entrp">   -191.34090946 </i>
[...]
      <set comment="kpoint 31">
       <r>  -17.5120    1.0000 </r>
       <r>  -17.2522    1.0000 </r>
       <r>  -16.9074    1.0000 </r>
       <r>  -16.4990    1.0000 </r>
       <r>  -16.4558    1.0000 </r>
       <r>  -16.3913    1.0000 </r>
       <r>  -16.2486    1.0000 </r>
       <r>  -16.1624    1.0000 </r>
       <r>  -16.0818    1.0000 </r>
       <r>  -16.0123    1.0000 </r>
       <r>  -15.9501    1.0000 </r>
       <r>  -15.8759    1.0000 </r>
       <r>  -15.8163    1.0000 </r>
       <r>  -15.7116    1.0000 </r>
       <r>  -15.6407    1.0000 </r>
       <r>  -15.5743    1.0000 </r>
       <r>  -15.4964    1.0000 </r>
       <r>  -15.4510    1.0000 </r>
       <r>   -9.7443    1.0000 </r>
       <r>   -9.4405    1.0000 </r>
       <r>   -9.2977    1.0000 </r>
       <r>   -8.9188    1.0000 </r>
       <r>   -8.8317    1.0000 </r>
       <r>   -8.7707    1.0000 </r>
       <r>   -8.5324    1.0000 </r>
       <r>   -8.4645    1.0000 </r>
       <r>   -8.3988    1.0000 </r>
       <r>   -8.2881    1.0000 </r>
       <r>   -8.2618    1.0000 </r>
       <r>   -8.2152    1.0000 </r>
       <r>   -8.1369    1.0000 </r>
       <r>   -8.0861    1.0000 </r>
       <r>   -7.9668    1.0000 </r>
       <r>   -7.9431    1.0000 </r>
       <r>   -7.6998    1.0000 </r>
       <r>   -7.5925    1.0000 </r>
       <r>   -7.5580    1.0000 </r>
       <r>   -7.3805    1.0000 </r>
       <r>   -7.3271    1.0000 </r>
       <r>   -7.1652    1.0000 </r>
       <r>   -7.1108    1.0000 </r>
       <r>   -7.0586    1.0000 </r>
       <r>   -6.9927    1.0000 </r>
       <r>   -6.9031    1.0000 </r>
       <r>   -6.8093    1.0000 </r>
       <r>   -6.7606    1.0000 </r>
       <r>   -6.6816    1.0000 </r>
       <r>   -6.6337    1.0000 </r>
       <r>   -6.5957    1.0000 </r>
       <r>   -6.4774    1.0000 </r>
       <r>   -6.4195    1.0000 </r>
       <r>   -6.3507    1.0000 </r>
       <r>   -6.3059    1.0000 </r>
       <r>   -6.1657    1.0000 </r>
       <r>   -6.0723    1.0000 </r>
       <r>   -5.9920    1.0000 </r>
       <r>   -5.9078    1.0000 </r>
       <r>   -5.8952    1.0000 </r>
       <r>   -5.8226    1.0000 </r>
       <r>   -5.7959    1.0000 </r>
       <r>   -5.7297    1.0000 </r>
       <r>   -5.6853    1.0000 </r>
       <r>   -5.6452    1.0000 </r>
       <r>   -5.5774    1.0000 </r>
       <r>   -5.3163    1.0000 </r>
       <r>   -5.1246    1.0000 </r>
       <r>   -5.0534    1.0000 </r>
       <r>   -4.9494    1.0000 </r>
       <r>   -4.8762    1.0000 </r>
       <r>   -4.7951    1.0000 </r>
       <r>   -4.5374    1.0000 </r>
       <r>   -4.4166    1.0000 </r>
       <r>   -4.3834    1.0000 </r>
       <r>   -3.9755    1.0000 </r>
       <r>   -3.7922    1.0000 </r>
       <r>   -3.6212    1.0000 </r>
       <r>   -3.5510    0.9998 </r>
       <r>   -3.4784    0.9990 </r>
       <r>   -3.1996    0.8699 </r>
       <r>   -3.0472    0.5192 </r>
       <r>   -2.9475    0.2557 </r>
       <r>   -2.7787    0.0322 </r>
       <r>   -2.6372    0.0022 </r>
       <r>   -2.6224    0.0016 </r>
       <r>   -2.5088    0.0001 </r>
       <r>   -2.4252    0.0000 </r>
       <r>   -2.3706    0.0000 </r>
       <r>   -2.3368    0.0000 </r>
       <r>   -2.2300    0.0000 </r>
       <r>   -2.1811    0.0000 </r>
       <r>   -1.7978    0.0000 </r>
       <r>   -1.7097    0.0000 </r>
       <r>   -1.4474    0.0000 </r>
       <r>   -1.4007    0.0000 </r>
       <r>   -1.2253    0.0000 </r>
       <r>   -1.1460    0.0000 </r>
       <r>   -1.0496    0.0000 </r>
       <r>   -0.9400    0.0000 </r>
       <r>   -0.8832    0.0000 </r>
       <r>   -0.7796    0.0000 </r>
       <r>   -0.7211    0.0000 </r>
       <r>   -0.6620    0.0000 </r>
       <r>   -0.6065    0.0000 </r>
       <r>   -0.5085    0.0000 </r>
       <r>   -0.4387    0.0000 </r>
       <r>   -0.2994    0.0000 </r>
       <r>   -0.2191    0.0000 </r>
       <r>   -0.1586    0.0000 </r>
       <r>   -0.0018    0.0000 </r>
       <r>    0.2565    0.0000 </r>
       <r>    0.5053    0.0000 </r>
       <r>    0.6881    0.0000 </r>
       <r>    0.9681    0.0000 </r>
       <r>    1.0739    0.0000 </r>
       <r>    1.3056    0.0000 </r>
       <r>    1.4575    0.0000 </r>
       <r>    1.4880    0.0000 </r>
       <r>    2.1670    0.0000 </r>
       <r>    2.3026    0.0000 </r>
       <r>    2.4253    0.0000 </r>
      </set>
      <set comment="kpoint 32">
       <r>  -17.5286    1.0000 </r>
       <r>  -17.1318    1.0000 </r>
       <r>  -17.0666    1.0000 </r>
       <r>  -16.4877    1.0000 </r>
       <r>  -16.4047    1.0000 </r>
       <r>  -16.3105    1.0000 </r>
       <r>  -16.2374    1.0000 </r>
       <r>  -16.1979    1.0000 </r>
       <r>  -16.1193    1.0000 </r>
       <r>  -16.0296    1.0000 </r>
       <r>  -15.9693    1.0000 </r>
       <r>  -15.9151    1.0000 </r>
       <r>  -15.7835    1.0000 </r>
       <r>  -15.7055    1.0000 </r>
       <r>  -15.6579    1.0000 </r>
       <r>  -15.5424    1.0000 </r>
       <r>  -15.5183    1.0000 </r>
       <r>  -15.4319    1.0000 </r>
       <r>   -9.6415    1.0000 </r>
       <r>   -9.6132    1.0000 </r>
       <r>   -9.3599    1.0000 </r>
       <r>   -8.8830    1.0000 </r>
       <r>   -8.7334    1.0000 </r>
       <r>   -8.5935    1.0000 </r>
       <r>   -8.5034    1.0000 </r>
       <r>   -8.4002    1.0000 </r>
       <r>   -8.3772    1.0000 </r>
       <r>   -8.3353    1.0000 </r>
       <r>   -8.3020    1.0000 </r>
       <r>   -8.2560    1.0000 </r>
       <r>   -8.1779    1.0000 </r>
       <r>   -8.1741    1.0000 </r>
       <r>   -8.0919    1.0000 </r>
       <r>   -7.9335    1.0000 </r>
       <r>   -7.7703    1.0000 </r>
       <r>   -7.5349    1.0000 </r>
       <r>   -7.4321    1.0000 </r>
       <r>   -7.3589    1.0000 </r>
       <r>   -7.2843    1.0000 </r>
       <r>   -7.2400    1.0000 </r>
       <r>   -7.1475    1.0000 </r>
       <r>   -7.0542    1.0000 </r>
       <r>   -7.0179    1.0000 </r>
       <r>   -6.9290    1.0000 </r>
       <r>   -6.8061    1.0000 </r>
       <r>   -6.7435    1.0000 </r>
       <r>   -6.7086    1.0000 </r>
       <r>   -6.6300    1.0000 </r>
       <r>   -6.5818    1.0000 </r>
       <r>   -6.5245    1.0000 </r>
       <r>   -6.4295    1.0000 </r>
       <r>   -6.3558    1.0000 </r>
       <r>   -6.2989    1.0000 </r>
       <r>   -6.2045    1.0000 </r>
       <r>   -6.0713    1.0000 </r>
       <r>   -6.0253    1.0000 </r>
       <r>   -5.9103    1.0000 </r>
       <r>   -5.8700    1.0000 </r>
       <r>   -5.8175    1.0000 </r>
       <r>   -5.7457    1.0000 </r>
       <r>   -5.6617    1.0000 </r>
       <r>   -5.5613    1.0000 </r>
       <r>   -5.4971    1.0000 </r>
       <r>   -5.4286    1.0000 </r>
       <r>   -5.3523    1.0000 </r>
       <r>   -5.3056    1.0000 </r>
       <r>   -5.0915    1.0000 </r>
       <r>   -5.0508    1.0000 </r>
       <r>   -4.9884    1.0000 </r>
       <r>   -4.7911    1.0000 </r>
       <r>   -4.5326    1.0000 </r>
       <r>   -4.4644    1.0000 </r>
       <r>   -4.2338    1.0000 </r>
       <r>   -4.0772    1.0000 </r>
       <r>   -3.7557    1.0000 </r>
       <r>   -3.6312    1.0000 </r>
       <r>   -3.5892    0.9999 </r>
       <r>   -3.4708    0.9988 </r>
       <r>   -3.1652    0.8114 </r>
       <r>   -3.0138    0.4255 </r>
       <r>   -2.9169    0.1913 </r>
       <r>   -2.7953    0.0416 </r>
       <r>   -2.6644    0.0039 </r>
       <r>   -2.5933    0.0008 </r>
       <r>   -2.5223    0.0001 </r>
       <r>   -2.4405    0.0000 </r>
       <r>   -2.3856    0.0000 </r>
       <r>   -2.3049    0.0000 </r>
       <r>   -2.2614    0.0000 </r>
       <r>   -2.1356    0.0000 </r>
       <r>   -1.8426    0.0000 </r>
       <r>   -1.6864    0.0000 </r>
       <r>   -1.4877    0.0000 </r>
       <r>   -1.4053    0.0000 </r>
       <r>   -1.2201    0.0000 </r>
       <r>   -1.1385    0.0000 </r>
       <r>   -1.0601    0.0000 </r>
       <r>   -0.9295    0.0000 </r>
       <r>   -0.8496    0.0000 </r>
       <r>   -0.8038    0.0000 </r>
       <r>   -0.7316    0.0000 </r>
       <r>   -0.6842    0.0000 </r>
       <r>   -0.5485    0.0000 </r>
       <r>   -0.4877    0.0000 </r>
       <r>   -0.3881    0.0000 </r>
       <r>   -0.2677    0.0000 </r>
       <r>   -0.1919    0.0000 </r>
       <r>   -0.1328    0.0000 </r>
       <r>   -0.0499    0.0000 </r>
       <r>    0.2803    0.0000 </r>
       <r>    0.3929    0.0000 </r>
       <r>    0.7718    0.0000 </r>
       <r>    0.8911    0.0000 </r>
       <r>    1.1391    0.0000 </r>
       <r>    1.2909    0.0000 </r>
       <r>    1.3783    0.0000 </r>
       <r>    1.4616    0.0000 </r>
       <r>    2.1350    0.0000 </r>
       <r>    2.2682    0.0000 </r>
       <r>    2.6025    0.0000 </r>
      </set>
      <set comment="kpoint 33">
       <r>  -17.5153    1.0000 </r>
       <r>  -17.2425    1.0000 </r>
       <r>  -16.9101    1.0000 </r>
       <r>  -16.4962    1.0000 </r>
       <r>  -16.4471    1.0000 </r>
       <r>  -16.4002    1.0000 </r>
       <r>  -16.2722    1.0000 </r>
       <r>  -16.1599    1.0000 </r>
       <r>  -16.0873    1.0000 </r>
       <r>  -16.0234    1.0000 </r>
       <r>  -15.9586    1.0000 </r>
       <r>  -15.8623    1.0000 </r>
       <r>  -15.7769    1.0000 </r>
       <r>  -15.6996    1.0000 </r>
       <r>  -15.6445    1.0000 </r>
       <r>  -15.5719    1.0000 </r>
       <r>  -15.5256    1.0000 </r>
       <r>  -15.4442    1.0000 </r>
       <r>   -9.7560    1.0000 </r>
       <r>   -9.4646    1.0000 </r>
       <r>   -9.2799    1.0000 </r>
       <r>   -8.8843    1.0000 </r>
       <r>   -8.8136    1.0000 </r>
       <r>   -8.7289    1.0000 </r>
       <r>   -8.5955    1.0000 </r>
       <r>   -8.4996    1.0000 </r>
       <r>   -8.4010    1.0000 </r>
       <r>   -8.3122    1.0000 </r>
       <r>   -8.2772    1.0000 </r>
       <r>   -8.1924    1.0000 </r>
       <r>   -8.1360    1.0000 </r>
       <r>   -8.0652    1.0000 </r>
       <r>   -7.9595    1.0000 </r>
       <r>   -7.8739    1.0000 </r>
       <r>   -7.7818    1.0000 </r>
       <r>   -7.5533    1.0000 </r>
       <r>   -7.5298    1.0000 </r>
       <r>   -7.3908    1.0000 </r>
       <r>   -7.2898    1.0000 </r>
       <r>   -7.2742    1.0000 </r>
       <r>   -7.0999    1.0000 </r>
       <r>   -7.0310    1.0000 </r>
       <r>   -6.9757    1.0000 </r>
       <r>   -6.9087    1.0000 </r>
       <r>   -6.8052    1.0000 </r>
       <r>   -6.7586    1.0000 </r>
       <r>   -6.7042    1.0000 </r>
       <r>   -6.6837    1.0000 </r>
       <r>   -6.5881    1.0000 </r>
       <r>   -6.4843    1.0000 </r>
       <r>   -6.4271    1.0000 </r>
       <r>   -6.3507    1.0000 </r>
       <r>   -6.2430    1.0000 </r>
       <r>   -6.2069    1.0000 </r>
       <r>   -6.0385    1.0000 </r>
       <r>   -6.0218    1.0000 </r>
       <r>   -5.9263    1.0000 </r>
       <r>   -5.8823    1.0000 </r>
       <r>   -5.8141    1.0000 </r>
       <r>   -5.7817    1.0000 </r>
       <r>   -5.7271    1.0000 </r>
       <r>   -5.6866    1.0000 </r>
       <r>   -5.6375    1.0000 </r>
       <r>   -5.5775    1.0000 </r>
       <r>   -5.2955    1.0000 </r>
       <r>   -5.1416    1.0000 </r>
       <r>   -5.0047    1.0000 </r>
       <r>   -4.9524    1.0000 </r>
       <r>   -4.8878    1.0000 </r>
       <r>   -4.7917    1.0000 </r>
       <r>   -4.5429    1.0000 </r>
       <r>   -4.4355    1.0000 </r>
       <r>   -4.3312    1.0000 </r>
       <r>   -4.0648    1.0000 </r>
       <r>   -3.7738    1.0000 </r>
       <r>   -3.6662    1.0000 </r>
       <r>   -3.6096    1.0000 </r>
       <r>   -3.4088    0.9954 </r>
       <r>   -3.1689    0.8184 </r>
       <r>   -3.1103    0.6897 </r>
       <r>   -2.9365    0.2315 </r>
       <r>   -2.7879    0.0371 </r>
       <r>   -2.6540    0.0031 </r>
       <r>   -2.6049    0.0010 </r>
       <r>   -2.4953    0.0001 </r>
       <r>   -2.4393    0.0000 </r>
       <r>   -2.3746    0.0000 </r>
       <r>   -2.2801    0.0000 </r>
       <r>   -2.2145    0.0000 </r>
       <r>   -2.1125    0.0000 </r>
       <r>   -1.8647    0.0000 </r>
       <r>   -1.6779    0.0000 </r>
       <r>   -1.5272    0.0000 </r>
       <r>   -1.4078    0.0000 </r>
       <r>   -1.2228    0.0000 </r>
       <r>   -1.1083    0.0000 </r>
       <r>   -1.0680    0.0000 </r>
       <r>   -0.9220    0.0000 </r>
       <r>   -0.8485    0.0000 </r>
       <r>   -0.7750    0.0000 </r>
       <r>   -0.7210    0.0000 </r>
       <r>   -0.6371    0.0000 </r>
       <r>   -0.5791    0.0000 </r>
       <r>   -0.5300    0.0000 </r>
       <r>   -0.4080    0.0000 </r>
       <r>   -0.3456    0.0000 </r>
       <r>   -0.2461    0.0000 </r>
       <r>   -0.0851    0.0000 </r>
       <r>    0.0145    0.0000 </r>
       <r>    0.3051    0.0000 </r>
       <r>    0.4605    0.0000 </r>
       <r>    0.7266    0.0000 </r>
       <r>    0.9150    0.0000 </r>
       <r>    1.1546    0.0000 </r>
       <r>    1.2531    0.0000 </r>
       <r>    1.3824    0.0000 </r>
       <r>    1.4638    0.0000 </r>
       <r>    2.1680    0.0000 </r>
       <r>    2.2991    0.0000 </r>
       <r>    2.4293    0.0000 </r>
      </set>
      <set comment="kpoint 34">
       <r>  -17.4968    1.0000 </r>
       <r>  -17.3042    1.0000 </r>
       <r>  -16.7232    1.0000 </r>
       <r>  -16.6623    1.0000 </r>
       <r>  -16.4625    1.0000 </r>
       <r>  -16.4224    1.0000 </r>
       <r>  -16.2591    1.0000 </r>
       <r>  -16.1553    1.0000 </r>
       <r>  -16.1000    1.0000 </r>
       <r>  -16.0007    1.0000 </r>
       <r>  -15.9514    1.0000 </r>
       <r>  -15.8118    1.0000 </r>
       <r>  -15.7651    1.0000 </r>
       <r>  -15.6936    1.0000 </r>
       <r>  -15.6297    1.0000 </r>
       <r>  -15.5900    1.0000 </r>
       <r>  -15.5597    1.0000 </r>
       <r>  -15.4501    1.0000 </r>
       <r>   -9.8003    1.0000 </r>
       <r>   -9.3508    1.0000 </r>
       <r>   -9.1528    1.0000 </r>
       <r>   -9.0265    1.0000 </r>
       <r>   -8.8916    1.0000 </r>
       <r>   -8.7828    1.0000 </r>
       <r>   -8.6680    1.0000 </r>
       <r>   -8.5094    1.0000 </r>
       <r>   -8.4262    1.0000 </r>
       <r>   -8.3162    1.0000 </r>
       <r>   -8.2579    1.0000 </r>
       <r>   -8.1763    1.0000 </r>
       <r>   -8.1229    1.0000 </r>
       <r>   -7.9306    1.0000 </r>
       <r>   -7.8916    1.0000 </r>
       <r>   -7.8382    1.0000 </r>
       <r>   -7.6850    1.0000 </r>
       <r>   -7.6413    1.0000 </r>
       <r>   -7.5671    1.0000 </r>
       <r>   -7.4239    1.0000 </r>
       <r>   -7.3715    1.0000 </r>
       <r>   -7.2484    1.0000 </r>
       <r>   -7.1710    1.0000 </r>
       <r>   -6.9838    1.0000 </r>
       <r>   -6.9217    1.0000 </r>
       <r>   -6.8540    1.0000 </r>
       <r>   -6.8407    1.0000 </r>
       <r>   -6.7485    1.0000 </r>
       <r>   -6.6984    1.0000 </r>
       <r>   -6.6557    1.0000 </r>
       <r>   -6.5103    1.0000 </r>
       <r>   -6.4571    1.0000 </r>
       <r>   -6.4436    1.0000 </r>
       <r>   -6.4206    1.0000 </r>
       <r>   -6.2512    1.0000 </r>
       <r>   -6.1877    1.0000 </r>
       <r>   -6.1022    1.0000 </r>
       <r>   -6.0083    1.0000 </r>
       <r>   -5.9554    1.0000 </r>
       <r>   -5.8889    1.0000 </r>
       <r>   -5.8076    1.0000 </r>
       <r>   -5.7799    1.0000 </r>
       <r>   -5.7521    1.0000 </r>
       <r>   -5.7370    1.0000 </r>
       <r>   -5.6659    1.0000 </r>
       <r>   -5.6153    1.0000 </r>
       <r>   -5.4716    1.0000 </r>
       <r>   -5.0438    1.0000 </r>
       <r>   -4.8946    1.0000 </r>
       <r>   -4.8527    1.0000 </r>
       <r>   -4.8041    1.0000 </r>
       <r>   -4.6864    1.0000 </r>
       <r>   -4.6311    1.0000 </r>
       <r>   -4.5055    1.0000 </r>
       <r>   -4.3483    1.0000 </r>
       <r>   -4.0388    1.0000 </r>
       <r>   -3.7860    1.0000 </r>
       <r>   -3.7176    1.0000 </r>
       <r>   -3.6115    1.0000 </r>
       <r>   -3.3506    0.9859 </r>
       <r>   -3.2121    0.8877 </r>
       <r>   -3.1299    0.7367 </r>
       <r>   -2.9915    0.3648 </r>
       <r>   -2.7724    0.0291 </r>
       <r>   -2.6475    0.0027 </r>
       <r>   -2.6147    0.0013 </r>
       <r>   -2.5075    0.0001 </r>
       <r>   -2.4085    0.0000 </r>
       <r>   -2.3464    0.0000 </r>
       <r>   -2.2801    0.0000 </r>
       <r>   -2.1792    0.0000 </r>
       <r>   -2.1112    0.0000 </r>
       <r>   -1.8633    0.0000 </r>
       <r>   -1.6841    0.0000 </r>
       <r>   -1.5407    0.0000 </r>
       <r>   -1.4063    0.0000 </r>
       <r>   -1.2242    0.0000 </r>
       <r>   -1.0909    0.0000 </r>
       <r>   -1.0750    0.0000 </r>
       <r>   -0.9216    0.0000 </r>
       <r>   -0.8205    0.0000 </r>
       <r>   -0.7641    0.0000 </r>
       <r>   -0.6995    0.0000 </r>
       <r>   -0.6395    0.0000 </r>
       <r>   -0.6131    0.0000 </r>
       <r>   -0.5632    0.0000 </r>
       <r>   -0.4191    0.0000 </r>
       <r>   -0.3537    0.0000 </r>
       <r>   -0.3336    0.0000 </r>
       <r>   -0.0647    0.0000 </r>
       <r>    0.0618    0.0000 </r>
       <r>    0.3237    0.0000 </r>
       <r>    0.5285    0.0000 </r>
       <r>    0.6773    0.0000 </r>
       <r>    0.9657    0.0000 </r>
       <r>    1.0897    0.0000 </r>
       <r>    1.2827    0.0000 </r>
       <r>    1.3905    0.0000 </r>
       <r>    1.4754    0.0000 </r>
       <r>    2.2628    0.0000 </r>
       <r>    2.2699    0.0000 </r>
       <r>    2.3700    0.0000 </r>
      </set>
     </set>
    </set>
   </array>
  </eigenvalues>
  <separator name="orbital magnetization" >
   <v name="MAGDIPOLOUT">      0.00000000      0.00000000      0.00000000</v>
  </separator>
 </calculation>
 <structure name="finalpos" >
  <crystal>
   <varray name="basis" >
    <v>       8.30031028       4.82088277       0.00000000 </v>
    <v>      -8.27751570       4.78147410       0.00000000 </v>
    <v>       0.00000000       0.00000000      30.00000000 </v>
   </varray>
   <i name="volume">   2387.77954341 </i>
   <varray name="rec_basis" >
    <v>       0.06007432       0.10399849       0.00000000 </v>
    <v>      -0.06056945       0.10428488       0.00000000 </v>
    <v>       0.00000000       0.00000000       0.03333333 </v>
   </varray>
  </crystal>
  <varray name="positions" >
   <v>       0.34075608       0.67090516      -0.00014556 </v>
   <v>       0.00070709      -0.00453517      -0.00034156 </v>
   <v>       0.00395893       0.66758682       0.00005415 </v>
   <v>       0.65267885       0.65656939      -0.00013573 </v>
   <v>       0.64477143       0.32525785       0.00018570 </v>
   <v>       0.35220200       0.02195300      -0.00015792 </v>
   <v>       0.99650420       0.33626892       0.00056529 </v>
   <v>       0.35409703       0.33127303      -0.00040691 </v>
   <v>       0.65285417      -0.00669246       0.00023371 </v>
   <v>       0.11206687       0.21881196       0.95084229 </v>
   <v>       0.22067868       0.11142101       0.05165564 </v>
   <v>       0.11467898       0.56076950       0.95004072 </v>
   <v>       0.22719814       0.44668202       0.04889429 </v>
   <v>       0.10984845       0.88739568       0.95093931 </v>
   <v>       0.22381779       0.77870207       0.04813022 </v>
   <v>       0.44582886       0.22424340       0.94253329 </v>
   <v>       0.55815439       0.11257294       0.05505915 </v>
   <v>       0.43786578       0.55419047       0.94740050 </v>
   <v>       0.55506154       0.44473205       0.05556792 </v>
   <v>       0.44027570       0.88368081       0.94768195 </v>
   <v>       0.54695856       0.77416590       0.05264341 </v>
   <v>       0.77573627       0.22177746       0.94898151 </v>
   <v>       0.88879194       0.10518594       0.05004699 </v>
   <v>       0.78185662       0.55701052       0.94995431 </v>
   <v>       0.88747872       0.44878551       0.05023026 </v>
   <v>       0.78059033       0.89048781       0.95029517 </v>
   <v>       0.89279704       0.77901285       0.04925180 </v>
  </varray>
 </structure>
</modeling>
