unknown system                          
           1
     8.855646    5.108284    0.000000
    -8.853186    5.104053    0.000000
     0.000000    0.000000   30.000000
   V    Mo   W    S 
   3   3   3  18
Direct configuration=     1
   0.33333334  0.66666669  0.00000000
   0.00000000  0.00000000  0.00000000
   0.00000000  0.66666669  0.00000000
   0.66666669  0.66666669  0.00000000
   0.66666669  0.33333334  0.00000000
   0.33333334  0.00000000  0.00000000
   1.00000000  0.33333334  0.00000000
   0.33333334  0.33333334  0.00000000
   0.66666669  0.00000000  0.00000000
   0.11068511  0.22244981  0.95539999
   0.22244981  0.11068511  0.04460000
   0.11068511  0.55578315  0.95539999
   0.22244981  0.44401845  0.04460000
   0.11068511  0.88911647  0.95539999
   0.22244981  0.77735180  0.04460000
   0.44401845  0.22244981  0.95539999
   0.55578315  0.11068511  0.04460000
   0.44401845  0.55578315  0.95539999
   0.55578315  0.44401845  0.04460000
   0.44401845  0.88911647  0.95539999
   0.55578315  0.77735180  0.04460000
   0.77735180  0.22244981  0.95539999
   0.88911647  0.11068511  0.04460000
   0.77735180  0.55578315  0.95539999
   0.88911647  0.44401845  0.04460000
   0.77735180  0.88911647  0.95539999
   0.88911647  0.77735180  0.04460000
unknown system                          
           1
     8.667890    5.002067    0.000000
    -8.665620    4.998163    0.000000
     0.000000    0.000000   30.000000
   V    Mo   W    S 
   3   3   3  18
Direct configuration=     2
   0.33406163  0.66788255 -0.00009537
   0.00008874 -0.00149515  0.00011543
  -0.00072138  0.66714064  0.00003041
   0.66682735  0.66514916 -0.00003704
   0.66530320  0.33344132 -0.00003157
   0.33425826  0.00092105  0.00006842
   0.99859820  0.33377595 -0.00003861
   0.33635691  0.33327751 -0.00020522
   0.66511980 -0.00023051  0.00016358
   0.10931795  0.21851321  0.95200102
   0.21790655  0.10963127  0.04806901
   0.11263447  0.55893976  0.95308602
   0.22381571  0.44804331  0.04799430
   0.10661020  0.88681272  0.95311918
   0.22017541  0.77330950  0.04683834
   0.44387431  0.22268513  0.95066124
   0.55606988  0.11059860  0.04926981
   0.44128691  0.55688989  0.95197897
   0.55460396  0.44393709  0.04932279
   0.44297125  0.88461225  0.95188713
   0.55156211  0.77655034  0.04803306
   0.77813534  0.22180971  0.95075826
   0.89081703  0.10890891  0.04805966
   0.78210264  0.55763856  0.95193734
   0.89141965  0.44830725  0.04807131
   0.78172724  0.89140402  0.95200682
   0.89329115  0.77976041  0.04693561
unknown system                          
           1
     8.485622    4.901117    0.000000
    -8.484435    4.899086    0.000000
     0.000000    0.000000   30.000000
   V    Mo   W    S 
   3   3   3  18
Direct configuration=     3
   0.33435001  0.66826775 -0.00005256
   0.00003589 -0.00185144  0.00008294
  -0.00097544  0.66718003  0.00003358
   0.66657213  0.66439177 -0.00008749
   0.66453200  0.33322284 -0.00003679
   0.33507248  0.00173164  0.00011445
   0.99795252  0.33363720 -0.00002826
   0.33757409  0.33331638 -0.00022665
   0.66478309 -0.00002301  0.00018703
   0.10938098  0.21868221  0.95214365
   0.21791730  0.10980832  0.04805567
   0.11256353  0.55878131  0.95314632
   0.22375039  0.44787187  0.04782559
   0.10654857  0.88672897  0.95316605
   0.22010247  0.77324280  0.04675637
   0.44375705  0.22283385  0.95050534
   0.55623223  0.11048993  0.04936638
   0.44111038  0.55666949  0.95196646
   0.55437504  0.44379892  0.04945383
   0.44310636  0.88459498  0.95185395
   0.55157389  0.77670989  0.04800340
   0.77821358  0.22171522  0.95075202
   0.89071466  0.10897288  0.04801032
   0.78227454  0.55774938  0.95189576
   0.89160731  0.44829597  0.04805358
   0.78170500  0.89159140  0.95210629
   0.89338439  0.77980392  0.04695270
unknown system                          
           1
     8.278166    4.785971    0.000000
    -8.272652    4.776446    0.000000
     0.000000    0.000000   30.000000
   V    Mo   W    S 
   3   3   3  18
Direct configuration=     4
   0.33568739  0.66974711  0.00013811
  -0.00030223 -0.00274940 -0.00008685
  -0.00203105  0.66700347  0.00002810
   0.66507618  0.66119797 -0.00024514
   0.66107791  0.33184742 -0.00004063
   0.33889919  0.00550995  0.00023186
   0.99519933  0.33251113  0.00002671
   0.34230848  0.33347653 -0.00019461
   0.66387023  0.00130642  0.00017340
   0.10907195  0.21797654  0.95127029
   0.21692334  0.10946519  0.04945005
   0.11309107  0.55985223  0.95201617
   0.22426008  0.44847818  0.04858304
   0.10581575  0.88611449  0.95206775
   0.21946374  0.77238105  0.04773131
   0.44378363  0.22283991  0.94820153
   0.55648980  0.11062454  0.05139464
   0.44044062  0.55698016  0.95043589
   0.55436442  0.44371360  0.05160929
   0.44244802  0.88350126  0.95025875
   0.55060198  0.77609628  0.04932973
   0.77793918  0.22165210  0.94909160
   0.89100510  0.10837233  0.04932965
   0.78372177  0.55842525  0.95029699
   0.89205330  0.44942971  0.04946166
   0.78259537  0.89220704  0.95109252
   0.89435992  0.78025401  0.04834810
unknown system                          
           1
     8.281042    4.796399    0.000000
    -8.270678    4.778468    0.000000
     0.000000    0.000000   30.000000
   V    Mo   W    S 
   3   3   3  18
Direct configuration=     5
   0.33850425  0.67292733  0.00048181
  -0.00126156 -0.00403661 -0.00042131
  -0.00376808  0.66646169 -0.00000741
   0.66197135  0.65470846 -0.00041531
   0.65428117  0.32860430 -0.00003401
   0.34656085  0.01286522  0.00027288
   0.98899496  0.32987563  0.00015831
   0.35158294  0.33374873 -0.00002991
   0.66245561  0.00473236  0.00002632
   0.10960423  0.21775294  0.95043018
   0.21672813  0.10941648  0.05125191
   0.11342027  0.56100455  0.95055764
   0.22486439  0.44848120  0.04910695
   0.10618431  0.88583260  0.95067121
   0.21923934  0.77273676  0.04900481
   0.44423622  0.22265553  0.94470378
   0.55683755  0.11139548  0.05443997
   0.43986072  0.55689420  0.94830070
   0.55500732  0.44375957  0.05474598
   0.44167529  0.88288198  0.94812630
   0.55015899  0.77551209  0.05095283
   0.77676671  0.22178073  0.94679557
   0.89082948  0.10723814  0.05116921
   0.78472835  0.55845812  0.94811038
   0.89143872  0.45049381  0.05131190
   0.78264078  0.89191413  0.94996842
   0.89467216  0.78011904  0.05032081
unknown system                          
           1
     8.277925    4.795212    0.000000
    -8.267836    4.777753    0.000000
     0.000000    0.000000   30.000000
   V    Mo   W    S 
   3   3   3  18
Direct configuration=     6
   0.33988906  0.67461957  0.00051408
  -0.00180624 -0.00448336 -0.00044946
  -0.00417151  0.66628817 -0.00003897
   0.66149030  0.65302876 -0.00038591
   0.65446898  0.32822323  0.00002052
   0.34786942  0.01355860  0.00018935
   0.98596703  0.32863280  0.00025916
   0.35295717  0.33378147 -0.00012276
   0.66229196  0.00651958  0.00011235
   0.11065435  0.21870552  0.95082394
   0.21775239  0.10991358  0.05120759
   0.11316818  0.56072784  0.95069236
   0.22476430  0.44741849  0.04856508
   0.10718649  0.88627663  0.95080536
   0.21985851  0.77407447  0.04891178
   0.44443419  0.22260738  0.94428604
   0.55706130  0.11181589  0.05479008
   0.43980322  0.55622195  0.94824050
   0.55559477  0.44371136  0.05517101
   0.44185804  0.88348055  0.94796370
   0.55098136  0.77594121  0.05082177
   0.77599418  0.22192642  0.94645053
   0.89023305  0.10684654  0.05124045
   0.78390763  0.55761955  0.94803007
   0.89051360  0.45008161  0.05138818
   0.78138071  0.89096861  0.95018103
   0.89411202  0.77970805  0.05033207
unknown system                          
           1
     8.277129    4.793563    0.000000
    -8.267508    4.776917    0.000000
     0.000000    0.000000   30.000000
   V    Mo   W    S 
   3   3   3  18
Direct configuration=     7
   0.34079407  0.67579041  0.00054272
  -0.00202273 -0.00476133 -0.00049086
  -0.00441326  0.66623164 -0.00007954
   0.66110943  0.65177119 -0.00037740
   0.65444508  0.32798433  0.00002004
   0.34871985  0.01401248  0.00016668
   0.98402291  0.32782195  0.00029049
   0.35420967  0.33388378 -0.00010634
   0.66214814  0.00766905  0.00011960
   0.11097594  0.21907406  0.95103436
   0.21808488  0.11006646  0.05117630
   0.11305744  0.56056741  0.95079111
   0.22458040  0.44699398  0.04824486
   0.10753425  0.88642393  0.95087719
   0.22006412  0.77452453  0.04886083
   0.44460134  0.22260877  0.94410404
   0.55709810  0.11196113  0.05499061
   0.43980068  0.55603726  0.94819971
   0.55571802  0.44359493  0.05534283
   0.44199940  0.88367812  0.94784746
   0.55134215  0.77615011  0.05076012
   0.77569035  0.22192534  0.94623278
   0.88996432  0.10666828  0.05130840
   0.78367063  0.55733251  0.94797091
   0.89022855  0.45002427  0.05149521
   0.78085679  0.89061187  0.95032542
   0.89393392  0.77956798  0.05035237
unknown system                          
           1
     8.276431    4.787585    0.000000
    -8.270389    4.777140    0.000000
     0.000000    0.000000   30.000000
   V    Mo   W    S 
   3   3   3  18
Direct configuration=     8
   0.34018078  0.67498375  0.00052204
  -0.00192343 -0.00457465 -0.00046070
  -0.00424292  0.66625747 -0.00006022
   0.66129982  0.65253159 -0.00037527
   0.65432268  0.32802466  0.00001324
   0.34831171  0.01386229  0.00017969
   0.98523133  0.32833842  0.00025474
   0.35354370  0.33382290 -0.00009880
   0.66222248  0.00697401  0.00011041
   0.11082051  0.21886430  0.95089823
   0.21792688  0.10999493  0.05119593
   0.11312719  0.56068107  0.95072313
   0.22472026  0.44722781  0.04845434
   0.10736910  0.88635862  0.95083641
   0.21996756  0.77430872  0.04889185
   0.44451432  0.22262155  0.94420342
   0.55707805  0.11188023  0.05487300
   0.43979825  0.55614246  0.94821334
   0.55561484  0.44365826  0.05522910
   0.44191649  0.88357559  0.94792882
   0.55109337  0.77601044  0.05080374
   0.77588172  0.22195226  0.94638615
   0.89012350  0.10675743  0.05127283
   0.78377928  0.55746871  0.94801264
   0.89033940  0.45002044  0.05142588
   0.78117670  0.89082615  0.95022083
   0.89402085  0.77964506  0.05034514
unknown system                          
           1
     8.271514    4.786853    0.000000
    -8.262976    4.772090    0.000000
     0.000000    0.000000   30.000000
   V    Mo   W    S 
   3   3   3  18
Direct configuration=     9
   0.33653278  0.67012240  0.00040574
  -0.00209513 -0.00341378 -0.00025877
  -0.00286238  0.66607508  0.00003623
   0.66168937  0.65623045 -0.00033246
   0.65282543  0.32686265 -0.00002381
   0.34782336  0.01433229  0.00018576
   0.99110649  0.33119245  0.00004600
   0.35084097  0.33351024 -0.00005705
   0.66246140  0.00391223  0.00008639
   0.11058670  0.21816444  0.95016950
   0.21755734  0.10977371  0.05136781
   0.11363753  0.56149173  0.95025823
   0.22563783  0.44802717  0.04956556
   0.10710081  0.88629789  0.95068076
   0.21975837  0.77385077  0.04901703
   0.44419827  0.22283301  0.94445713
   0.55713735  0.11170542  0.05449757
   0.43951168  0.55656897  0.94814256
   0.55521091  0.44387482  0.05482240
   0.44139309  0.88304475  0.94836712
   0.54953078  0.77530207  0.05106856
   0.77662706  0.22235751  0.94710772
   0.89095479  0.10700765  0.05118459
   0.78394432  0.55762271  0.94824810
   0.89020585  0.44964991  0.05104490
   0.78257266  0.89181619  0.94953113
   0.89432680  0.78000172  0.05038121
unknown system                          
           1
     8.268487    4.788372    0.000000
    -8.258246    4.770659    0.000000
     0.000000    0.000000   30.000000
   V    Mo   W    S 
   3   3   3  18
Direct configuration=    10
   0.33367047  0.66592783  0.00039121
  -0.00318259 -0.00324082 -0.00023282
  -0.00196460  0.66608683  0.00008410
   0.66204688  0.65910063 -0.00036168
   0.65124492  0.32603514  0.00001141
   0.34772102  0.01529900  0.00017889
   0.99588449  0.33346353 -0.00001562
   0.34919847  0.33348011 -0.00007269
   0.66295501  0.00168597  0.00007121
   0.11053167  0.21784340  0.94978454
   0.21766894  0.10976222  0.05144758
   0.11381933  0.56188199  0.94986172
   0.22607742  0.44821865  0.05029400
   0.10711181  0.88639535  0.95072028
   0.21984840  0.77397058  0.04903768
   0.44396554  0.22298042  0.94439001
   0.55738971  0.11157027  0.05444671
   0.43939493  0.55668891  0.94806237
   0.55527680  0.44415399  0.05462692
   0.44112822  0.88283742  0.94862211
   0.54853695  0.77486090  0.05124471
   0.77700710  0.22258199  0.94752438
   0.89142469  0.10733591  0.05113469
   0.78379610  0.55763059  0.94849355
   0.88994151  0.44918630  0.05077173
   0.78330176  0.89229753  0.94911979
   0.89441950  0.78017982  0.05036311
unknown system                          
           1
     8.271421    4.797309    0.000000
    -8.258172    4.774374    0.000000
     0.000000    0.000000   30.000000
   V    Mo   W    S 
   3   3   3  18
Direct configuration=    11
   0.33165896  0.66242982  0.00035318
  -0.00610573 -0.00470536 -0.00026298
  -0.00162871  0.66605614  0.00009622
   0.66222908  0.66081240 -0.00031153
   0.64856775  0.32444695  0.00003780
   0.34965260  0.01803251  0.00019134
   0.99917086  0.33522642 -0.00009471
   0.34974833  0.33368713 -0.00010538
   0.66311501  0.00100744  0.00000613
   0.11092364  0.21806070  0.94981502
   0.21830461  0.11008110  0.05135648
   0.11379860  0.56182994  0.94959288
   0.22599700  0.44753284  0.05064847
   0.10776456  0.88681465  0.95097946
   0.22046028  0.77503521  0.04882582
   0.44400465  0.22325163  0.94393777
   0.55782773  0.11148977  0.05470329
   0.43947429  0.55661654  0.94786568
   0.55576342  0.44461589  0.05467410
   0.44116516  0.88288338  0.94882660
   0.54812001  0.77465734  0.05134609
   0.77715419  0.22286957  0.94781462
   0.89147952  0.10752393  0.05120818
   0.78318518  0.55719801  0.94873571
   0.88925577  0.44854718  0.05058047
   0.78300440  0.89203788  0.94886615
   0.89412330  0.78017545  0.05031304
unknown system                          
           1
     8.275975    4.804904    0.000000
    -8.260356    4.777859    0.000000
     0.000000    0.000000   30.000000
   V    Mo   W    S 
   3   3   3  18
Direct configuration=    12
   0.33073887  0.66018460  0.00033937
  -0.00987465 -0.00715145 -0.00027351
  -0.00186936  0.66608339  0.00009048
   0.66251167  0.66142610 -0.00028746
   0.64645595  0.32310240  0.00012734
   0.35207621  0.02068061  0.00017144
   1.00050056  0.33612581 -0.00007083
   0.35150174  0.33439616 -0.00016609
   0.66316878  0.00149034  0.00004943
   0.11121416  0.21810367  0.95011722
   0.21877924  0.11045797  0.05109364
   0.11372350  0.56165959  0.94950416
   0.22595226  0.44676333  0.05071174
   0.10839208  0.88722803  0.95132095
   0.22115992  0.77610180  0.04844435
   0.44411439  0.22353476  0.94348295
   0.55835764  0.11162478  0.05497940
   0.43973692  0.55654545  0.94771985
   0.55627202  0.44492833  0.05482669
   0.44119173  0.88301133  0.94895646
   0.54802486  0.77464581  0.05130305
   0.77720400  0.22320577  0.94797169
   0.89135681  0.10759260  0.05121593
   0.78263259  0.55665799  0.94890987
   0.88870845  0.44803893  0.05038540
   0.78230417  0.89162797  0.94871641
   0.89387996  0.78014839  0.05035996
unknown system                          
           1
     8.274332    4.802736    0.000000
    -8.259305    4.776718    0.000000
     0.000000    0.000000   30.000000
   V    Mo   W    S 
   3   3   3  18
Direct configuration=    13
   0.33053978  0.65893938  0.00034275
  -0.01363770 -0.00988205 -0.00027612
  -0.00230540  0.66625273  0.00003929
   0.66275298  0.66106658 -0.00025782
   0.64548110  0.32227282  0.00014354
   0.35422851  0.02224863  0.00011274
   1.00036064  0.33649313 -0.00010292
   0.35367887  0.33576366 -0.00022604
   0.66309671  0.00271286  0.00005861
   0.11135895  0.21791008  0.95059087
   0.21903041  0.11079145  0.05068810
   0.11368215  0.56149811  0.94960889
   0.22605523  0.44620730  0.05057967
   0.10880538  0.88753584  0.95166485
   0.22174755  0.77684820  0.04800249
   0.44438329  0.22384590  0.94321674
   0.55878357  0.11189069  0.05525476
   0.44007995  0.55659737  0.94762712
   0.55670799  0.44512394  0.05500338
   0.44132237  0.88321042  0.94906103
   0.54810598  0.77472925  0.05112641
   0.77717424  0.22347655  0.94804540
   0.89109104  0.10749022  0.05123831
   0.78231325  0.55617000  0.94900118
   0.88839917  0.44783585  0.05029919
   0.78135963  0.89121912  0.94864423
   0.89361883  0.77996638  0.05051325
unknown system                          
           1
     8.271635    4.791587    0.000000
    -8.260430    4.772208    0.000000
     0.000000    0.000000   30.000000
   V    Mo   W    S 
   3   3   3  18
Direct configuration=    14
   0.33058585  0.65921101  0.00033113
  -0.01276157 -0.00921563 -0.00029259
  -0.00216527  0.66618998  0.00004976
   0.66264461  0.66128495 -0.00026866
   0.64543225  0.32234031  0.00012769
   0.35383923  0.02212936  0.00012764
   1.00057236  0.33643901 -0.00010175
   0.35319323  0.33529472 -0.00021048
   0.66304527  0.00229574  0.00003550
   0.11136105  0.21802793  0.95046081
   0.21902606  0.11073290  0.05082086
   0.11368683  0.56149204  0.94957748
   0.22600077  0.44628757  0.05061375
   0.10877894  0.88749411  0.95158672
   0.22166624  0.77676854  0.04810363
   0.44431534  0.22376809  0.94323384
   0.55869837  0.11180653  0.05520851
   0.43998107  0.55654361  0.94765456
   0.55660444  0.44510378  0.05497198
   0.44128441  0.88316283  0.94905112
   0.54808046  0.77469966  0.05119472
   0.77717996  0.22341518  0.94805852
   0.89116284  0.10752836  0.05123926
   0.78232181  0.55624732  0.94899876
   0.88838336  0.44780698  0.05030307
   0.78161777  0.89130519  0.94866831
   0.89367876  0.78005435  0.05045574
unknown system                          
           1
     8.272606    4.799927    0.000000
    -8.258556    4.775604    0.000000
     0.000000    0.000000   30.000000
   V    Mo   W    S 
   3   3   3  18
Direct configuration=    15
   0.33120792  0.66143294  0.00028749
  -0.00690438 -0.00481807 -0.00036032
  -0.00110130  0.66596456  0.00012106
   0.66196298  0.66273574 -0.00030615
   0.64569526  0.32312283  0.00009127
   0.35076652  0.02064907  0.00023856
   1.00176671  0.33596573 -0.00004108
   0.34978088  0.33235640 -0.00006772
   0.66251610 -0.00065921 -0.00003833
   0.11127722  0.21849808  0.94963672
   0.21887915  0.11025922  0.05161576
   0.11389116  0.56157531  0.94947088
   0.22593696  0.44707364  0.05072354
   0.10852593  0.88725008  0.95110630
   0.22121873  0.77618919  0.04866146
   0.44380237  0.22318662  0.94334486
   0.55812798  0.11134470  0.05488201
   0.43922729  0.55621416  0.94788787
   0.55586749  0.44488871  0.05475648
   0.44082264  0.88274318  0.94895282
   0.54781089  0.77447776  0.05161669
   0.77717953  0.22303887  0.94812509
   0.89161068  0.10757071  0.05116143
   0.78251517  0.55675314  0.94898044
   0.88825508  0.44769715  0.05027418
   0.78335571  0.89197286  0.94879527
   0.89421979  0.78073108  0.05008333
unknown system                          
           1
     8.275805    4.802558    0.000000
    -8.261159    4.777204    0.000000
     0.000000    0.000000   30.000000
   V    Mo   W    S 
   3   3   3  18
Direct configuration=    16
   0.33163190  0.66145896  0.00030669
  -0.00860835 -0.00619504 -0.00033009
  -0.00151412  0.66591948  0.00007030
   0.66192686  0.66209815 -0.00027566
   0.64535198  0.32291360  0.00009895
   0.35204584  0.02145605  0.00018144
   1.00121330  0.33607828 -0.00005774
   0.35114923  0.33300003 -0.00015232
   0.66215178 -0.00003432  0.00001538
   0.11137498  0.21837031  0.94997221
   0.21900957  0.11046498  0.05136501
   0.11381024  0.56145015  0.94959560
   0.22609078  0.44672314  0.05057850
   0.10874294  0.88732494  0.95132352
   0.22149190  0.77660236  0.04836953
   0.44397198  0.22340519  0.94326882
   0.55842320  0.11154594  0.05498589
   0.43948609  0.55619267  0.94785793
   0.55615295  0.44501840  0.05484142
   0.44093092  0.88298145  0.94895518
   0.54795543  0.77461729  0.05151329
   0.77707281  0.22313240  0.94820297
   0.89129926  0.10741517  0.05113843
   0.78236549  0.55650442  0.94907686
   0.88812873  0.44761743  0.05018489
   0.78253041  0.89166934  0.94874035
   0.89402834  0.78048369  0.05017256
unknown system                          
           1
     8.275347    4.801948    0.000000
    -8.260915    4.776966    0.000000
     0.000000    0.000000   30.000000
   V    Mo   W    S 
   3   3   3  18
Direct configuration=    17
   0.33181385  0.66137634  0.00032195
  -0.00978962 -0.00707528 -0.00032732
  -0.00175404  0.66595951  0.00005412
   0.66200500  0.66182495 -0.00026567
   0.64525660  0.32279297  0.00012150
   0.35271049  0.02178090  0.00016969
   1.00089170  0.33608147 -0.00004892
   0.35188645  0.33350482 -0.00015497
   0.66207978  0.00035754  0.00003249
   0.11141344  0.21826451  0.95015175
   0.21908015  0.11057557  0.05120769
   0.11380925  0.56140768  0.94964032
   0.22613418  0.44655851  0.05049053
   0.10884053  0.88739302  0.95143168
   0.22163510  0.77681291  0.04823237
   0.44410433  0.22350540  0.94319155
   0.55854610  0.11168439  0.05506222
   0.43962328  0.55620996  0.94781812
   0.55627598  0.44505763  0.05489878
   0.44099561  0.88308300  0.94893719
   0.54802316  0.77467026  0.05146206
   0.77703379  0.22318272  0.94820367
   0.89115285  0.10734377  0.05113066
   0.78229552  0.55637381  0.94908528
   0.88807985  0.44760914  0.05017972
   0.78215447  0.89151592  0.94873968
   0.89391666  0.78036304  0.05023376
unknown system                          
           1
     8.271863    4.790539    0.000000
    -8.264107    4.777110    0.000000
     0.000000    0.000000   30.000000
   V    Mo   W    S 
   3   3   3  18
Direct configuration=    18
   0.33177911  0.66140536  0.00032092
  -0.00948923 -0.00685044 -0.00032938
  -0.00169479  0.66594589  0.00005847
   0.66197967  0.66189654 -0.00026865
   0.64527373  0.32282655  0.00011787
   0.35254467  0.02170755  0.00017634
   1.00098144  0.33607903 -0.00004815
   0.35169883  0.33337311 -0.00014705
   0.66209201  0.00024710  0.00002709
   0.11140494  0.21828900  0.95010684
   0.21906722  0.11055413  0.05124841
   0.11380961  0.56141440  0.94962888
   0.22612645  0.44659294  0.05050903
   0.10882000  0.88737523  0.95140517
   0.22160396  0.77676932  0.04826300
   0.44407498  0.22348083  0.94320124
   0.55851779  0.11165387  0.05504361
   0.43959217  0.55620230  0.94782786
   0.55624107  0.44504787  0.05488319
   0.44098001  0.88306203  0.94894076
   0.54800610  0.77465931  0.05147593
   0.77704312  0.22317134  0.94820781
   0.89118526  0.10735977  0.05113000
   0.78230778  0.55640216  0.94908600
   0.88808119  0.44760194  0.05017579
   0.78224431  0.89155405  0.94874163
   0.89394308  0.78039326  0.05021728
unknown system                          
           1
     8.268220    4.784661    0.000000
    -8.262945    4.775527    0.000000
     0.000000    0.000000   30.000000
   V    Mo   W    S 
   3   3   3  18
Direct configuration=    19
   0.33123741  0.66207705  0.00023157
  -0.00548903 -0.00417589 -0.00037696
  -0.00083815  0.66582115  0.00012884
   0.66215306  0.66325724 -0.00033072
   0.64494850  0.32290127  0.00004002
   0.35049628  0.02122192  0.00020261
   1.00250125  0.33626869 -0.00001120
   0.34896988  0.33094098 -0.00014206
   0.66185683 -0.00154270 -0.00006330
   0.11130499  0.21833356  0.94947268
   0.21866766  0.11009151  0.05185132
   0.11398248  0.56169965  0.94949915
   0.22624567  0.44712370  0.05078645
   0.10846242  0.88717198  0.95108185
   0.22115458  0.77628798  0.04864318
   0.44368556  0.22318850  0.94335947
   0.55822083  0.11134933  0.05480122
   0.43909606  0.55610119  0.94808349
   0.55589421  0.44498619  0.05472044
   0.44066071  0.88266907  0.94903919
   0.54781356  0.77457475  0.05170157
   0.77707383  0.22304271  0.94837416
   0.89164265  0.10735015  0.05101658
   0.78255890  0.55678121  0.94922128
   0.88780731  0.44759766  0.04998014
   0.78363393  0.89219988  0.94882698
   0.89447307  0.78089569  0.04986194
unknown system                          
           1
     8.273304    4.795254    0.000000
    -8.263231    4.777815    0.000000
     0.000000    0.000000   30.000000
   V    Mo   W    S 
   3   3   3  18
Direct configuration=    20
   0.33083140  0.66268887  0.00023711
  -0.00121673 -0.00116926 -0.00042440
   0.00007062  0.66565533  0.00017600
   0.66187679  0.66443232 -0.00035864
   0.64475980  0.32323800  0.00002011
   0.34829824  0.02050155  0.00030383
   1.00422408  0.33649643  0.00001824
   0.34628861  0.32875469 -0.00000999
   0.66159225 -0.00346235 -0.00011935
   0.11117462  0.21857526  0.94886711
   0.21848383  0.10977567  0.05242902
   0.11402752  0.56178652  0.94935735
   0.22627843  0.44759210  0.05100580
   0.10824648  0.88694076  0.95073986
   0.22080205  0.77587963  0.04900026
   0.44328715  0.22286213  0.94341024
   0.55788771  0.11100155  0.05454004
   0.43865318  0.55592570  0.94828112
   0.55540492  0.44486995  0.05448302
   0.44035576  0.88241489  0.94908600
   0.54760157  0.77446920  0.05190482
   0.77717691  0.22290771  0.94852799
   0.89205575  0.10748439  0.05093148
   0.78270626  0.55709903  0.94929201
   0.88763440  0.44741640  0.04982894
   0.78481457  0.89275102  0.94886341
   0.89489829  0.78132694  0.04960852
unknown system                          
           1
     8.277111    4.800446    0.000000
    -8.265077    4.779615    0.000000
     0.000000    0.000000   30.000000
   V    Mo   W    S 
   3   3   3  18
Direct configuration=    21
   0.33150908  0.66275890  0.00032352
  -0.00294739 -0.00246433 -0.00041893
  -0.00027557  0.66571958  0.00011299
   0.66157204  0.66384010 -0.00033101
   0.64421718  0.32316592  0.00005787
   0.34955955  0.02126213  0.00026829
   1.00431412  0.33679298  0.00000023
   0.34764181  0.32950961 -0.00003176
   0.66095170 -0.00333131 -0.00007725
   0.11126350  0.21847794  0.94927079
   0.21869855  0.11002718  0.05213840
   0.11397766  0.56149521  0.94945287
   0.22639435  0.44722857  0.05080187
   0.10862959  0.88710553  0.95097064
   0.22122604  0.77649298  0.04867573
   0.44348804  0.22305625  0.94321736
   0.55812143  0.11126503  0.05467651
   0.43890880  0.55578672  0.94823073
   0.55550714  0.44495140  0.05456932
   0.44041523  0.88279514  0.94902800
   0.54770559  0.77457163  0.05182745
   0.77717854  0.22301029  0.94864617
   0.89170512  0.10738336  0.05086869
   0.78242865  0.55673896  0.94929891
   0.88752689  0.44713416  0.04980176
   0.78388325  0.89238281  0.94884530
   0.89461355  0.78105768  0.04977544
unknown system                          
           1
     8.280420    4.803637    0.000000
    -8.267435    4.781161    0.000000
     0.000000    0.000000   30.000000
   V    Mo   W    S 
   3   3   3  18
Direct configuration=    22
   0.33215900  0.66298890  0.00030084
  -0.00467317 -0.00387634 -0.00038481
  -0.00080789  0.66563326  0.00009378
   0.66153896  0.66347148 -0.00032765
   0.64361335  0.32315698  0.00005233
   0.35089522  0.02214620  0.00021643
   1.00467327  0.33728036  0.00000366
   0.34884217  0.33008974 -0.00009053
   0.66008850 -0.00356460 -0.00008294
   0.11136327  0.21829406  0.94954596
   0.21884491  0.11020572  0.05192257
   0.11407634  0.56135973  0.94954064
   0.22659369  0.44699894  0.05070438
   0.10888610  0.88715645  0.95116259
   0.22151763  0.77702618  0.04839745
   0.44370273  0.22326713  0.94308622
   0.55831587  0.11154477  0.05477809
   0.43911401  0.55569117  0.94819096
   0.55556503  0.44506972  0.05468429
   0.44042498  0.88303939  0.94896845
   0.54777137  0.77460632  0.05185503
   0.77721316  0.22312786  0.94885060
   0.89136319  0.10724794  0.05076830
   0.78224040  0.55649134  0.94934348
   0.88741422  0.44695622  0.04971087
   0.78314490  0.89206014  0.94886022
   0.89433325  0.78074541  0.04984869
unknown system                          
           1
     8.283422    4.807958    0.000000
    -8.268562    4.782237    0.000000
     0.000000    0.000000   30.000000
   V    Mo   W    S 
   3   3   3  18
Direct configuration=    23
   0.33251640  0.66327471  0.00029337
  -0.00493046 -0.00418804 -0.00037372
  -0.00098341  0.66552391  0.00009500
   0.66146722  0.66354978 -0.00031638
   0.64320275  0.32331295  0.00006831
   0.35123961  0.02249557  0.00020637
   1.00558060  0.33778765  0.00000991
   0.34892676  0.33000051 -0.00009715
   0.65932676 -0.00435153 -0.00007316
   0.11138142  0.21817038  0.94957667
   0.21889076  0.11022953  0.05189771
   0.11419786  0.56135344  0.94955342
   0.22678861  0.44704731  0.05070978
   0.10897634  0.88714247  0.95121307
   0.22163773  0.77726595  0.04829446
   0.44374803  0.22333153  0.94300260
   0.55840219  0.11167581  0.05478081
   0.43913479  0.55562195  0.94819327
   0.55550741  0.44512758  0.05471832
   0.44031642  0.88308755  0.94891325
   0.54773855  0.77457854  0.05192451
   0.77726392  0.22317537  0.94902843
   0.89123303  0.10717232  0.05067727
   0.78216204  0.55642031  0.94936282
   0.88729416  0.44680520  0.04962956
   0.78296156  0.89197957  0.94886213
   0.89423338  0.78062413  0.04984927
unknown system                          
           1
     8.277877    4.799424    0.000000
    -8.267058    4.780693    0.000000
     0.000000    0.000000   30.000000
   V    Mo   W    S 
   3   3   3  18
Direct configuration=    24
   0.33301108  0.66332027  0.00027890
  -0.00682148 -0.00559174 -0.00034438
  -0.00151892  0.66547320  0.00008784
   0.66155500  0.66339691 -0.00028562
   0.64281396  0.32341570  0.00011626
   0.35233864  0.02303115  0.00018107
   1.00641296  0.33838204  0.00000362
   0.34977826  0.33064437 -0.00010773
   0.65844386 -0.00480594 -0.00003330
   0.11137296  0.21788370  0.94977334
   0.21900023  0.11032763  0.05165130
   0.11438055  0.56139532  0.94959378
   0.22704468  0.44709432  0.05068120
   0.10909328  0.88723548  0.95136642
   0.22190637  0.77762251  0.04808217
   0.44393977  0.22350770  0.94290377
   0.55862149  0.11194713  0.05484253
   0.43929374  0.55568038  0.94811775
   0.55558008  0.44519660  0.05481255
   0.44026469  0.88313494  0.94881918