   27   27  100    1
  0.9710400E+02  0.1002848E-08  0.1002848E-08  0.3000000E-08  0.5000000E-15
  1.000000000000000E-004
  CAR 
 unknown system                          
    159     34    120
 
  0.0000000E+00  0.0000000E+00  0.0000000E+00  0.1562500E-01
    1      -17.828032   1.000000
    2      -16.716269   1.000000
    3      -16.674317   1.000000
    4      -16.658517   1.000000
    5      -16.485722   1.000000
    6      -16.443178   1.000000
    7      -16.413111   1.000000
    8      -16.373409   1.000000
    9      -16.149599   1.000000
   10      -16.077672   1.000000
   11      -16.041302   1.000000
   12      -15.969100   1.000000
   13      -15.868395   1.000000
   14      -15.745723   1.000000
   15      -15.620251   1.000000
   16      -15.448772   1.000000
   17      -15.304567   1.000000
   18      -15.193763   1.000000
   19       -9.490734   1.000000
   20       -9.114054   1.000000
   21       -8.941307   1.000000
   22       -8.810414   1.000000
   23       -8.696493   1.000000
   24       -8.656005   1.000000
   25       -8.633681   1.000000
   26       -8.575325   1.000000
   27       -8.492335   1.000000
   28       -8.420521   1.000000
   29       -8.392308   1.000000
   30       -8.345573   1.000000
   31       -8.202018   1.000000
   32       -8.136036   1.000000
   33       -8.052203   1.000000
   34       -8.025307   1.000000
   35       -7.843175   1.000000
   36       -7.799483   1.000000
   37       -7.750513   1.000000
   38       -7.607125   1.000000
   39       -7.494553   1.000000
   40       -7.442313   1.000000
   41       -7.298506   1.000000
   42       -7.256630   1.000000
   43       -7.146272   1.000000
   44       -6.877024   1.000000
   45       -6.829016   1.000000
   46       -6.771641   1.000000
   47       -6.733932   1.000000
   48       -6.669084   1.000000
   49       -6.596226   1.000000
   50       -6.463808   1.000000
   51       -6.435137   1.000000
   52       -6.372855   1.000000
   53       -6.307180   1.000000
   54       -6.254043   1.000000
   55       -6.189794   1.000000
   56       -6.091213   1.000000
   57       -6.077635   1.000000
   58       -5.875807   1.000000
   59       -5.779716   1.000000
   60       -5.656005   1.000000
   61       -5.468723   1.000000
   62       -5.344803   1.000000
   63       -5.197836   1.000000
   64       -5.131936   1.000000
   65       -5.098641   1.000000
   66       -4.975816   1.000000
   67       -4.860682   1.000000
   68       -4.813998   1.000000
   69       -4.768184   1.000000
   70       -4.686234   1.000000
   71       -4.631506   1.000000
   72       -4.556138   1.000000
   73       -4.522379   1.000000
   74       -4.286603   1.000000
   75       -3.981372   0.999999
   76       -3.949008   0.999996
   77       -3.737323   0.998411
   78       -3.585862   0.969873
   79       -3.531858   0.932812
   80       -3.423479   0.767524
   81       -3.247715   0.304281
   82       -2.770935   0.000051
   83       -2.724176   0.000013
   84       -2.615985   0.000000
   85       -2.583619   0.000000
   86       -2.446056   0.000000
   87       -2.261532   0.000000
   88       -2.238538   0.000000
   89       -2.214933   0.000000
   90       -2.153774   0.000000
   91       -1.918198   0.000000
   92       -1.791693   0.000000
   93       -1.407212   0.000000
   94       -1.203104   0.000000
   95       -1.137706   0.000000
   96       -1.048588   0.000000
   97       -0.980898   0.000000
   98       -0.878860   0.000000
   99       -0.756221   0.000000
  100       -0.646913   0.000000
  101       -0.523364   0.000000
  102       -0.505861   0.000000
  103       -0.417957   0.000000
  104       -0.268927   0.000000
  105       -0.179253   0.000000
  106       -0.080357   0.000000
  107        0.001843   0.000000
  108        0.141638   0.000000
  109        0.269252   0.000000
  110        0.331231   0.000000
  111        0.384501   0.000000
  112        0.564895   0.000000
  113        0.600123   0.000000
  114        0.775008   0.000000
  115        0.878161   0.000000
  116        0.960125   0.000000
  117        1.072343   0.000000
  118        1.639119   0.000000
  119        1.842213   0.000000
  120        2.156386   0.000000
 
  0.1250000E+00  0.2775558E-16  0.0000000E+00  0.3125000E-01
    1      -17.802912   1.000000
    2      -16.835387   1.000000
    3      -16.700205   1.000000
    4      -16.605851   1.000000
    5      -16.526834   1.000000
    6      -16.432738   1.000000
    7      -16.395257   1.000000
    8      -16.339256   1.000000
    9      -16.167066   1.000000
   10      -16.091263   1.000000
   11      -16.020776   1.000000
   12      -15.902774   1.000000
   13      -15.851224   1.000000
   14      -15.730951   1.000000
   15      -15.625327   1.000000
   16      -15.459430   1.000000
   17      -15.312136   1.000000
   18      -15.200340   1.000000
   19       -9.475955   1.000000
   20       -9.244533   1.000000
   21       -9.058240   1.000000
   22       -8.885537   1.000000
   23       -8.755351   1.000000
   24       -8.677123   1.000000
   25       -8.588104   1.000000
   26       -8.550884   1.000000
   27       -8.520957   1.000000
   28       -8.427515   1.000000
   29       -8.328656   1.000000
   30       -8.256180   1.000000
   31       -8.208084   1.000000
   32       -8.071808   1.000000
   33       -8.000360   1.000000
   34       -7.925102   1.000000
   35       -7.827845   1.000000
   36       -7.778267   1.000000
   37       -7.699923   1.000000
   38       -7.556075   1.000000
   39       -7.473831   1.000000
   40       -7.391056   1.000000
   41       -7.338726   1.000000
   42       -7.253737   1.000000
   43       -7.156714   1.000000
   44       -6.924334   1.000000
   45       -6.886984   1.000000
   46       -6.815148   1.000000
   47       -6.794521   1.000000
   48       -6.613897   1.000000
   49       -6.561338   1.000000
   50       -6.465187   1.000000
   51       -6.434093   1.000000
   52       -6.350973   1.000000
   53       -6.287990   1.000000
   54       -6.233824   1.000000
   55       -6.206188   1.000000
   56       -6.123916   1.000000
   57       -6.047402   1.000000
   58       -5.884634   1.000000
   59       -5.698140   1.000000
   60       -5.627614   1.000000
   61       -5.459508   1.000000
   62       -5.386143   1.000000
   63       -5.343639   1.000000
   64       -5.217476   1.000000
   65       -5.111352   1.000000
   66       -5.002876   1.000000
   67       -4.928195   1.000000
   68       -4.853485   1.000000
   69       -4.728388   1.000000
   70       -4.682642   1.000000
   71       -4.574162   1.000000
   72       -4.517522   1.000000
   73       -4.433814   1.000000
   74       -4.262477   1.000000
   75       -3.956523   0.999997
   76       -3.865303   0.999942
   77       -3.786099   0.999508
   78       -3.709408   0.997043
   79       -3.651805   0.990492
   80       -3.332880   0.535889
   81       -3.180718   0.162100
   82       -2.786292   0.000080
   83       -2.723852   0.000012
   84       -2.639430   0.000001
   85       -2.549469   0.000000
   86       -2.439919   0.000000
   87       -2.297879   0.000000
   88       -2.214663   0.000000
   89       -2.188557   0.000000
   90       -2.108209   0.000000
   91       -1.930633   0.000000
   92       -1.787876   0.000000
   93       -1.382397   0.000000
   94       -1.215661   0.000000
   95       -1.147482   0.000000
   96       -1.058920   0.000000
   97       -0.953031   0.000000
   98       -0.859391   0.000000
   99       -0.762905   0.000000
  100       -0.687291   0.000000
  101       -0.590867   0.000000
  102       -0.528463   0.000000
  103       -0.462630   0.000000
  104       -0.334799   0.000000
  105       -0.209712   0.000000
  106       -0.135703   0.000000
  107       -0.059118   0.000000
  108        0.148518   0.000000
  109        0.255082   0.000000
  110        0.303865   0.000000
  111        0.372118   0.000000
  112        0.480638   0.000000
  113        0.599337   0.000000
  114        0.836872   0.000000
  115        0.954878   0.000000
  116        1.036357   0.000000
  117        1.118238   0.000000
  118        1.682244   0.000000
  119        1.881438   0.000000
  120        2.191524   0.000000
 
  0.2500000E+00  0.5551115E-16  0.0000000E+00  0.3125000E-01
    1      -17.728715   1.000000
    2      -17.035506   1.000000
    3      -16.694558   1.000000
    4      -16.636532   1.000000
    5      -16.581554   1.000000
    6      -16.431032   1.000000
    7      -16.345343   1.000000
    8      -16.288038   1.000000
    9      -16.182078   1.000000
   10      -16.063733   1.000000
   11      -16.004558   1.000000
   12      -15.846446   1.000000
   13      -15.786667   1.000000
   14      -15.689228   1.000000
   15      -15.620687   1.000000
   16      -15.489470   1.000000
   17      -15.331206   1.000000
   18      -15.215139   1.000000
   19       -9.569809   1.000000
   20       -9.360352   1.000000
   21       -9.202810   1.000000
   22       -9.025870   1.000000
   23       -8.805930   1.000000
   24       -8.743273   1.000000
   25       -8.587550   1.000000
   26       -8.548283   1.000000
   27       -8.503563   1.000000
   28       -8.412096   1.000000
   29       -8.279216   1.000000
   30       -8.147931   1.000000
   31       -8.098516   1.000000
   32       -8.032395   1.000000
   33       -7.996555   1.000000
   34       -7.860239   1.000000
   35       -7.748058   1.000000
   36       -7.661103   1.000000
   37       -7.570810   1.000000
   38       -7.465683   1.000000
   39       -7.439569   1.000000
   40       -7.355088   1.000000
   41       -7.311758   1.000000
   42       -7.229782   1.000000
   43       -7.111962   1.000000
   44       -7.040200   1.000000
   45       -6.896426   1.000000
   46       -6.876549   1.000000
   47       -6.764787   1.000000
   48       -6.609057   1.000000
   49       -6.551879   1.000000
   50       -6.490488   1.000000
   51       -6.452360   1.000000
   52       -6.337942   1.000000
   53       -6.249759   1.000000
   54       -6.185860   1.000000
   55       -6.128419   1.000000
   56       -6.085074   1.000000
   57       -6.048200   1.000000
   58       -5.860030   1.000000
   59       -5.713761   1.000000
   60       -5.667120   1.000000
   61       -5.607499   1.000000
   62       -5.511554   1.000000
   63       -5.416202   1.000000
   64       -5.354538   1.000000
   65       -5.194435   1.000000
   66       -5.031748   1.000000
   67       -4.965608   1.000000
   68       -4.821436   1.000000
   69       -4.770761   1.000000
   70       -4.655383   1.000000
   71       -4.454331   1.000000
   72       -4.409991   1.000000
   73       -4.329203   1.000000
   74       -4.198793   1.000000
   75       -4.135136   1.000000
   76       -3.968280   0.999998
   77       -3.820092   0.999796
   78       -3.714042   0.997326
   79       -3.589216   0.971457
   80       -3.245578   0.299014
   81       -3.113769   0.072245
   82       -2.815622   0.000180
   83       -2.732924   0.000016
   84       -2.681268   0.000003
   85       -2.516160   0.000000
   86       -2.437233   0.000000
   87       -2.315188   0.000000
   88       -2.185250   0.000000
   89       -2.075540   0.000000
   90       -2.047016   0.000000
   91       -1.962559   0.000000
   92       -1.781315   0.000000
   93       -1.325959   0.000000
   94       -1.265165   0.000000
   95       -1.160342   0.000000
   96       -1.042755   0.000000
   97       -0.933890   0.000000
   98       -0.836063   0.000000
   99       -0.811386   0.000000
  100       -0.786088   0.000000
  101       -0.673328   0.000000
  102       -0.591835   0.000000
  103       -0.550478   0.000000
  104       -0.450596   0.000000
  105       -0.317321   0.000000
  106       -0.276200   0.000000
  107       -0.149432   0.000000
  108        0.074221   0.000000
  109        0.166045   0.000000
  110        0.287999   0.000000
  111        0.364545   0.000000
  112        0.402137   0.000000
  113        0.624769   0.000000
  114        0.901164   0.000000
  115        1.100041   0.000000
  116        1.162417   0.000000
  117        1.262569   0.000000
  118        1.804118   0.000000
  119        1.994164   0.000000
  120        2.295985   0.000000
 
  0.3750000E+00  0.0000000E+00  0.0000000E+00  0.3125000E-01
    1      -17.609859   1.000000
    2      -17.242651   1.000000
    3      -16.706424   1.000000
    4      -16.649015   1.000000
    5      -16.619025   1.000000
    6      -16.461902   1.000000
    7      -16.286336   1.000000
    8      -16.249706   1.000000
    9      -16.192854   1.000000
   10      -16.054222   1.000000
   11      -15.940993   1.000000
   12      -15.827656   1.000000
   13      -15.742570   1.000000
   14      -15.687905   1.000000
   15      -15.580536   1.000000
   16      -15.508659   1.000000
   17      -15.353747   1.000000
   18      -15.226382   1.000000
   19       -9.763181   1.000000
   20       -9.344864   1.000000
   21       -9.289485   1.000000
   22       -9.070517   1.000000
   23       -8.862240   1.000000
   24       -8.807903   1.000000
   25       -8.629782   1.000000
   26       -8.561708   1.000000
   27       -8.477610   1.000000
   28       -8.316896   1.000000
   29       -8.242337   1.000000
   30       -8.155379   1.000000
   31       -8.069415   1.000000
   32       -7.985396   1.000000
   33       -7.929635   1.000000
   34       -7.874556   1.000000
   35       -7.740399   1.000000
   36       -7.623242   1.000000
   37       -7.556716   1.000000
   38       -7.451977   1.000000
   39       -7.425528   1.000000
   40       -7.282832   1.000000
   41       -7.227734   1.000000
   42       -7.099083   1.000000
   43       -7.053722   1.000000
   44       -6.961619   1.000000
   45       -6.911256   1.000000
   46       -6.811722   1.000000
   47       -6.717360   1.000000
   48       -6.658145   1.000000
   49       -6.536802   1.000000
   50       -6.452414   1.000000
   51       -6.401489   1.000000
   52       -6.327749   1.000000
   53       -6.205059   1.000000
   54       -6.144995   1.000000
   55       -6.115997   1.000000
   56       -6.080883   1.000000
   57       -6.008404   1.000000
   58       -5.935752   1.000000
   59       -5.892425   1.000000
   60       -5.766146   1.000000
   61       -5.710528   1.000000
   62       -5.563432   1.000000
   63       -5.533990   1.000000
   64       -5.353066   1.000000
   65       -5.280701   1.000000
   66       -5.062499   1.000000
   67       -4.961469   1.000000
   68       -4.812166   1.000000
   69       -4.729864   1.000000
   70       -4.639933   1.000000
   71       -4.587964   1.000000
   72       -4.350667   1.000000
   73       -4.299849   1.000000
   74       -4.241728   1.000000
   75       -4.108582   1.000000
   76       -4.025115   1.000000
   77       -3.819804   0.999795
   78       -3.650722   0.990295
   79       -3.476697   0.865858
   80       -3.188043   0.175134
   81       -3.047272   0.026836
   82       -2.862218   0.000602
   83       -2.771858   0.000053
   84       -2.694539   0.000005
   85       -2.530729   0.000000
   86       -2.445313   0.000000
   87       -2.272030   0.000000
   88       -2.148523   0.000000
   89       -2.027185   0.000000
   90       -1.975135   0.000000
   91       -1.943840   0.000000
   92       -1.784446   0.000000
   93       -1.331263   0.000000
   94       -1.264724   0.000000
   95       -1.161231   0.000000
   96       -1.047794   0.000000
   97       -0.949215   0.000000
   98       -0.914340   0.000000
   99       -0.868782   0.000000
  100       -0.796810   0.000000
  101       -0.735810   0.000000
  102       -0.675582   0.000000
  103       -0.614185   0.000000
  104       -0.504720   0.000000
  105       -0.435528   0.000000
  106       -0.399990   0.000000
  107       -0.204090   0.000000
  108       -0.047712   0.000000
  109        0.095929   0.000000
  110        0.224030   0.000000
  111        0.359901   0.000000
  112        0.428668   0.000000
  113        0.647684   0.000000
  114        0.947267   0.000000
  115        1.214180   0.000000
  116        1.248915   0.000000
  117        1.407043   0.000000
  118        1.989395   0.000000
  119        2.170378   0.000000
  120        2.466811   0.000000
 
  0.5000000E+00  0.1110223E-15  0.0000000E+00  0.1562500E-01
    1      -17.486903   1.000000
    2      -17.397012   1.000000
    3      -16.716869   1.000000
    4      -16.648108   1.000000
    5      -16.629400   1.000000
    6      -16.476001   1.000000
    7      -16.271059   1.000000
    8      -16.228358   1.000000
    9      -16.197364   1.000000
   10      -16.055585   1.000000
   11      -15.893944   1.000000
   12      -15.835663   1.000000
   13      -15.714206   1.000000
   14      -15.697916   1.000000
   15      -15.597016   1.000000
   16      -15.486830   1.000000
   17      -15.366630   1.000000
   18      -15.228917   1.000000
   19       -9.837311   1.000000
   20       -9.367441   1.000000
   21       -9.305553   1.000000
   22       -9.021222   1.000000
   23       -8.902438   1.000000
   24       -8.839267   1.000000
   25       -8.695487   1.000000
   26       -8.569672   1.000000
   27       -8.424990   1.000000
   28       -8.271520   1.000000
   29       -8.228524   1.000000
   30       -8.149122   1.000000
   31       -8.046883   1.000000
   32       -7.973325   1.000000
   33       -7.927559   1.000000
   34       -7.876963   1.000000
   35       -7.756346   1.000000
   36       -7.664417   1.000000
   37       -7.613228   1.000000
   38       -7.445376   1.000000
   39       -7.436480   1.000000
   40       -7.284597   1.000000
   41       -7.049478   1.000000
   42       -7.008884   1.000000
   43       -6.995749   1.000000
   44       -6.923580   1.000000
   45       -6.865656   1.000000
   46       -6.820229   1.000000
   47       -6.669377   1.000000
   48       -6.631059   1.000000
   49       -6.547577   1.000000
   50       -6.516620   1.000000
   51       -6.425398   1.000000
   52       -6.345313   1.000000
   53       -6.228428   1.000000
   54       -6.198451   1.000000
   55       -6.142429   1.000000
   56       -6.061076   1.000000
   57       -5.966392   1.000000
   58       -5.887204   1.000000
   59       -5.867814   1.000000
   60       -5.780653   1.000000
   61       -5.717466   1.000000
   62       -5.558426   1.000000
   63       -5.536917   1.000000
   64       -5.463431   1.000000
   65       -5.359772   1.000000
   66       -5.114445   1.000000
   67       -5.045980   1.000000
   68       -4.840400   1.000000
   69       -4.699296   1.000000
   70       -4.628759   1.000000
   71       -4.474852   1.000000
   72       -4.453969   1.000000
   73       -4.315143   1.000000
   74       -4.241743   1.000000
   75       -4.099925   1.000000
   76       -3.949231   0.999996
   77       -3.834174   0.999861
   78       -3.641934   0.988560
   79       -3.421898   0.764093
   80       -3.175101   0.152544
   81       -2.972068   0.006923
   82       -2.923756   0.002533
   83       -2.786068   0.000080
   84       -2.703372   0.000006
   85       -2.543692   0.000000
   86       -2.445295   0.000000
   87       -2.248736   0.000000
   88       -2.125368   0.000000
   89       -2.043640   0.000000
   90       -1.958499   0.000000
   91       -1.883103   0.000000
   92       -1.792471   0.000000
   93       -1.355745   0.000000
   94       -1.253685   0.000000
   95       -1.150416   0.000000
   96       -1.053372   0.000000
   97       -0.996724   0.000000
   98       -0.917989   0.000000
   99       -0.891947   0.000000
  100       -0.828953   0.000000
  101       -0.756154   0.000000
  102       -0.697982   0.000000
  103       -0.632261   0.000000
  104       -0.550805   0.000000
  105       -0.477741   0.000000
  106       -0.419107   0.000000
  107       -0.225496   0.000000
  108       -0.096094   0.000000
  109        0.075721   0.000000
  110        0.195456   0.000000
  111        0.355838   0.000000
  112        0.439717   0.000000
  113        0.658716   0.000000
  114        0.966559   0.000000
  115        1.254356   0.000000
  116        1.279605   0.000000
  117        1.460393   0.000000
  118        2.219056   0.000000
  119        2.233276   0.000000
  120        2.395247   0.000000
 
  0.0000000E+00  0.1250000E+00  0.0000000E+00  0.3125000E-01
    1      -17.804024   1.000000
    2      -16.815124   1.000000
    3      -16.702799   1.000000
    4      -16.636695   1.000000
    5      -16.518435   1.000000
    6      -16.436616   1.000000
    7      -16.403989   1.000000
    8      -16.335981   1.000000
    9      -16.136396   1.000000
   10      -16.081015   1.000000
   11      -16.025471   1.000000
   12      -15.913829   1.000000
   13      -15.860310   1.000000
   14      -15.731145   1.000000
   15      -15.627604   1.000000
   16      -15.461978   1.000000
   17      -15.311296   1.000000
   18      -15.197674   1.000000
   19       -9.488040   1.000000
   20       -9.232208   1.000000
   21       -9.033898   1.000000
   22       -8.872908   1.000000
   23       -8.771153   1.000000
   24       -8.682016   1.000000
   25       -8.615298   1.000000
   26       -8.578888   1.000000
   27       -8.481541   1.000000
   28       -8.441802   1.000000
   29       -8.338445   1.000000
   30       -8.247283   1.000000
   31       -8.158199   1.000000
   32       -8.088289   1.000000
   33       -8.027332   1.000000
   34       -7.927044   1.000000
   35       -7.819433   1.000000
   36       -7.759617   1.000000
   37       -7.674958   1.000000
   38       -7.540536   1.000000
   39       -7.524958   1.000000
   40       -7.433144   1.000000
   41       -7.339972   1.000000
   42       -7.195721   1.000000
   43       -7.158074   1.000000
   44       -6.965884   1.000000
   45       -6.894059   1.000000
   46       -6.826447   1.000000
   47       -6.706168   1.000000
   48       -6.614459   1.000000
   49       -6.587186   1.000000
   50       -6.479013   1.000000
   51       -6.431704   1.000000
   52       -6.370803   1.000000
   53       -6.287371   1.000000
   54       -6.256477   1.000000
   55       -6.185214   1.000000
   56       -6.118115   1.000000
   57       -6.050104   1.000000
   58       -5.894131   1.000000
   59       -5.739961   1.000000
   60       -5.579338   1.000000
   61       -5.461779   1.000000
   62       -5.374627   1.000000
   63       -5.309206   1.000000
   64       -5.256014   1.000000
   65       -5.127402   1.000000
   66       -4.979984   1.000000
   67       -4.948064   1.000000
   68       -4.834269   1.000000
   69       -4.754314   1.000000
   70       -4.670793   1.000000
   71       -4.595661   1.000000
   72       -4.487920   1.000000
   73       -4.411621   1.000000
   74       -4.223015   1.000000
   75       -4.001308   0.999999
   76       -3.875380   0.999957
   77       -3.846870   0.999902
   78       -3.690099   0.995552
   79       -3.564104   0.957743
   80       -3.416391   0.751935
   81       -3.182078   0.164470
   82       -2.761826   0.000039
   83       -2.695091   0.000005
   84       -2.606176   0.000000
   85       -2.566649   0.000000
   86       -2.446013   0.000000
   87       -2.259186   0.000000
   88       -2.241718   0.000000
   89       -2.196733   0.000000
   90       -2.133605   0.000000
   91       -1.916723   0.000000
   92       -1.786897   0.000000
   93       -1.383341   0.000000
   94       -1.224633   0.000000
   95       -1.132418   0.000000
   96       -1.057512   0.000000
   97       -0.972735   0.000000
   98       -0.881090   0.000000
   99       -0.768327   0.000000
  100       -0.672273   0.000000
  101       -0.591504   0.000000
  102       -0.552092   0.000000
  103       -0.485636   0.000000
  104       -0.312459   0.000000
  105       -0.215732   0.000000
  106       -0.146970   0.000000
  107        0.004503   0.000000
  108        0.148505   0.000000
  109        0.223683   0.000000
  110        0.302094   0.000000
  111        0.365799   0.000000
  112        0.504487   0.000000
  113        0.608569   0.000000
  114        0.831369   0.000000
  115        0.952503   0.000000
  116        1.019321   0.000000
  117        1.131265   0.000000
  118        1.682354   0.000000
  119        1.881795   0.000000
  120        2.191312   0.000000
 
  0.1250000E+00  0.1250000E+00  0.0000000E+00  0.3125000E-01
    1      -17.753775   1.000000
    2      -16.971100   1.000000
    3      -16.713656   1.000000
    4      -16.653977   1.000000
    5      -16.526224   1.000000
    6      -16.432538   1.000000
    7      -16.357273   1.000000
    8      -16.308882   1.000000
    9      -16.162326   1.000000
   10      -16.076674   1.000000
   11      -16.002772   1.000000
   12      -15.861671   1.000000
   13      -15.814175   1.000000
   14      -15.702480   1.000000
   15      -15.624979   1.000000
   16      -15.488994   1.000000
   17      -15.315680   1.000000
   18      -15.212739   1.000000
   19       -9.529839   1.000000
   20       -9.329087   1.000000
   21       -9.207454   1.000000
   22       -8.978405   1.000000
   23       -8.789158   1.000000
   24       -8.670114   1.000000
   25       -8.627417   1.000000
   26       -8.528969   1.000000
   27       -8.456882   1.000000
   28       -8.388539   1.000000
   29       -8.326918   1.000000
   30       -8.252871   1.000000
   31       -8.115912   1.000000
   32       -8.106204   1.000000
   33       -7.960127   1.000000
   34       -7.867042   1.000000
   35       -7.755459   1.000000
   36       -7.686445   1.000000
   37       -7.593604   1.000000
   38       -7.483456   1.000000
   39       -7.422069   1.000000
   40       -7.403405   1.000000
   41       -7.283327   1.000000
   42       -7.219318   1.000000
   43       -7.126771   1.000000
   44       -7.071178   1.000000
   45       -6.944273   1.000000
   46       -6.865115   1.000000
   47       -6.735274   1.000000
   48       -6.611054   1.000000
   49       -6.591431   1.000000
   50       -6.452152   1.000000
   51       -6.436540   1.000000
   52       -6.376450   1.000000
   53       -6.278863   1.000000
   54       -6.208081   1.000000
   55       -6.145470   1.000000
   56       -6.115554   1.000000
   57       -6.000293   1.000000
   58       -5.878033   1.000000
   59       -5.707099   1.000000
   60       -5.588341   1.000000
   61       -5.556000   1.000000
   62       -5.485377   1.000000
   63       -5.401949   1.000000
   64       -5.301210   1.000000
   65       -5.165747   1.000000
   66       -5.088847   1.000000
   67       -4.960390   1.000000
   68       -4.838821   1.000000
   69       -4.742028   1.000000
   70       -4.634479   1.000000
   71       -4.557112   1.000000
   72       -4.396214   1.000000
   73       -4.325408   1.000000
   74       -4.169492   1.000000
   75       -4.069219   1.000000
   76       -3.906833   0.999983
   77       -3.851780   0.999915
   78       -3.771403   0.999291
   79       -3.623394   0.983997
   80       -3.277975   0.382792
   81       -3.171211   0.146150
   82       -2.788335   0.000085
   83       -2.688875   0.000004
   84       -2.624029   0.000000
   85       -2.526742   0.000000
   86       -2.448658   0.000000
   87       -2.289627   0.000000
   88       -2.209885   0.000000
   89       -2.151768   0.000000
   90       -2.068053   0.000000
   91       -1.942109   0.000000
   92       -1.784428   0.000000
   93       -1.336625   0.000000
   94       -1.267925   0.000000
   95       -1.146383   0.000000
   96       -1.026490   0.000000
   97       -0.950342   0.000000
   98       -0.867035   0.000000
   99       -0.815942   0.000000
  100       -0.711613   0.000000
  101       -0.677527   0.000000
  102       -0.586201   0.000000
  103       -0.545809   0.000000
  104       -0.405155   0.000000
  105       -0.285139   0.000000
  106       -0.222707   0.000000
  107       -0.091734   0.000000
  108        0.082870   0.000000
  109        0.187927   0.000000
  110        0.276546   0.000000
  111        0.328668   0.000000
  112        0.433749   0.000000
  113        0.619442   0.000000
  114        0.901082   0.000000
  115        1.048881   0.000000
  116        1.134512   0.000000
  117        1.252813   0.000000
  118        1.764784   0.000000
  119        1.958017   0.000000
  120        2.261161   0.000000
 
  0.2500000E+00  0.1250000E+00  0.0000000E+00  0.3125000E-01
    1      -17.656788   1.000000
    2      -17.151653   1.000000
    3      -16.803849   1.000000
    4      -16.656706   1.000000
    5      -16.501415   1.000000
    6      -16.436017   1.000000
    7      -16.307566   1.000000
    8      -16.270741   1.000000
    9      -16.181816   1.000000
   10      -16.074094   1.000000
   11      -15.960430   1.000000
   12      -15.826142   1.000000
   13      -15.776725   1.000000
   14      -15.691453   1.000000
   15      -15.581507   1.000000
   16      -15.514290   1.000000
   17      -15.331659   1.000000
   18      -15.227105   1.000000
   19       -9.689363   1.000000
   20       -9.394461   1.000000
   21       -9.286531   1.000000
   22       -9.104206   1.000000
   23       -8.768647   1.000000
   24       -8.717001   1.000000
   25       -8.594105   1.000000
   26       -8.511829   1.000000
   27       -8.477482   1.000000
   28       -8.351749   1.000000
   29       -8.279467   1.000000
   30       -8.169772   1.000000
   31       -8.126782   1.000000
   32       -8.044941   1.000000
   33       -7.962654   1.000000
   34       -7.898637   1.000000
   35       -7.797198   1.000000
   36       -7.602642   1.000000
   37       -7.494746   1.000000
   38       -7.427053   1.000000
   39       -7.358856   1.000000
   40       -7.297388   1.000000
   41       -7.270438   1.000000
   42       -7.135883   1.000000
   43       -7.092573   1.000000
   44       -7.023378   1.000000
   45       -6.924426   1.000000
   46       -6.878929   1.000000
   47       -6.690013   1.000000