       N       E                     dE             d eps       ncg     rms          rms(c)
DAV:   1     0.112398306343E+04    0.11240E+04   -0.35870E+04  8160   0.577E+02
DAV:   2    -0.193854295857E+01   -0.11259E+04   -0.10844E+04 10960   0.173E+02
DAV:   3    -0.199686088945E+03   -0.19775E+03   -0.18945E+03 10880   0.821E+01
DAV:   4    -0.209063023913E+03   -0.93769E+01   -0.90889E+01 12160   0.263E+01
DAV:   5    -0.209393660112E+03   -0.33064E+00   -0.32970E+00 11440   0.360E+00    0.275E+01
DAV:   6    -0.237095107966E+03   -0.27701E+02   -0.11222E+02 12440   0.603E+01    0.597E+01
DAV:   7    -0.196369736338E+03    0.40725E+02   -0.17995E+02 13520   0.151E+02    0.197E+01
DAV:   8    -0.189120903643E+03    0.72488E+01   -0.15959E+01 11920   0.124E+01    0.119E+01
DAV:   9    -0.187442628448E+03    0.16783E+01   -0.27478E+00 13560   0.860E+00    0.610E+00
DAV:  10    -0.186969233241E+03    0.47340E+00   -0.11802E+00 13440   0.425E+00    0.239E+00
DAV:  11    -0.186975373452E+03   -0.61402E-02   -0.46328E-01 12640   0.213E+00    0.290E+00
DAV:  12    -0.186918717635E+03    0.56656E-01   -0.37977E-01 13240   0.287E+00    0.269E+00
DAV:  13    -0.186861751965E+03    0.56966E-01   -0.17694E-01 12880   0.253E+00    0.150E+00
DAV:  14    -0.186846894177E+03    0.14858E-01   -0.80166E-02 12840   0.147E+00    0.898E-01
DAV:  15    -0.186837756497E+03    0.91377E-02   -0.17306E-02 11960   0.511E-01    0.587E-01
DAV:  16    -0.186837305982E+03    0.45051E-03   -0.93819E-03 13160   0.548E-01    0.582E-01
DAV:  17    -0.186834738934E+03    0.25670E-02   -0.95269E-03 12440   0.546E-01    0.325E-01
DAV:  18    -0.186833681520E+03    0.10574E-02   -0.19460E-03 12600   0.225E-01    0.549E-02
DAV:  19    -0.186834244782E+03   -0.56326E-03   -0.82324E-04 10640   0.729E-02    0.997E-02
DAV:  20    -0.186834643010E+03   -0.39823E-03   -0.58573E-04  9640   0.626E-02    0.671E-02
DAV:  21    -0.186835513899E+03   -0.87089E-03   -0.26192E-04  7720   0.609E-02    0.290E-02
DAV:  22    -0.186836225083E+03   -0.71118E-03   -0.92768E-05  6440   0.338E-02    0.348E-02
DAV:  23    -0.186837455534E+03   -0.12305E-02   -0.15964E-04  7480   0.415E-02    0.969E-03
DAV:  24    -0.186838006799E+03   -0.55126E-03   -0.23702E-05  6720   0.118E-02    0.790E-03
DAV:  25    -0.186838426902E+03   -0.42010E-03   -0.15173E-05  5520   0.128E-02    0.587E-03
DAV:  26    -0.186838646109E+03   -0.21921E-03   -0.90670E-06  6760   0.729E-03    0.227E-03
DAV:  27    -0.186838750561E+03   -0.10445E-03   -0.41321E-06  6920   0.405E-03    0.109E-03
DAV:  28    -0.186838788062E+03   -0.37501E-04   -0.17808E-06  7400   0.272E-03
   1 F= -.18683879E+03 E0= -.18666559E+03  d E =-.186839E+03
       N       E                     dE             d eps       ncg     rms          rms(c)
DAV:   1    -0.187434647770E+03   -0.59590E+00   -0.26825E+02  8160   0.347E+01    0.456E+00
DAV:   2    -0.189157601012E+03   -0.17230E+01   -0.19763E+01 12240   0.146E+01    0.728E+00
DAV:   3    -0.189354613642E+03   -0.19701E+00   -0.33418E+00 12440   0.114E+01    0.715E+00
DAV:   4    -0.188722856462E+03    0.63176E+00   -0.73618E-01 12600   0.505E+00    0.220E+00
DAV:   5    -0.188705181921E+03    0.17675E-01   -0.29768E-01 10960   0.196E+00    0.257E+00
DAV:   6    -0.188756839707E+03   -0.51658E-01   -0.45345E-01 12640   0.393E+00    0.416E+00
DAV:   7    -0.188620136031E+03    0.13670E+00   -0.32708E-01 12720   0.337E+00    0.107E+00
DAV:   8    -0.188614804048E+03    0.53320E-02   -0.58802E-02 12600   0.122E+00    0.114E+00
DAV:   9    -0.188603661869E+03    0.11142E-01   -0.23672E-02 12720   0.910E-01    0.382E-01
DAV:  10    -0.188602831921E+03    0.82995E-03   -0.48625E-03 11760   0.284E-01    0.212E-01
DAV:  11    -0.188602166284E+03    0.66564E-03   -0.26096E-03 12240   0.151E-01    0.792E-02
DAV:  12    -0.188602296269E+03   -0.12999E-03   -0.83088E-04 11040   0.856E-02    0.635E-02
DAV:  13    -0.188602276676E+03    0.19593E-04   -0.22194E-04  8040   0.494E-02
   2 F= -.18860228E+03 E0= -.18845489E+03  d E =-.176349E+01
       N       E                     dE             d eps       ncg     rms          rms(c)
DAV:   1    -0.190504716234E+03   -0.19024E+01   -0.30378E+01  9360   0.141E+01    0.449E+00
DAV:   2    -0.190569414476E+03   -0.64698E-01   -0.29388E+00 11120   0.100E+01    0.791E+00
DAV:   3    -0.189970605264E+03    0.59881E+00   -0.13755E+00 12360   0.870E+00    0.409E+00
DAV:   4    -0.189769191213E+03    0.20141E+00   -0.67229E-01 12720   0.377E+00    0.250E+00
DAV:   5    -0.189707784002E+03    0.61407E-01   -0.32595E-01 12240   0.237E+00    0.191E+00
DAV:   6    -0.189671956812E+03    0.35827E-01   -0.87012E-02 12200   0.189E+00    0.791E-01
DAV:   7    -0.189665704375E+03    0.62524E-02   -0.13954E-02 12120   0.603E-01    0.180E-01
DAV:   8    -0.189665820288E+03   -0.11591E-03   -0.23197E-03 10960   0.168E-01    0.137E-01
DAV:   9    -0.189666189326E+03   -0.36904E-03   -0.12793E-03 10600   0.180E-01    0.199E-01
DAV:  10    -0.189666348964E+03   -0.15964E-03   -0.15371E-03 10480   0.270E-01    0.216E-01
DAV:  11    -0.189665873226E+03    0.47574E-03   -0.76218E-04  9360   0.164E-01    0.285E-02
DAV:  12    -0.189665893867E+03   -0.20641E-04   -0.80574E-05  6240   0.335E-02
   3 F= -.18966589E+03 E0= -.18954099E+03  d E =-.106362E+01
       N       E                     dE             d eps       ncg     rms          rms(c)
DAV:   1    -0.191175975498E+03   -0.15101E+01   -0.63703E+01  8160   0.184E+01    0.467E+00
DAV:   2    -0.191129407169E+03    0.46568E-01   -0.53756E+00 13440   0.894E+00    0.597E+00
DAV:   3    -0.191024973547E+03    0.10443E+00   -0.16250E+00 12240   0.936E+00    0.587E+00
DAV:   4    -0.190660802960E+03    0.36417E+00   -0.10132E+00 13200   0.613E+00    0.238E+00
DAV:   5    -0.190605407531E+03    0.55395E-01   -0.30426E-01 12240   0.288E+00    0.210E+00
DAV:   6    -0.190565663599E+03    0.39744E-01   -0.12234E-01 12440   0.248E+00    0.965E-01
DAV:   7    -0.190561092082E+03    0.45715E-02   -0.25285E-02 12240   0.926E-01    0.451E-01
DAV:   8    -0.190557390835E+03    0.37012E-02   -0.64779E-03 10600   0.296E-01    0.152E-01
DAV:   9    -0.190558109491E+03   -0.71866E-03   -0.19777E-03 11520   0.270E-01    0.267E-01
DAV:  10    -0.190557688985E+03    0.42051E-03   -0.18116E-03 10800   0.298E-01    0.124E-01
DAV:  11    -0.190557529536E+03    0.15945E-03   -0.43119E-04  8840   0.110E-01    0.460E-02
DAV:  12    -0.190557524047E+03    0.54882E-05   -0.96369E-05  7240   0.490E-02
   4 F= -.19055752E+03 E0= -.19045480E+03  d E =-.891630E+00
       N       E                     dE             d eps       ncg     rms          rms(c)
DAV:   1    -0.191981473091E+03   -0.14239E+01   -0.12853E+02  8160   0.258E+01    0.590E+00
DAV:   2    -0.191668399151E+03    0.31307E+00   -0.94322E+00 12960   0.903E+00    0.482E+00
DAV:   3    -0.191985683593E+03   -0.31728E+00   -0.22296E+00 12160   0.111E+01    0.867E+00
DAV:   4    -0.191344439428E+03    0.64124E+00   -0.23049E+00 12200   0.111E+01    0.360E+00
DAV:   5    -0.191295656243E+03    0.48783E-01   -0.68429E-01 12200   0.571E+00    0.349E+00
DAV:   6    -0.191123806238E+03    0.17185E+00   -0.25034E-01 12120   0.380E+00    0.782E-01
DAV:   7    -0.191122190323E+03    0.16159E-02   -0.31228E-02 12280   0.883E-01    0.437E-01
DAV:   8    -0.191118967241E+03    0.32231E-02   -0.66083E-03 10800   0.333E-01    0.207E-01
DAV:   9    -0.191120279793E+03   -0.13126E-02   -0.38153E-03 12080   0.419E-01    0.371E-01
DAV:  10    -0.191119212495E+03    0.10673E-02   -0.33295E-03 11760   0.395E-01    0.117E-01
DAV:  11    -0.191119101188E+03    0.11131E-03   -0.55805E-04 10160   0.105E-01    0.628E-02
DAV:  12    -0.191119054502E+03    0.46686E-04   -0.11883E-04  7560   0.607E-02
   5 F= -.19111905E+03 E0= -.19103397E+03  d E =-.561530E+00
       N       E                     dE             d eps       ncg     rms          rms(c)
DAV:   1    -0.191166350737E+03   -0.47250E-01   -0.51525E+00  8160   0.482E+00    0.669E-01
DAV:   2    -0.191197776723E+03   -0.31426E-01   -0.19412E-01 13440   0.189E+00    0.154E+00
DAV:   3    -0.191172936151E+03    0.24841E-01   -0.70591E-02 12480   0.202E+00    0.636E-01
DAV:   4    -0.191169653068E+03    0.32831E-02   -0.12773E-02 10680   0.669E-01    0.423E-01
DAV:   5    -0.191168843216E+03    0.80985E-03   -0.80011E-03 11640   0.675E-01    0.398E-01
DAV:   6    -0.191167400486E+03    0.14427E-02   -0.40139E-03 11720   0.417E-01    0.151E-01
DAV:   7    -0.191167124440E+03    0.27605E-03   -0.13923E-03 10560   0.145E-01    0.626E-02
DAV:   8    -0.191167074925E+03    0.49515E-04   -0.21245E-04  7000   0.577E-02
   6 F= -.19116707E+03 E0= -.19108014E+03  d E =-.480204E-01
       N       E                     dE             d eps       ncg     rms          rms(c)
DAV:   1    -0.191202446814E+03   -0.35322E-01   -0.35820E+00  8160   0.396E+00    0.527E-01
DAV:   2    -0.191242481552E+03   -0.40035E-01   -0.14391E-01 13600   0.243E+00    0.178E+00
DAV:   3    -0.191206167607E+03    0.36314E-01   -0.59431E-02 12600   0.191E+00    0.281E-01
DAV:   4    -0.191205926249E+03    0.24136E-03   -0.48899E-03 11600   0.336E-01    0.264E-01
DAV:   5    -0.191205639023E+03    0.28723E-03   -0.31640E-03 11840   0.401E-01    0.264E-01
DAV:   6    -0.191205023176E+03    0.61585E-03   -0.16870E-03 10360   0.278E-01    0.986E-02
DAV:   7    -0.191204995575E+03    0.27600E-04   -0.53345E-04 10160   0.992E-02
   7 F= -.19120500E+03 E0= -.19111480E+03  d E =-.379207E-01
       N       E                     dE             d eps       ncg     rms          rms(c)
DAV:   1    -0.191257224795E+03   -0.52202E-01   -0.87581E+00  8160   0.618E+00    0.751E-01
DAV:   2    -0.191329969238E+03   -0.72744E-01   -0.28761E-01 13560   0.311E+00    0.239E+00
DAV:   3    -0.191266190243E+03    0.63779E-01   -0.12114E-01 12600   0.266E+00    0.469E-01
DAV:   4    -0.191264869577E+03    0.13207E-02   -0.10666E-02 11080   0.486E-01    0.379E-01
DAV:   5    -0.191264489598E+03    0.37998E-03   -0.71156E-03 12560   0.595E-01    0.411E-01
DAV:   6    -0.191263050909E+03    0.14387E-02   -0.41153E-03 11720   0.435E-01    0.161E-01
DAV:   7    -0.191262875691E+03    0.17522E-03   -0.11864E-03 10840   0.150E-01    0.665E-02
DAV:   8    -0.191262805064E+03    0.70627E-04   -0.28616E-04  8160   0.850E-02
   8 F= -.19126281E+03 E0= -.19116740E+03  d E =-.578095E-01
       N       E                     dE             d eps       ncg     rms          rms(c)
DAV:   1    -0.191247025703E+03    0.15850E-01   -0.65171E-01  8160   0.169E+00    0.205E-01
DAV:   2    -0.191252698915E+03   -0.56732E-02   -0.21742E-02 13560   0.799E-01    0.649E-01
DAV:   3    -0.191247641879E+03    0.50570E-02   -0.85154E-03 11720   0.709E-01    0.137E-01
DAV:   4    -0.191247646400E+03   -0.45206E-05   -0.11004E-03 10120   0.187E-01    0.141E-01
DAV:   5    -0.191247495564E+03    0.15084E-03   -0.67580E-04  9320   0.182E-01    0.922E-02
DAV:   6    -0.191247415420E+03    0.80144E-04   -0.23534E-04  6560   0.919E-02
   9 F= -.19124742E+03 E0= -.19115336E+03  d E =0.153896E-01
       N       E                     dE             d eps       ncg     rms          rms(c)
DAV:   1    -0.191250297450E+03   -0.28019E-02   -0.71202E-02  8160   0.563E-01    0.712E-02
DAV:   2    -0.191250830509E+03   -0.53306E-03   -0.25409E-03 13080   0.273E-01    0.215E-01
DAV:   3    -0.191250342114E+03    0.48839E-03   -0.10041E-03 10280   0.228E-01    0.568E-02
DAV:   4    -0.191250346513E+03   -0.43990E-05   -0.15384E-04  6520   0.849E-02
  10 F= -.19125035E+03 E0= -.19115590E+03  d E =-.293109E-02
       N       E                     dE             d eps       ncg     rms          rms(c)
DAV:   1    -0.191243906726E+03    0.64354E-02   -0.10112E+00  8160   0.213E+00    0.223E-01
DAV:   2    -0.191247128687E+03   -0.32220E-02   -0.27671E-02 13360   0.674E-01    0.467E-01
DAV:   3    -0.191245345389E+03    0.17833E-02   -0.74156E-03 12560   0.601E-01    0.253E-01
DAV:   4    -0.191244935048E+03    0.41034E-03   -0.17729E-03 10040   0.264E-01    0.145E-01
DAV:   5    -0.191244786314E+03    0.14873E-03   -0.10271E-03 10000   0.212E-01    0.131E-01
DAV:   6    -0.191244679001E+03    0.10731E-03   -0.54741E-04  8840   0.172E-01    0.730E-02
DAV:   7    -0.191244602549E+03    0.76452E-04   -0.15322E-04  6520   0.735E-02
  11 F= -.19124460E+03 E0= -.19115071E+03  d E =0.574396E-02
       N       E                     dE             d eps       ncg     rms          rms(c)
DAV:   1    -0.191228330600E+03    0.16348E-01   -0.12816E+01  8160   0.760E+00    0.829E-01
DAV:   2    -0.191273441405E+03   -0.45111E-01   -0.36159E-01 13360   0.243E+00    0.186E+00
DAV:   3    -0.191247357016E+03    0.26084E-01   -0.12597E-01 12280   0.235E+00    0.950E-01
DAV:   4    -0.191239265253E+03    0.80918E-02   -0.21031E-02 11960   0.837E-01    0.394E-01
DAV:   5    -0.191237875416E+03    0.13898E-02   -0.11679E-02 12640   0.581E-01    0.434E-01
DAV:   6    -0.191238007279E+03   -0.13186E-03   -0.10128E-02 12440   0.712E-01    0.433E-01
DAV:   7    -0.191235976478E+03    0.20308E-02   -0.43184E-03 11200   0.414E-01    0.113E-01
DAV:   8    -0.191236006870E+03   -0.30393E-04   -0.88025E-04 10720   0.201E-01
  12 F= -.19123601E+03 E0= -.19114224E+03  d E =0.859568E-02
       N       E                     dE             d eps       ncg     rms          rms(c)
DAV:   1    -0.191243721490E+03   -0.77450E-02   -0.79379E-01  8160   0.189E+00    0.233E-01
DAV:   2    -0.191249430296E+03   -0.57088E-02   -0.29589E-02 12320   0.890E-01    0.661E-01
DAV:   3    -0.191244838921E+03    0.45914E-02   -0.10732E-02 12120   0.739E-01    0.180E-01
DAV:   4    -0.191244975963E+03   -0.13704E-03   -0.19177E-03 10000   0.284E-01    0.219E-01
DAV:   5    -0.191244560064E+03    0.41590E-03   -0.13135E-03  9920   0.264E-01    0.112E-01
DAV:   6    -0.191244448335E+03    0.11173E-03   -0.43674E-04  7920   0.109E-01    0.515E-02
DAV:   7    -0.191244432925E+03    0.15409E-04   -0.15486E-04  6800   0.656E-02
  13 F= -.19124443E+03 E0= -.19114917E+03  d E =-.842605E-02
       N       E                     dE             d eps       ncg     rms          rms(c)
DAV:   1    -0.191274516474E+03   -0.30068E-01   -0.28194E+00  8160   0.364E+00    0.611E-01
DAV:   2    -0.191305078290E+03   -0.30562E-01   -0.14900E-01 12800   0.226E+00    0.170E+00
DAV:   3    -0.191273768120E+03    0.31310E-01   -0.61818E-02 12400   0.187E+00    0.334E-01
DAV:   4    -0.191272587974E+03    0.11801E-02   -0.72044E-03 11560   0.320E-01    0.269E-01
DAV:   5    -0.191271624684E+03    0.96329E-03   -0.46775E-03 11320   0.353E-01    0.258E-01
DAV:   6    -0.191271553164E+03    0.71520E-04   -0.39753E-03 11600   0.430E-01    0.246E-01
DAV:   7    -0.191270922805E+03    0.63036E-03   -0.13658E-03 10000   0.232E-01    0.475E-02
DAV:   8    -0.191270893939E+03    0.28866E-04   -0.12164E-04  6080   0.531E-02
  14 F= -.19127089E+03 E0= -.19117185E+03  d E =-.264610E-01
       N       E                     dE             d eps       ncg     rms          rms(c)
DAV:   1    -0.191291452322E+03   -0.20530E-01   -0.22995E+00  8160   0.321E+00    0.362E-01
DAV:   2    -0.191303882230E+03   -0.12430E-01   -0.77720E-02 12800   0.124E+00    0.897E-01
DAV:   3    -0.191295554590E+03    0.83276E-02   -0.22670E-02 12400   0.110E+00    0.314E-01
DAV:   4    -0.191295229282E+03    0.32531E-03   -0.38013E-03 11360   0.368E-01    0.287E-01
DAV:   5    -0.191294578958E+03    0.65032E-03   -0.26781E-03 10320   0.348E-01    0.172E-01
DAV:   6    -0.191294393305E+03    0.18565E-03   -0.11177E-03 10160   0.173E-01    0.897E-02
DAV:   7    -0.191294296004E+03    0.97301E-04   -0.38563E-04  9600   0.760E-02
  15 F= -.19129430E+03 E0= -.19119274E+03  d E =-.234021E-01
       N       E                     dE             d eps       ncg     rms          rms(c)
DAV:   1    -0.191297521212E+03   -0.31279E-02   -0.38114E-01  8160   0.131E+00    0.132E-01
DAV:   2    -0.191299187665E+03   -0.16665E-02   -0.10933E-02 13560   0.432E-01    0.341E-01
DAV:   3    -0.191298101945E+03    0.10857E-02   -0.36969E-03 11680   0.401E-01    0.146E-01
DAV:   4    -0.191297950451E+03    0.15149E-03   -0.63357E-04  8880   0.141E-01    0.654E-02
DAV:   5    -0.191297893835E+03    0.56616E-04   -0.20023E-04  6560   0.829E-02
  16 F= -.19129789E+03 E0= -.19119650E+03  d E =-.359783E-02
       N       E                     dE             d eps       ncg     rms          rms(c)
DAV:   1    -0.191306883599E+03   -0.89331E-02   -0.34678E+00  8160   0.404E+00    0.501E-01
DAV:   2    -0.191320784584E+03   -0.13901E-01   -0.12496E-01 11720   0.147E+00    0.105E+00
DAV:   3    -0.191312119520E+03    0.86651E-02   -0.41609E-02 12120   0.133E+00    0.532E-01
DAV:   4    -0.191310728278E+03    0.13912E-02   -0.12095E-02 12400   0.685E-01    0.447E-01
DAV:   5    -0.191309342985E+03    0.13853E-02   -0.78491E-03 10920   0.633E-01    0.345E-01
DAV:   6    -0.191308193930E+03    0.11491E-02   -0.38158E-03 11600   0.356E-01    0.134E-01
DAV:   7    -0.191307900744E+03    0.29319E-03   -0.93479E-04 10040   0.110E-01    0.373E-02
DAV:   8    -0.191307875788E+03    0.24957E-04   -0.11201E-04  7880   0.522E-02
  17 F= -.19130788E+03 E0= -.19120440E+03  d E =-.998195E-02
       N       E                     dE             d eps       ncg     rms          rms(c)
DAV:   1    -0.191314020798E+03   -0.61201E-02   -0.79632E-01  8160   0.190E+00    0.195E-01
DAV:   2    -0.191315583275E+03   -0.15625E-02   -0.21695E-02 10960   0.431E-01    0.219E-01
DAV:   3    -0.191316059544E+03   -0.47627E-03   -0.48624E-03 12440   0.457E-01    0.319E-01
DAV:   4    -0.191315119066E+03    0.94048E-03   -0.20650E-03  9920   0.304E-01    0.115E-01
DAV:   5    -0.191315096147E+03    0.22919E-04   -0.71340E-04  8760   0.195E-01
  18 F= -.19131510E+03 E0= -.19121123E+03  d E =-.722036E-02
       N       E                     dE             d eps       ncg     rms          rms(c)
DAV:   1    -0.191337788281E+03   -0.22669E-01   -0.21054E+00  8160   0.304E+00    0.345E-01
DAV:   2    -0.191350929473E+03   -0.13141E-01   -0.59914E-02 13040   0.114E+00    0.103E+00
DAV:   3    -0.191340077983E+03    0.10851E-01   -0.26764E-02 12720   0.114E+00    0.353E-01
DAV:   4    -0.191339405499E+03    0.67248E-03   -0.49997E-03 11240   0.391E-01    0.242E-01
DAV:   5    -0.191339170770E+03    0.23473E-03   -0.26221E-03 10760   0.342E-01    0.206E-01
DAV:   6    -0.191338696142E+03    0.47463E-03   -0.12509E-03 10680   0.224E-01    0.677E-02
DAV:   7    -0.191338706476E+03   -0.10334E-04   -0.25585E-04  7720   0.878E-02
  19 F= -.19133871E+03 E0= -.19123442E+03  d E =-.236103E-01
       N       E                     dE             d eps       ncg     rms          rms(c)
DAV:   1    -0.191261146215E+03    0.77550E-01   -0.23390E+01  8160   0.101E+01    0.103E+00
DAV:   2    -0.191370443282E+03   -0.10930E+00   -0.57977E-01 13200   0.354E+00    0.277E+00
DAV:   3    -0.191288997021E+03    0.81446E-01   -0.19563E-01 12480   0.317E+00    0.101E+00
DAV:   4    -0.191284598072E+03    0.43989E-02   -0.42069E-02 11680   0.123E+00    0.828E-01
DAV:   5    -0.191279855261E+03    0.47428E-02   -0.25420E-02 12000   0.110E+00    0.550E-01
DAV:   6    -0.191276585223E+03    0.32700E-02   -0.98511E-03 11720   0.612E-01    0.235E-01
DAV:   7    -0.191278243472E+03   -0.16582E-02   -0.63748E-03 12160   0.546E-01    0.467E-01
DAV:   8    -0.191275993312E+03    0.22502E-02   -0.39647E-03 10360   0.462E-01    0.764E-02
DAV:   9    -0.191275948449E+03    0.44863E-04   -0.26172E-04  7040   0.796E-02
  20 F= -.19127595E+03 E0= -.19117363E+03  d E =0.627580E-01
       N       E                     dE             d eps       ncg     rms          rms(c)
DAV:   1    -0.191256764358E+03    0.19229E-01   -0.11007E+01  8160   0.692E+00    0.662E-01
DAV:   2    -0.191293633878E+03   -0.36870E-01   -0.21732E-01 13400   0.201E+00    0.160E+00
DAV:   3    -0.191268126127E+03    0.25508E-01   -0.69506E-02 12440   0.194E+00    0.686E-01
DAV:   4    -0.191266330451E+03    0.17957E-02   -0.16946E-02 12320   0.794E-01    0.536E-01
DAV:   5    -0.191264190419E+03    0.21400E-02   -0.10596E-02 11640   0.728E-01    0.362E-01
DAV:   6    -0.191262928178E+03    0.12622E-02   -0.41238E-03 11840   0.391E-01    0.142E-01
DAV:   7    -0.191262865165E+03    0.63013E-04   -0.13620E-03 10760   0.192E-01    0.126E-01
DAV:   8    -0.191262743090E+03    0.12208E-03   -0.62987E-04  8960   0.186E-01    0.900E-02
DAV:   9    -0.191262655372E+03    0.87718E-04   -0.15780E-04  6320   0.906E-02
  21 F= -.19126266E+03 E0= -.19116134E+03  d E =0.132931E-01
       N       E                     dE             d eps       ncg     rms          rms(c)
DAV:   1    -0.191265075697E+03   -0.23326E-02   -0.12580E+00  8160   0.235E+00    0.222E-01
DAV:   2    -0.191268386163E+03   -0.33105E-02   -0.23434E-02 13480   0.611E-01    0.485E-01
DAV:   3    -0.191266349657E+03    0.20365E-02   -0.72479E-03 12680   0.623E-01    0.249E-01
DAV:   4    -0.191266042018E+03    0.30764E-03   -0.18871E-03  9880   0.267E-01    0.171E-01
DAV:   5    -0.191265827445E+03    0.21457E-03   -0.10974E-03 10080   0.241E-01    0.121E-01
DAV:   6    -0.191265720118E+03    0.10733E-03   -0.47163E-04  8800   0.135E-01    0.531E-02
DAV:   7    -0.191265693526E+03    0.26592E-04   -0.15062E-04  6640   0.600E-02
  22 F= -.19126569E+03 E0= -.19116458E+03  d E =-.303815E-02
       N       E                     dE             d eps       ncg     rms          rms(c)
DAV:   1    -0.191277168383E+03   -0.11448E-01   -0.18902E+00  8160   0.292E+00    0.330E-01
DAV:   2    -0.191287243997E+03   -0.10076E-01   -0.60059E-02 13400   0.111E+00    0.877E-01
DAV:   3    -0.191280113381E+03    0.71306E-02   -0.19622E-02 12600   0.102E+00    0.319E-01
DAV:   4    -0.191279495564E+03    0.61782E-03   -0.36313E-03 11320   0.343E-01    0.209E-01
DAV:   5    -0.191279169578E+03    0.32599E-03   -0.18518E-03 10800   0.304E-01    0.179E-01
DAV:   6    -0.191278887828E+03    0.28175E-03   -0.10666E-03  9920   0.216E-01    0.764E-02
DAV:   7    -0.191278839072E+03    0.48756E-04   -0.29111E-04  8000   0.866E-02
  23 F= -.19127884E+03 E0= -.19117771E+03  d E =-.131455E-01
       N       E                     dE             d eps       ncg     rms          rms(c)
DAV:   1    -0.191284540759E+03   -0.56529E-02   -0.14189E-01  8160   0.816E-01    0.101E-01
DAV:   2    -0.191285226592E+03   -0.68583E-03   -0.49725E-03 13560   0.286E-01    0.225E-01
DAV:   3    -0.191284770508E+03    0.45608E-03   -0.15847E-03 10080   0.290E-01    0.104E-01
DAV:   4    -0.191284707376E+03    0.63132E-04   -0.30793E-04  7440   0.108E-01
  24 F= -.19128471E+03 E0= -.19118376E+03  d E =-.586830E-02
       N       E                     dE             d eps       ncg     rms          rms(c)
DAV:   1    -0.191259129470E+03    0.25641E-01   -0.40951E+00  8160   0.433E+00    0.475E-01
DAV:   2    -0.191267921406E+03   -0.87919E-02   -0.10600E-01 13560   0.106E+00    0.694E-01
DAV:   3    -0.191266541519E+03    0.13799E-02   -0.28028E-02 12240   0.117E+00    0.702E-01
DAV:   4    -0.191262400986E+03    0.41405E-02   -0.11354E-02 11800   0.701E-01    0.280E-01
DAV:   5    -0.191261523711E+03    0.87728E-03   -0.38023E-03 10640   0.346E-01    0.227E-01
DAV:   6    -0.191261388475E+03    0.13524E-03   -0.25980E-03 11480   0.364E-01    0.186E-01
DAV:   7    -0.191260993575E+03    0.39490E-03   -0.85576E-04 10240   0.200E-01    0.459E-02
DAV:   8    -0.191260974130E+03    0.19446E-04   -0.13487E-04  6840   0.713E-02
  25 F= -.19126097E+03 E0= -.19115995E+03  d E =0.237332E-01
       N       E                     dE             d eps       ncg     rms          rms(c)
DAV:   1    -0.191292887219E+03   -0.31894E-01   -0.62654E+00  8160   0.542E+00    0.643E-01
DAV:   2    -0.191310578002E+03   -0.17691E-01   -0.18522E-01 13600   0.156E+00    0.109E+00
DAV:   3    -0.191303698588E+03    0.68794E-02   -0.49879E-02 12240   0.164E+00    0.840E-01
DAV:   4    -0.191298258296E+03    0.54403E-02   -0.18680E-02 12400   0.877E-01    0.435E-01
DAV:   5    -0.191296697922E+03    0.15604E-02   -0.88039E-03 11080   0.619E-01    0.392E-01
DAV:   6    -0.191295438793E+03    0.12591E-02   -0.57084E-03 11320   0.521E-01    0.193E-01
DAV:   7    -0.191295032902E+03    0.40589E-03   -0.15281E-03 11800   0.228E-01    0.101E-01
DAV:   8    -0.191294996334E+03    0.36568E-04   -0.57517E-04  9120   0.174E-01
  26 F= -.19129500E+03 E0= -.19119428E+03  d E =-.340222E-01
       N       E                     dE             d eps       ncg     rms          rms(c)
DAV:   1    -0.191296102020E+03   -0.10691E-02   -0.17549E-01  8160   0.885E-01    0.907E-02
DAV:   2    -0.191296684835E+03   -0.58282E-03   -0.35794E-03 13480   0.278E-01    0.213E-01
DAV:   3    -0.191296230255E+03    0.45458E-03   -0.10725E-03 10400   0.251E-01    0.810E-02
DAV:   4    -0.191296241597E+03   -0.11342E-04   -0.30076E-04  7360   0.115E-01
  27 F= -.19129624E+03 E0= -.19119547E+03  d E =-.124526E-02
       N       E                     dE             d eps       ncg     rms          rms(c)
DAV:   1    -0.191310492670E+03   -0.14262E-01   -0.89085E-01  8160   0.204E+00    0.222E-01
DAV:   2    -0.191311645880E+03   -0.11532E-02   -0.23282E-02 12240   0.386E-01    0.138E-01
DAV:   3    -0.191312065595E+03   -0.41971E-03   -0.25418E-03 12400   0.291E-01    0.256E-01
DAV:   4    -0.191311456458E+03    0.60914E-03   -0.18461E-03 10640   0.327E-01    0.145E-01
DAV:   5    -0.191311293164E+03    0.16329E-03   -0.73480E-04  8600   0.175E-01    0.820E-02
DAV:   6    -0.191311355415E+03   -0.62251E-04   -0.44408E-04  9360   0.150E-01
  28 F= -.19131136E+03 E0= -.19121137E+03  d E =-.151138E-01
       N       E                     dE             d eps       ncg     rms          rms(c)
DAV:   1    -0.191310012795E+03    0.12804E-02   -0.31312E-02  8160   0.402E-01    0.475E-02
DAV:   2    -0.191310206566E+03   -0.19377E-03   -0.96187E-04 12400   0.156E-01    0.126E-01
DAV:   3    -0.191310041326E+03    0.16524E-03   -0.38605E-04  8440   0.152E-01    0.481E-02
DAV:   4    -0.191310027953E+03    0.13373E-04   -0.64291E-05  5680   0.540E-02
  29 F= -.19131003E+03 E0= -.19120988E+03  d E =0.132746E-02
       N       E                     dE             d eps       ncg     rms          rms(c)
DAV:   1    -0.191326124779E+03   -0.16083E-01   -0.11668E+00  8160   0.233E+00    0.247E-01
DAV:   2    -0.191327959335E+03   -0.18346E-02   -0.31950E-02 12240   0.463E-01    0.182E-01
DAV:   3    -0.191328814348E+03   -0.85501E-03   -0.45445E-03 12320   0.428E-01    0.361E-01
DAV:   4    -0.191327637719E+03    0.11766E-02   -0.28692E-03 10480   0.414E-01    0.159E-01
DAV:   5    -0.191327332653E+03    0.30507E-03   -0.74418E-04  9720   0.154E-01    0.578E-02
DAV:   6    -0.191327345506E+03   -0.12853E-04   -0.28259E-04  7920   0.795E-02
  30 F= -.19132735E+03 E0= -.19122807E+03  d E =-.173176E-01
       N       E                     dE             d eps       ncg     rms          rms(c)
DAV:   1    -0.191281684605E+03    0.45648E-01   -0.70117E+00  8160   0.569E+00    0.608E-01
DAV:   2    -0.191295619133E+03   -0.13935E-01   -0.19777E-01 13120   0.130E+00    0.634E-01
DAV:   3    -0.191298504710E+03   -0.28856E-02   -0.36618E-02 11600   0.134E+00    0.894E-01
DAV:   4    -0.191291085518E+03    0.74192E-02   -0.17677E-02 11320   0.100E+00    0.378E-01
DAV:   5    -0.191289405697E+03    0.16798E-02   -0.54540E-03 10480   0.469E-01    0.256E-01
DAV:   6    -0.191289806151E+03   -0.40045E-03   -0.39154E-03 12840   0.488E-01    0.289E-01
DAV:   7    -0.191288744125E+03    0.10620E-02   -0.17680E-03 11480   0.281E-01    0.627E-02
DAV:   8    -0.191288716692E+03    0.27433E-04   -0.24928E-04  6440   0.872E-02
  31 F= -.19128872E+03 E0= -.19118767E+03  d E =0.386288E-01
       N       E                     dE             d eps       ncg     rms          rms(c)
DAV:   1    -0.191301402009E+03   -0.12658E-01   -0.76089E-01  8160   0.189E+00    0.212E-01
DAV:   2    -0.191303645996E+03   -0.22440E-02   -0.24576E-02 12040   0.533E-01    0.321E-01
DAV:   3    -0.191303086117E+03    0.55988E-03   -0.45363E-03 11640   0.508E-01    0.258E-01
DAV:   4    -0.191302632227E+03    0.45389E-03   -0.18597E-03  9920   0.304E-01    0.163E-01
DAV:   5    -0.191302403423E+03    0.22880E-03   -0.96861E-04  9560   0.227E-01    0.115E-01
DAV:   6    -0.191302352909E+03    0.50514E-04   -0.54883E-04  9080   0.145E-01
  32 F= -.19130235E+03 E0= -.19120183E+03  d E =-.136362E-01
       N       E                     dE             d eps       ncg     rms          rms(c)
DAV:   1    -0.191304162223E+03   -0.17588E-02   -0.14736E-02  8160   0.271E-01    0.525E-02
DAV:   2    -0.191304561226E+03   -0.39900E-03   -0.11206E-03 11640   0.212E-01    0.194E-01
DAV:   3    -0.191304143324E+03    0.41790E-03   -0.62934E-04  8440   0.195E-01    0.309E-02
DAV:   4    -0.191304162523E+03   -0.19200E-04   -0.73392E-05  5680   0.404E-02
  33 F= -.19130416E+03 E0= -.19120383E+03  d E =-.180961E-02
       N       E                     dE             d eps       ncg     rms          rms(c)
DAV:   1    -0.191311949859E+03   -0.78065E-02   -0.28777E-01  8160   0.116E+00    0.142E-01
DAV:   2    -0.191312994192E+03   -0.10443E-02   -0.81096E-03 13600   0.356E-01    0.290E-01
DAV:   3    -0.191312274600E+03    0.71959E-03   -0.28319E-03 11480   0.373E-01    0.163E-01
DAV:   4    -0.191312115042E+03    0.15956E-03   -0.84919E-04  9280   0.182E-01    0.891E-02
DAV:   5    -0.191311968304E+03    0.14674E-03   -0.26471E-04  6600   0.725E-02    0.346E-02
DAV:   6    -0.191312013436E+03   -0.45132E-04   -0.20500E-04  7640   0.862E-02
  34 F= -.19131201E+03 E0= -.19121209E+03  d E =-.785091E-02
       N       E                     dE             d eps       ncg     rms          rms(c)
DAV:   1    -0.191332833436E+03   -0.20865E-01   -0.19858E+00  8160   0.306E+00    0.347E-01
DAV:   2    -0.191337611727E+03   -0.47783E-02   -0.56608E-02 13560   0.765E-01    0.512E-01
DAV:   3    -0.191336785518E+03    0.82621E-03   -0.12676E-02 12400   0.828E-01    0.472E-01
DAV:   4    -0.191335059145E+03    0.17264E-02   -0.50287E-03 11720   0.509E-01    0.222E-01
DAV:   5    -0.191334365434E+03    0.69371E-03   -0.19989E-03 10240   0.267E-01    0.132E-01
DAV:   6    -0.191334551320E+03   -0.18589E-03   -0.12357E-03 10720   0.264E-01    0.165E-01
DAV:   7    -0.191334195908E+03    0.35541E-03   -0.62312E-04  8920   0.172E-01    0.388E-02
DAV:   8    -0.191334181540E+03    0.14367E-04   -0.88602E-05  5920   0.402E-02
  35 F= -.19133418E+03 E0= -.19123536E+03  d E =-.221681E-01
       N       E                     dE             d eps       ncg     rms          rms(c)
DAV:   1    -0.191321373811E+03    0.12822E-01   -0.77023E-01  8160   0.188E+00    0.222E-01
DAV:   2    -0.191324306712E+03   -0.29329E-02   -0.20971E-02 13600   0.610E-01    0.475E-01
DAV:   3    -0.191322230655E+03    0.20761E-02   -0.68395E-03 11720   0.605E-01    0.243E-01
DAV:   4    -0.191321905173E+03    0.32548E-03   -0.20472E-03 10080   0.284E-01    0.151E-01
DAV:   5    -0.191321615593E+03    0.28958E-03   -0.88085E-04  9640   0.194E-01    0.106E-01
DAV:   6    -0.191321561873E+03    0.53720E-04   -0.47651E-04  9400   0.164E-01
  36 F= -.19132156E+03 E0= -.19122215E+03  d E =0.126197E-01
       N       E                     dE             d eps       ncg     rms          rms(c)
DAV:   1    -0.191326672052E+03   -0.50565E-02   -0.15217E-01  8160   0.843E-01    0.115E-01
DAV:   2    -0.191327678727E+03   -0.10067E-02   -0.56725E-03 12200   0.380E-01    0.275E-01
DAV:   3    -0.191326766724E+03    0.91200E-03   -0.17179E-03 10960   0.323E-01    0.835E-02
DAV:   4    -0.191326792828E+03   -0.26104E-04   -0.48175E-04  8200   0.129E-01
  37 F= -.19132679E+03 E0= -.19122748E+03  d E =-.523096E-02
       N       E                     dE             d eps       ncg     rms          rms(c)
DAV:   1    -0.191335298436E+03   -0.85317E-02   -0.33521E-01  8160   0.125E+00    0.173E-01
DAV:   2    -0.191338133819E+03   -0.28354E-02   -0.12906E-02 13600   0.566E-01    0.504E-01
DAV:   3    -0.191335569392E+03    0.25644E-02   -0.53915E-03 11240   0.542E-01    0.133E-01
DAV:   4    -0.191335571562E+03   -0.21695E-05   -0.80844E-04  9960   0.170E-01
  38 F= -.19133557E+03 E0= -.19123681E+03  d E =-.877873E-02
       N       E                     dE             d eps       ncg     rms          rms(c)
DAV:   1    -0.191326343772E+03    0.92256E-02   -0.98864E-01  8160   0.211E+00    0.267E-01
DAV:   2    -0.191334964762E+03   -0.86210E-02   -0.36518E-02 13600   0.104E+00    0.816E-01
DAV:   3    -0.191327028565E+03    0.79362E-02   -0.14868E-02 11920   0.906E-01    0.204E-01
DAV:   4    -0.191326974819E+03    0.53746E-04   -0.20963E-03 11040   0.297E-01    0.184E-01
DAV:   5    -0.191326710877E+03    0.26394E-03   -0.10094E-03 10640   0.242E-01    0.131E-01
DAV:   6    -0.191326524454E+03    0.18642E-03   -0.53173E-04  8480   0.153E-01    0.567E-02
DAV:   7    -0.191326562658E+03   -0.38204E-04   -0.21718E-04  7000   0.101E-01
  39 F= -.19132656E+03 E0= -.19122713E+03  d E =0.900890E-02
       N       E                     dE             d eps       ncg     rms          rms(c)
DAV:   1    -0.191343715004E+03   -0.17191E-01   -0.12123E+00  8160   0.241E+00    0.326E-01
DAV:   2    -0.191347598993E+03   -0.38840E-02   -0.41344E-02 13560   0.809E-01    0.596E-01
DAV:   3    -0.191345198443E+03    0.24006E-02   -0.12716E-02 11960   0.833E-01    0.377E-01
DAV:   4    -0.191343845618E+03    0.13528E-02   -0.36172E-03 11480   0.414E-01    0.174E-01
DAV:   5    -0.191343654956E+03    0.19066E-03   -0.16977E-03 10960   0.275E-01    0.181E-01
DAV:   6    -0.191343420718E+03    0.23424E-03   -0.12221E-03 10280   0.259E-01    0.116E-01
DAV:   7    -0.191343298672E+03    0.12205E-03   -0.42098E-04  8440   0.141E-01    0.681E-02
DAV:   8    -0.191343259871E+03    0.38801E-04   -0.15440E-04  5840   0.102E-01
  40 F= -.19134326E+03 E0= -.19124456E+03  d E =-.166972E-01
       N       E                     dE             d eps       ncg     rms          rms(c)
DAV:   1    -0.191348326635E+03   -0.50280E-02   -0.97710E-01  8160   0.208E+00    0.235E-01
DAV:   2    -0.191352276423E+03   -0.39498E-02   -0.25010E-02 13080   0.748E-01    0.501E-01
DAV:   3    -0.191349055203E+03    0.32212E-02   -0.73293E-03 12360   0.622E-01    0.191E-01
DAV:   4    -0.191348990312E+03    0.64891E-04   -0.16425E-03 10800   0.259E-01    0.165E-01
DAV:   5    -0.191348808655E+03    0.18166E-03   -0.10048E-03  9880   0.224E-01    0.142E-01
DAV:   6    -0.191348654993E+03    0.15366E-03   -0.59367E-04  8560   0.180E-01    0.711E-02
DAV:   7    -0.191348633402E+03    0.21592E-04   -0.18276E-04  6640   0.804E-02
  41 F= -.19134863E+03 E0= -.19125037E+03  d E =-.537353E-02
       N       E                     dE             d eps       ncg     rms          rms(c)
DAV:   1    -0.191359208111E+03   -0.10553E-01   -0.84307E-01  8160   0.197E+00    0.230E-01
DAV:   2    -0.191362082711E+03   -0.28746E-02   -0.24820E-02 13440   0.605E-01    0.439E-01
DAV:   3    -0.191360489443E+03    0.15933E-02   -0.69005E-03 11960   0.596E-01    0.271E-01
DAV:   4    -0.191359995650E+03    0.49379E-03   -0.21138E-03 11000   0.315E-01    0.148E-01
DAV:   5    -0.191359651800E+03    0.34385E-03   -0.81091E-04 10160   0.139E-01    0.727E-02
DAV:   6    -0.191359718862E+03   -0.67063E-04   -0.44485E-04  9480   0.153E-01
  42 F= -.19135972E+03 E0= -.19126216E+03  d E =-.110855E-01
       N       E                     dE             d eps       ncg     rms          rms(c)
DAV:   1    -0.191378431925E+03   -0.18780E-01   -0.21358E+00  8160   0.316E+00    0.371E-01
DAV:   2    -0.191388221362E+03   -0.97894E-02   -0.69469E-02 13560   0.109E+00    0.838E-01
DAV:   3    -0.191381983417E+03    0.62379E-02   -0.17911E-02 12400   0.103E+00    0.353E-01
DAV:   4    -0.191381337961E+03    0.64546E-03   -0.39028E-03 11240   0.402E-01    0.238E-01
DAV:   5    -0.191380596500E+03    0.74146E-03   -0.21656E-03 11840   0.312E-01    0.148E-01
DAV:   6    -0.191380720300E+03   -0.12380E-03   -0.12293E-03 10760   0.268E-01    0.154E-01
DAV:   7    -0.191380420430E+03    0.29987E-03   -0.62919E-04  9320   0.173E-01    0.694E-02
DAV:   8    -0.191380380902E+03    0.39528E-04   -0.15354E-04  6200   0.998E-02
  43 F= -.19138038E+03 E0= -.19128433E+03  d E =-.206620E-01
       N       E                     dE             d eps       ncg     rms          rms(c)
DAV:   1    -0.191376714735E+03    0.37057E-02   -0.18194E-01  8160   0.908E-01    0.101E-01
DAV:   2    -0.191377329468E+03   -0.61473E-03   -0.51222E-03 13560   0.262E-01    0.196E-01
DAV:   3    -0.191376939913E+03    0.38955E-03   -0.14856E-03 10120   0.267E-01    0.116E-01
DAV:   4    -0.191376855528E+03    0.84385E-04   -0.37273E-04  8160   0.140E-01
  44 F= -.19137686E+03 E0= -.19128049E+03  d E =0.352537E-02
       N       E                     dE             d eps       ncg     rms          rms(c)
DAV:   1    -0.191381723150E+03   -0.47832E-02   -0.20720E-01  8160   0.986E-01    0.133E-01
DAV:   2    -0.191382299698E+03   -0.57655E-03   -0.57575E-03 12760   0.298E-01    0.236E-01
DAV:   3    -0.191381895687E+03    0.40401E-03   -0.19107E-03 11840   0.347E-01    0.162E-01
DAV:   4    -0.191381706898E+03    0.18879E-03   -0.67791E-04  8240   0.179E-01    0.928E-02
DAV:   5    -0.191381622465E+03    0.84433E-04   -0.35390E-04  8160   0.136E-01
  45 F= -.19138162E+03 E0= -.19128549E+03  d E =-.476694E-02
       N       E                     dE             d eps       ncg     rms          rms(c)
DAV:   1    -0.191395105269E+03   -0.13398E-01   -0.10734E+00  8160   0.224E+00    0.282E-01
DAV:   2    -0.191402247260E+03   -0.71420E-02   -0.36836E-02 13080   0.938E-01    0.752E-01
DAV:   3    -0.191396510846E+03    0.57364E-02   -0.11293E-02 12400   0.855E-01    0.223E-01
DAV:   4    -0.191396650492E+03   -0.13965E-03   -0.22170E-03  9960   0.340E-01    0.246E-01
DAV:   5    -0.191395947458E+03    0.70303E-03   -0.13304E-03 10840   0.301E-01    0.942E-02
DAV:   6    -0.191395975192E+03   -0.27734E-04   -0.53139E-04  9880   0.127E-01
  46 F= -.19139598E+03 E0= -.19130071E+03  d E =-.143527E-01
       N       E                     dE             d eps       ncg     rms          rms(c)
DAV:   1    -0.191396525049E+03   -0.57759E-03   -0.35068E-03 11040   0.160E-01    0.581E-02
DAV:   2    -0.191397210202E+03   -0.68515E-03   -0.13629E-03 11080   0.297E-01    0.252E-01
DAV:   3    -0.191396462094E+03    0.74811E-03   -0.91274E-04  8800   0.252E-01    0.199E-02
DAV:   4    -0.191396482060E+03   -0.19966E-04   -0.42416E-05  5520   0.253E-02
  47 F= -.19139648E+03 E0= -.19130129E+03  d E =-.506868E-03
       N       E                     dE             d eps       ncg     rms          rms(c)
DAV:   1    -0.191408247699E+03   -0.11786E-01   -0.95455E-01  8160   0.209E+00    0.255E-01
DAV:   2    -0.191414819476E+03   -0.65718E-02   -0.30823E-02 13320   0.899E-01    0.739E-01
DAV:   3    -0.191409329728E+03    0.54897E-02   -0.10119E-02 12080   0.809E-01    0.188E-01
DAV:   4    -0.191409332720E+03   -0.29925E-05   -0.15803E-03 10000   0.259E-01    0.179E-01
DAV:   5    -0.191408959360E+03    0.37336E-03   -0.96553E-04 11400   0.248E-01    0.998E-02
DAV:   6    -0.191408942315E+03    0.17044E-04   -0.43237E-04  8720   0.143E-01
  48 F= -.19140894E+03 E0= -.19131477E+03  d E =-.124603E-01
       N       E                     dE             d eps       ncg     rms          rms(c)
DAV:   1    -0.191403304851E+03    0.56545E-02   -0.24137E-01  8160   0.105E+00    0.129E-01
DAV:   2    -0.191405303151E+03   -0.19983E-02   -0.84257E-03 13560   0.490E-01    0.406E-01
DAV:   3    -0.191403525540E+03    0.17776E-02   -0.31864E-03 11360   0.446E-01    0.990E-02
DAV:   4    -0.191403471874E+03    0.53666E-04   -0.39587E-04  8200   0.117E-01
  49 F= -.19140347E+03 E0= -.19130896E+03  d E =0.547044E-02
       N       E                     dE             d eps       ncg     rms          rms(c)
DAV:   1    -0.191410538029E+03   -0.70125E-02   -0.39369E-01  8160   0.135E+00    0.164E-01
DAV:   2    -0.191413759752E+03   -0.32217E-02   -0.14706E-02 12640   0.633E-01    0.482E-01
DAV:   3    -0.191411161006E+03    0.25987E-02   -0.41225E-03 11840   0.536E-01    0.114E-01
DAV:   4    -0.191411277882E+03   -0.11688E-03   -0.72481E-04  8800   0.202E-01    0.147E-01
DAV:   5    -0.191411034218E+03    0.24366E-03   -0.37890E-04  7840   0.162E-01    0.452E-02
DAV:   6    -0.191411058417E+03   -0.24199E-04   -0.14971E-04  6520   0.657E-02
  50 F= -.19141106E+03 E0= -.19131709E+03  d E =-.758654E-02
       N       E                     dE             d eps       ncg     rms          rms(c)
DAV:   1    -0.191412369748E+03   -0.13355E-02   -0.32405E-02  8160   0.396E-01    0.704E-02
DAV:   2    -0.191412845087E+03   -0.47534E-03   -0.16985E-03 12360   0.256E-01    0.208E-01
DAV:   3    -0.191412334109E+03    0.51098E-03   -0.88304E-04  9080   0.241E-01    0.555E-02
DAV:   4    -0.191412321018E+03    0.13091E-04   -0.14282E-04  5680   0.686E-02
  51 F= -.19141232E+03 E0= -.19131839E+03  d E =-.126260E-02
       N       E                     dE             d eps       ncg     rms          rms(c)
DAV:   1    -0.191419634143E+03   -0.73000E-02   -0.86297E-01  8160   0.200E+00    0.260E-01
DAV:   2    -0.191421923941E+03   -0.22898E-02   -0.23999E-02 13280   0.640E-01    0.453E-01
DAV:   3    -0.191420094317E+03    0.18296E-02   -0.72599E-03 11920   0.640E-01    0.292E-01
DAV:   4    -0.191419580276E+03    0.51404E-03   -0.27399E-03 11320   0.384E-01    0.194E-01
DAV:   5    -0.191419172625E+03    0.40765E-03   -0.13819E-03  9680   0.247E-01    0.135E-01
DAV:   6    -0.191419035924E+03    0.13670E-03   -0.70955E-04  9720   0.202E-01    0.888E-02
DAV:   7    -0.191418948604E+03    0.87320E-04   -0.25555E-04  7320   0.103E-01
  52 F= -.19141895E+03 E0= -.19132537E+03  d E =-.662759E-02
       N       E                     dE             d eps       ncg     rms          rms(c)
DAV:   1    -0.191431397054E+03   -0.12361E-01   -0.13236E+00  8160   0.247E+00    0.284E-01
DAV:   2    -0.191436362226E+03   -0.49652E-02   -0.38589E-02 13280   0.798E-01    0.592E-01
DAV:   3    -0.191433294610E+03    0.30676E-02   -0.98451E-03 12440   0.774E-01    0.298E-01
DAV:   4    -0.191432634526E+03    0.66008E-03   -0.24644E-03 11240   0.329E-01    0.161E-01
DAV:   5    -0.191432271691E+03    0.36283E-03   -0.11624E-03 11360   0.200E-01    0.110E-01
DAV:   6    -0.191432314887E+03   -0.43195E-04   -0.69225E-04 10120   0.216E-01
  53 F= -.19143231E+03 E0= -.19133946E+03  d E =-.133663E-01
       N       E                     dE             d eps       ncg     rms          rms(c)
DAV:   1    -0.191436768372E+03   -0.44967E-02   -0.18074E-01  8160   0.932E-01    0.135E-01
DAV:   2    -0.191438388476E+03   -0.16201E-02   -0.95638E-03 11960   0.506E-01    0.347E-01
DAV:   3    -0.191437127057E+03    0.12614E-02   -0.24839E-03 11440   0.408E-01    0.102E-01
DAV:   4    -0.191437112910E+03    0.14147E-04   -0.39470E-04  8280   0.159E-01
  54 F= -.19143711E+03 E0= -.19134455E+03  d E =-.479802E-02
       N       E                     dE             d eps       ncg     rms          rms(c)
DAV:   1    -0.191447383296E+03   -0.10256E-01   -0.12904E+00  8160   0.244E+00    0.309E-01
DAV:   2    -0.191454557185E+03   -0.71739E-02   -0.49823E-02 12800   0.100E+00    0.703E-01
DAV:   3    -0.191449723936E+03    0.48332E-02   -0.11855E-02 12320   0.880E-01    0.276E-01
DAV:   4    -0.191449286605E+03    0.43733E-03   -0.25443E-03 10840   0.360E-01    0.205E-01
DAV:   5    -0.191448936704E+03    0.34990E-03   -0.15869E-03 10680   0.324E-01    0.159E-01
DAV:   6    -0.191448812728E+03    0.12398E-03   -0.98796E-04 10480   0.221E-01    0.103E-01
DAV:   7    -0.191448740986E+03    0.71743E-04   -0.55067E-04  8840   0.155E-01
  55 F= -.19144874E+03 E0= -.19135780E+03  d E =-.116281E-01
       N       E                     dE             d eps       ncg     rms          rms(c)
DAV:   1    -0.191452748355E+03   -0.39356E-02   -0.13918E-01  8160   0.807E-01    0.103E-01
DAV:   2    -0.191453131199E+03   -0.38284E-03   -0.43860E-03 12720   0.260E-01    0.172E-01
DAV:   3    -0.191452936657E+03    0.19454E-03   -0.10862E-03 10520   0.265E-01    0.117E-01
DAV:   4    -0.191452796331E+03    0.14033E-03   -0.28019E-04  7400   0.128E-01    0.473E-02
DAV:   5    -0.191452807194E+03   -0.10863E-04   -0.12446E-04  6240   0.946E-02
  56 F= -.19145281E+03 E0= -.19136219E+03  d E =-.406621E-02
       N       E                     dE             d eps       ncg     rms          rms(c)
DAV:   1    -0.191477174218E+03   -0.24378E-01   -0.50608E+00  8160   0.487E+00    0.626E-01
DAV:   2    -0.191492117162E+03   -0.14943E-01   -0.16173E-01 13400   0.164E+00    0.115E+00
DAV:   3    -0.191482741845E+03    0.93753E-02   -0.42534E-02 12320   0.163E+00    0.663E-01
DAV:   4    -0.191477815987E+03    0.49259E-02   -0.11059E-02 12240   0.761E-01    0.309E-01
DAV:   5    -0.191477660696E+03    0.15529E-03   -0.67872E-03 10800   0.593E-01    0.378E-01
DAV:   6    -0.191476376377E+03    0.12843E-02   -0.45748E-03 11040   0.530E-01    0.190E-01
DAV:   7    -0.191476094180E+03    0.28220E-03   -0.13661E-03 10280   0.251E-01    0.119E-01
DAV:   8    -0.191475932662E+03    0.16152E-03   -0.46805E-04  9160   0.168E-01    0.669E-02
DAV:   9    -0.191475876113E+03    0.56548E-04   -0.11542E-04  6280   0.816E-02
  57 F= -.19147588E+03 E0= -.19138633E+03  d E =-.230689E-01
       N       E                     dE             d eps       ncg     rms          rms(c)
DAV:   1    -0.191469117977E+03    0.68147E-02   -0.10560E+00  8160   0.225E+00    0.351E-01
DAV:   2    -0.191472372098E+03   -0.32541E-02   -0.37603E-02 12400   0.889E-01    0.635E-01
DAV:   3    -0.191468820478E+03    0.35516E-02   -0.12230E-02 12320   0.900E-01    0.362E-01
DAV:   4    -0.191467717504E+03    0.11030E-02   -0.41330E-03 11360   0.463E-01    0.214E-01
DAV:   5    -0.191467295706E+03    0.42180E-03   -0.23615E-03 10720   0.334E-01    0.188E-01
DAV:   6    -0.191466981949E+03    0.31376E-03   -0.12346E-03 10080   0.269E-01    0.107E-01
DAV:   7    -0.191466871040E+03    0.11091E-03   -0.36340E-04  8560   0.132E-01    0.521E-02
DAV:   8    -0.191466862198E+03    0.88423E-05   -0.11765E-04  6840   0.918E-02
  58 F= -.19146686E+03 E0= -.19137706E+03  d E =0.901392E-02
       N       E                     dE             d eps       ncg     rms          rms(c)
DAV:   1    -0.191477750073E+03   -0.10879E-01   -0.12900E+00  8160   0.243E+00    0.256E-01
DAV:   2    -0.191481510517E+03   -0.37604E-02   -0.35825E-02 13440   0.729E-01    0.472E-01
DAV:   3    -0.191479808117E+03    0.17024E-02   -0.76469E-03 12240   0.687E-01    0.283E-01
DAV:   4    -0.191478949795E+03    0.85832E-03   -0.18052E-03 11040   0.304E-01    0.115E-01
DAV:   5    -0.191478966402E+03   -0.16608E-04   -0.10265E-03 10440   0.224E-01    0.150E-01
DAV:   6    -0.191478803098E+03    0.16330E-03   -0.77119E-04  9680   0.228E-01    0.877E-02
DAV:   7    -0.191478737700E+03    0.65397E-04   -0.23216E-04  6680   0.105E-01
  59 F= -.19147874E+03 E0= -.19138961E+03  d E =-.118755E-01
       N       E                     dE             d eps       ncg     rms          rms(c)
DAV:   1    -0.191483865049E+03   -0.50620E-02   -0.25690E-01  8160   0.108E+00    0.130E-01
DAV:   2    -0.191484510834E+03   -0.64579E-03   -0.82560E-03 13440   0.363E-01    0.190E-01
DAV:   3    -0.191484251268E+03    0.25957E-03   -0.15179E-03 10280   0.316E-01    0.134E-01
DAV:   4    -0.191484072853E+03    0.17842E-03   -0.52372E-04  8280   0.180E-01    0.818E-02
DAV:   5    -0.191484066380E+03    0.64728E-05   -0.28646E-04  7520   0.141E-01
  60 F= -.19148407E+03 E0= -.19139525E+03  d E =-.532868E-02
       N       E                     dE             d eps       ncg     rms          rms(c)
DAV:   1    -0.191480375921E+03    0.36969E-02   -0.13593E-01  8160   0.797E-01    0.910E-02
DAV:   2    -0.191480909754E+03   -0.53383E-03   -0.40335E-03 13560   0.278E-01    0.194E-01
DAV:   3    -0.191480543272E+03    0.36648E-03   -0.11206E-03 10040   0.268E-01    0.103E-01
DAV:   4    -0.191480434143E+03    0.10913E-03   -0.27162E-04  6880   0.117E-01    0.415E-02
DAV:   5    -0.191480420750E+03    0.13393E-04   -0.89863E-05  5880   0.594E-02
  61 F= -.19148042E+03 E0= -.19139129E+03  d E =0.364563E-02
       N       E                     dE             d eps       ncg     rms          rms(c)
DAV:   1    -0.191485978242E+03   -0.55441E-02   -0.38175E-01  8160   0.132E+00    0.147E-01
DAV:   2    -0.191487044538E+03   -0.10663E-02   -0.11401E-02 12680   0.450E-01    0.248E-01
DAV:   3    -0.191486496083E+03    0.54846E-03   -0.21593E-03 11880   0.369E-01    0.143E-01
DAV:   4    -0.191486321396E+03    0.17469E-03   -0.60498E-04  8360   0.193E-01    0.103E-01
DAV:   5    -0.191486296657E+03    0.24739E-04   -0.42885E-04  8120   0.169E-01
  62 F= -.19148630E+03 E0= -.19139823E+03  d E =-.587591E-02
       N       E                     dE             d eps       ncg     rms          rms(c)
DAV:   1    -0.191489596292E+03   -0.32749E-02   -0.89474E-02  8160   0.680E-01    0.101E-01
DAV:   2    -0.191489594312E+03    0.19807E-05   -0.28012E-03 11640   0.172E-01    0.940E-02
DAV:   3    -0.191489620850E+03   -0.26539E-04   -0.77273E-04 10080   0.204E-01
  63 F= -.19148962E+03 E0= -.19140104E+03  d E =-.332419E-02
       N       E                     dE             d eps       ncg     rms          rms(c)
DAV:   1    -0.191492324001E+03   -0.27297E-02   -0.17031E-01  8160   0.927E-01    0.181E-01
DAV:   2    -0.191495856096E+03   -0.35321E-02   -0.12266E-02 12400   0.734E-01    0.568E-01
DAV:   3    -0.191492136622E+03    0.37195E-02   -0.50517E-03 11000   0.613E-01    0.969E-02
DAV:   4    -0.191492248154E+03   -0.11153E-03   -0.69655E-04  9640   0.195E-01    0.144E-01
DAV:   5    -0.191492043572E+03    0.20458E-03   -0.51260E-04  8800   0.195E-01    0.724E-02
DAV:   6    -0.191492008093E+03    0.35478E-04   -0.21202E-04  6160   0.109E-01
  64 F= -.19149201E+03 E0= -.19140420E+03  d E =-.238724E-02
       N       E                     dE             d eps       ncg     rms          rms(c)
DAV:   1    -0.191503369030E+03   -0.11325E-01   -0.62078E-01  8160   0.184E+00    0.443E-01
DAV:   2    -0.191507319143E+03   -0.39501E-02   -0.39620E-02 11480   0.117E+00    0.901E-01
DAV:   3    -0.191499429145E+03    0.78900E-02   -0.21327E-02 11680   0.121E+00    0.365E-01
DAV:   4    -0.191498057243E+03    0.13719E-02   -0.57307E-03 12200   0.533E-01    0.273E-01
DAV:   5    -0.191498011429E+03    0.45814E-04   -0.40893E-03 10520   0.525E-01    0.308E-01
DAV:   6    -0.191496879830E+03    0.11316E-02   -0.20542E-03 11280   0.340E-01    0.901E-02
DAV:   7    -0.191496845016E+03    0.34814E-04   -0.37755E-04  8360   0.144E-01
  65 F= -.19149685E+03 E0= -.19140812E+03  d E =-.483692E-02
       N       E                     dE             d eps       ncg     rms          rms(c)
DAV:   1    -0.191504122767E+03   -0.72429E-02   -0.36888E-01  8160   0.131E+00    0.201E-01
DAV:   2    -0.191505219372E+03   -0.10966E-02   -0.13873E-02 12160   0.571E-01    0.346E-01
DAV:   3    -0.191504059992E+03    0.11594E-02   -0.35347E-03 11640   0.496E-01    0.166E-01
DAV:   4    -0.191503794267E+03    0.26572E-03   -0.11785E-03  9800   0.242E-01    0.131E-01
DAV:   5    -0.191503778105E+03    0.16162E-04   -0.87864E-04  9840   0.239E-01
  66 F= -.19150378E+03 E0= -.19141635E+03  d E =-.693309E-02
       N       E                     dE             d eps       ncg     rms          rms(c)
DAV:   1    -0.191517636564E+03   -0.13842E-01   -0.17563E+00  8160   0.279E+00    0.274E-01
DAV:   2    -0.191520023485E+03   -0.23869E-02   -0.37328E-02 12280   0.642E-01    0.290E-01
DAV:   3    -0.191520382424E+03   -0.35894E-03   -0.61819E-03 11360   0.609E-01    0.375E-01
DAV:   4    -0.191519033205E+03    0.13492E-02   -0.29275E-03 11400   0.433E-01    0.157E-01
DAV:   5    -0.191519073019E+03   -0.39814E-04   -0.12823E-03 10160   0.283E-01    0.179E-01
DAV:   6    -0.191518784448E+03    0.28857E-03   -0.78542E-04 10280   0.230E-01    0.694E-02
DAV:   7    -0.191518751520E+03    0.32928E-04   -0.17596E-04  6360   0.879E-02
  67 F= -.19151875E+03 E0= -.19143204E+03  d E =-.149734E-01
       N       E                     dE             d eps       ncg     rms          rms(c)
DAV:   1    -0.191519993404E+03   -0.12090E-02   -0.17718E-02  8160   0.307E-01    0.736E-02
DAV:   2    -0.191520082585E+03   -0.89181E-04   -0.10627E-03 11200   0.197E-01    0.141E-01
DAV:   3    -0.191519887605E+03    0.19498E-03   -0.49573E-04  9040   0.190E-01    0.655E-02
DAV:   4    -0.191519861877E+03    0.25728E-04   -0.16558E-04  6280   0.104E-01
  68 F= -.19151986E+03 E0= -.19143322E+03  d E =-.111036E-02
       N       E                     dE             d eps       ncg     rms          rms(c)
DAV:   1    -0.191540620388E+03   -0.20733E-01   -0.21367E+00  8160   0.312E+00    0.389E-01
DAV:   2    -0.191545010965E+03   -0.43906E-02   -0.50382E-02 13440   0.101E+00    0.672E-01
DAV:   3    -0.191541362818E+03    0.36481E-02   -0.15390E-02 12120   0.100E+00    0.405E-01
DAV:   4    -0.191539989284E+03    0.13735E-02   -0.49536E-03 12200   0.522E-01    0.264E-01
DAV:   5    -0.191539790646E+03    0.19864E-03   -0.32940E-03 10520   0.467E-01    0.266E-01
DAV:   6    -0.191538978364E+03    0.81228E-03   -0.17966E-03 11000   0.310E-01    0.841E-02
DAV:   7    -0.191539011810E+03   -0.33446E-04   -0.54657E-04  8680   0.167E-01
  69 F= -.19153901E+03 E0= -.19145217E+03  d E =-.191499E-01
       N       E                     dE             d eps       ncg     rms          rms(c)
DAV:   1    -0.191544862454E+03   -0.58841E-02   -0.18059E-01  8160   0.909E-01    0.134E-01
DAV:   2    -0.191545753266E+03   -0.89081E-03   -0.69283E-03 12720   0.397E-01    0.274E-01
DAV:   3    -0.191544951679E+03    0.80159E-03   -0.22146E-03 11760   0.370E-01    0.128E-01
DAV:   4    -0.191544863970E+03    0.87709E-04   -0.61167E-04  8240   0.180E-01
  70 F= -.19154486E+03 E0= -.19145861E+03  d E =-.585216E-02
       N       E                     dE             d eps       ncg     rms          rms(c)
DAV:   1    -0.191565504308E+03   -0.20553E-01   -0.18994E+00  8160   0.290E+00    0.325E-01
DAV:   2    -0.191571345052E+03   -0.58407E-02   -0.42401E-02 13120   0.912E-01    0.672E-01
DAV:   3    -0.191567175831E+03    0.41692E-02   -0.13577E-02 12640   0.925E-01    0.356E-01
DAV:   4    -0.191566133616E+03    0.10422E-02   -0.31940E-03 11240   0.375E-01    0.170E-01
DAV:   5    -0.191565951085E+03    0.18253E-03   -0.14511E-03 10840   0.263E-01    0.158E-01
DAV:   6    -0.191565828233E+03    0.12285E-03   -0.99227E-04 11400   0.262E-01    0.111E-01
DAV:   7    -0.191565683392E+03    0.14484E-03   -0.40606E-04  8960   0.142E-01    0.335E-02
DAV:   8    -0.191565674321E+03    0.90705E-05   -0.71683E-05  6880   0.536E-02
  71 F= -.19156567E+03 E0= -.19147981E+03  d E =-.208104E-01
       N       E                     dE             d eps       ncg     rms          rms(c)
DAV:   1    -0.191574890360E+03   -0.92070E-02   -0.30105E-01  8160   0.116E+00    0.130E-01
DAV:   2    -0.191575902095E+03   -0.10117E-02   -0.70977E-03 13040   0.420E-01    0.276E-01
DAV:   3    -0.191575103007E+03    0.79909E-03   -0.19015E-03 12120   0.358E-01    0.113E-01
DAV:   4    -0.191575073438E+03    0.29568E-04   -0.48756E-04  8160   0.166E-01
  72 F= -.19157507E+03 E0= -.19148946E+03  d E =-.939912E-02
       N       E                     dE             d eps       ncg     rms          rms(c)
DAV:   1    -0.191604219402E+03   -0.29116E-01   -0.29149E+00  8160   0.360E+00    0.407E-01
DAV:   2    -0.191615527653E+03   -0.11308E-01   -0.66440E-02 13080   0.134E+00    0.972E-01
DAV:   3    -0.191605961137E+03    0.95665E-02   -0.21624E-02 12480   0.119E+00    0.349E-01
DAV:   4    -0.191605471687E+03    0.48945E-03   -0.47163E-03 11600   0.475E-01    0.281E-01
DAV:   5    -0.191604898350E+03    0.57334E-03   -0.31091E-03 11680   0.449E-01    0.234E-01
DAV:   6    -0.191604374905E+03    0.52345E-03   -0.17671E-03 11680   0.302E-01    0.994E-02
DAV:   7    -0.191604319539E+03    0.55366E-04   -0.59661E-04  9320   0.154E-01
  73 F= -.19160432E+03 E0= -.19151779E+03  d E =-.292461E-01
       N       E                     dE             d eps       ncg     rms          rms(c)
DAV:   1    -0.191614741608E+03   -0.10367E-01   -0.33331E-01  8160   0.122E+00    0.136E-01
DAV:   2    -0.191615935934E+03   -0.11943E-02   -0.78484E-03 12600   0.400E-01    0.300E-01
DAV:   3    -0.191614987264E+03    0.94867E-03   -0.25966E-03 11880   0.402E-01    0.133E-01
DAV:   4    -0.191614865573E+03    0.12169E-03   -0.54183E-04  8320   0.155E-01    0.725E-02
DAV:   5    -0.191614844703E+03    0.20871E-04   -0.26230E-04  8000   0.115E-01
  74 F= -.19161484E+03 E0= -.19152814E+03  d E =-.105252E-01
       N       E                     dE             d eps       ncg     rms          rms(c)
DAV:   1    -0.191645680658E+03   -0.30815E-01   -0.31003E+00  8160   0.368E+00    0.359E-01
DAV:   2    -0.191654324059E+03   -0.86434E-02   -0.59847E-02 12080   0.106E+00    0.779E-01
DAV:   3    -0.191648463599E+03    0.58605E-02   -0.16369E-02 12120   0.103E+00    0.337E-01
DAV:   4    -0.191647798755E+03    0.66484E-03   -0.35031E-03 11560   0.396E-01    0.228E-01
DAV:   5    -0.191647442409E+03    0.35635E-03   -0.20402E-03 11000   0.365E-01    0.190E-01
DAV:   6    -0.191647286976E+03    0.15543E-03   -0.14484E-03 11320   0.282E-01    0.126E-01
DAV:   7    -0.191647171164E+03    0.11581E-03   -0.74126E-04  9240   0.192E-01    0.967E-02
DAV:   8    -0.191647078592E+03    0.92572E-04   -0.24529E-04  7920   0.126E-01
  75 F= -.19164708E+03 E0= -.19156014E+03  d E =-.322339E-01
       N       E                     dE             d eps       ncg     rms          rms(c)
DAV:   1    -0.191659225219E+03   -0.12054E-01   -0.42883E-01  8160   0.138E+00    0.156E-01
DAV:   2    -0.191661171201E+03   -0.19460E-02   -0.11270E-02 12680   0.572E-01    0.382E-01
DAV:   3    -0.191659564793E+03    0.16064E-02   -0.29466E-03 11920   0.457E-01    0.115E-01
DAV:   4    -0.191659611980E+03   -0.47187E-04   -0.67446E-04  8960   0.197E-01
  76 F= -.19165961E+03 E0= -.19157272E+03  d E =-.125334E-01
       N       E                     dE             d eps       ncg     rms          rms(c)
DAV:   1    -0.191691806818E+03   -0.32242E-01   -0.35806E+00  8160   0.398E+00    0.406E-01
DAV:   2    -0.191703529661E+03   -0.11723E-01   -0.79515E-02 11240   0.132E+00    0.904E-01
DAV:   3    -0.191695453845E+03    0.80758E-02   -0.20740E-02 12520   0.116E+00    0.370E-01
DAV:   4    -0.191694838000E+03    0.61585E-03   -0.48415E-03 11760   0.481E-01    0.273E-01
DAV:   5    -0.191694251922E+03    0.58608E-03   -0.29555E-03 11240   0.439E-01    0.226E-01
DAV:   6    -0.191693877407E+03    0.37452E-03   -0.18223E-03 11440   0.310E-01    0.116E-01
DAV:   7    -0.191693780620E+03    0.96787E-04   -0.63436E-04  9080   0.169E-01
  77 F= -.19169378E+03 E0= -.19160575E+03  d E =-.341686E-01
       N       E                     dE             d eps       ncg     rms          rms(c)
DAV:   1    -0.191738207708E+03   -0.44330E-01   -0.13982E+01  8160   0.786E+00    0.783E-01
DAV:   2    -0.191794931544E+03   -0.56724E-01   -0.37068E-01 11120   0.275E+00    0.192E+00
DAV:   3    -0.191759189070E+03    0.35742E-01   -0.85847E-02 12600   0.237E+00    0.659E-01
DAV:   4    -0.191755915213E+03    0.32739E-02   -0.13719E-02 12400   0.754E-01    0.405E-01
DAV:   5    -0.191754483843E+03    0.14314E-02   -0.77767E-03 12200   0.661E-01    0.348E-01
DAV:   6    -0.191754297098E+03    0.18675E-03   -0.55744E-03 12600   0.578E-01    0.270E-01
DAV:   7    -0.191753200903E+03    0.10962E-02   -0.22286E-03 11920   0.287E-01    0.831E-02
DAV:   8    -0.191753210697E+03   -0.97945E-05   -0.42058E-04  9040   0.159E-01
  78 F= -.19175321E+03 E0= -.19166409E+03  d E =-.594301E-01
       N       E                     dE             d eps       ncg     rms          rms(c)
DAV:   1    -0.191771897069E+03   -0.18696E-01   -0.36456E+00  8160   0.404E+00    0.445E-01
DAV:   2    -0.191785042940E+03   -0.13146E-01   -0.12073E-01 11440   0.150E+00    0.803E-01
DAV:   3    -0.191778930612E+03    0.61123E-02   -0.18654E-02 12320   0.115E+00    0.379E-01
DAV:   4    -0.191778070758E+03    0.85985E-03   -0.51365E-03 12360   0.544E-01    0.327E-01
DAV:   5    -0.191777307812E+03    0.76295E-03   -0.39563E-03 11520   0.510E-01    0.248E-01
DAV:   6    -0.191776883360E+03    0.42445E-03   -0.21938E-03 11240   0.305E-01    0.124E-01
DAV:   7    -0.191776710494E+03    0.17287E-03   -0.78879E-04 10560   0.169E-01    0.976E-02
DAV:   8    -0.191776607870E+03    0.10262E-03   -0.23783E-04  8240   0.118E-01    0.269E-02
DAV:   9    -0.191776605725E+03    0.21450E-05   -0.34414E-05  6480   0.327E-02
  79 F= -.19177661E+03 E0= -.19168747E+03  d E =-.233950E-01
       N       E                     dE             d eps       ncg     rms          rms(c)
DAV:   1    -0.191783471092E+03   -0.68632E-02   -0.92060E+00  8160   0.638E+00    0.608E-01
DAV:   2    -0.191810543062E+03   -0.27072E-01   -0.26056E-01 11000   0.184E+00    0.104E+00
DAV:   3    -0.191803637638E+03    0.69054E-02   -0.42567E-02 12560   0.163E+00    0.715E-01
DAV:   4    -0.191798473598E+03    0.51640E-02   -0.10520E-02 12480   0.754E-01    0.279E-01
DAV:   5    -0.191798050024E+03    0.42357E-03   -0.40402E-03 12200   0.475E-01    0.276E-01
DAV:   6    -0.191797949924E+03    0.10010E-03   -0.34716E-03 12720   0.482E-01    0.227E-01
DAV:   7    -0.191797212599E+03    0.73733E-03   -0.15877E-03 11440   0.256E-01    0.608E-02
DAV:   8    -0.191797220593E+03   -0.79942E-05   -0.29898E-04  8280   0.119E-01
  80 F= -.19179722E+03 E0= -.19170859E+03  d E =-.206149E-01
       N       E                     dE             d eps       ncg     rms          rms(c)
DAV:   1    -0.191797126017E+03    0.86582E-04   -0.75522E-01  8160   0.183E+00    0.174E-01
DAV:   2    -0.191799397390E+03   -0.22714E-02   -0.14096E-02 12320   0.567E-01    0.427E-01
DAV:   3    -0.191797507955E+03    0.18894E-02   -0.43689E-03 12120   0.518E-01    0.149E-01
DAV:   4    -0.191797317076E+03    0.19088E-03   -0.72611E-04 10360   0.160E-01    0.821E-02
DAV:   5    -0.191797241931E+03    0.75145E-04   -0.40912E-04 10080   0.120E-01
  81 F= -.19179724E+03 E0= -.19170910E+03  d E =-.213380E-04
       N       E                     dE             d eps       ncg     rms          rms(c)
DAV:   1    -0.191799716419E+03   -0.23993E-02   -0.22878E-01  8160   0.102E+00    0.114E-01
DAV:   2    -0.191801032099E+03   -0.13157E-02   -0.90516E-03 11120   0.384E-01    0.258E-01
DAV:   3    -0.191800273821E+03    0.75828E-03   -0.20140E-03 11960   0.356E-01    0.984E-02
DAV:   4    -0.191800212657E+03    0.61164E-04   -0.29681E-04  8880   0.124E-01
  82 F= -.19180021E+03 E0= -.19171249E+03  d E =-.297073E-02
       N       E                     dE             d eps       ncg     rms          rms(c)
DAV:   1    -0.191801655013E+03   -0.13812E-02   -0.70991E-02  8160   0.570E-01    0.868E-02
DAV:   2    -0.191802071640E+03   -0.41663E-03   -0.29399E-03 12920   0.259E-01    0.172E-01
DAV:   3    -0.191801719871E+03    0.35177E-03   -0.71691E-04 10280   0.227E-01    0.620E-02
DAV:   4    -0.191801716601E+03    0.32699E-05   -0.16085E-04  6800   0.919E-02
  83 F= -.19180172E+03 E0= -.19171434E+03  d E =-.150394E-02
       N       E                     dE             d eps       ncg     rms          rms(c)
DAV:   1    -0.191803112087E+03   -0.13922E-02   -0.24100E+00  8160   0.329E+00    0.347E-01
DAV:   2    -0.191809137296E+03   -0.60252E-02   -0.87255E-02 11880   0.837E-01    0.232E-01
DAV:   3    -0.191809323183E+03   -0.18589E-03   -0.62035E-03 12520   0.452E-01    0.317E-01
DAV:   4    -0.191808436670E+03    0.88651E-03   -0.34945E-03 12560   0.486E-01    0.223E-01
DAV:   5    -0.191807993951E+03    0.44272E-03   -0.14713E-03 10640   0.275E-01    0.107E-01
DAV:   6    -0.191808040720E+03   -0.46769E-04   -0.82384E-04 11280   0.188E-01
  84 F= -.19180804E+03 E0= -.19172227E+03  d E =-.632412E-02
       N       E                     dE             d eps       ncg     rms          rms(c)
DAV:   1    -0.191808097284E+03   -0.10333E-03   -0.39397E-02  8320   0.444E-01    0.830E-02
DAV:   2    -0.191808409518E+03   -0.31223E-03   -0.21738E-03 12720   0.252E-01    0.185E-01
DAV:   3    -0.191808037848E+03    0.37167E-03   -0.83311E-04 10120   0.236E-01    0.643E-02
DAV:   4    -0.191808014879E+03    0.22968E-04   -0.17232E-04  7320   0.994E-02
  85 F= -.19180801E+03 E0= -.19172264E+03  d E =0.258409E-04
