<?xml version="1.0" encoding="ISO-8859-1"?>
<modeling>
 <generator>
  <i name="program" type="string">vasp </i>
  <i name="version" type="string">5.4.1  </i>
  <i name="subversion" type="string">05Feb16 (build Jul 05 2020 17:13:04) complex                          parallel </i>
  <i name="platform" type="string">IFC91_ompi </i>
  <i name="date" type="string">2024 04 22 </i>
  <i name="time" type="string">02:12:23 </i>
 </generator>
 <incar>
  <i type="int" name="ISTART">     0</i>
  <i type="string" name="PREC">normal</i>
  <i type="string" name="ALGO"> Normal</i>
  <i type="int" name="ISPIN">     1</i>
  <i type="int" name="ICHARG">     2</i>
  <i type="int" name="IBRION">     1</i>
  <i type="int" name="NSW">   100</i>
  <i type="int" name="ISIF">     3</i>
  <i type="int" name="ISYM">     0</i>
  <i name="SYMPREC">      0.00000001</i>
  <i name="POTIM">      0.50000000</i>
  <i type="logical" name="LREAL"> F  </i>
  <i type="logical" name="LPLANE"> F  </i>
  <i type="int" name="ISMEAR">     0</i>
  <i type="logical" name="LWAVE"> F  </i>
  <i type="logical" name="LCHARG"> F  </i>
  <v type="int" name="KPOINT_BSE">    -1     0     0     0</v>
 </incar>
 <kpoints>
  <generation param="Gamma">
   <v type="int" name="divisions">       8        8        1 </v>
   <v name="usershift">      0.00000000       0.00000000       0.00000000 </v>
   <v name="genvec1">      0.12500000       0.00000000       0.00000000 </v>
   <v name="genvec2">     -0.00000000       0.12500000       0.00000000 </v>
   <v name="genvec3">      0.00000000       0.00000000       1.00000000 </v>
   <v name="shift">      0.00000000       0.00000000       0.00000000 </v>
  </generation>
  <varray name="kpointlist" >
   <v>       0.00000000       0.00000000       0.00000000 </v>
   <v>       0.12500000       0.00000000       0.00000000 </v>
   <v>       0.25000000       0.00000000       0.00000000 </v>
   <v>       0.37500000       0.00000000       0.00000000 </v>
   <v>       0.50000000       0.00000000       0.00000000 </v>
   <v>       0.00000000       0.12500000       0.00000000 </v>
   <v>       0.12500000       0.12500000       0.00000000 </v>
   <v>       0.25000000       0.12500000       0.00000000 </v>
   <v>       0.37500000       0.12500000       0.00000000 </v>
   <v>       0.50000000       0.12500000       0.00000000 </v>
   <v>      -0.37500000       0.12500000       0.00000000 </v>
   <v>      -0.25000000       0.12500000       0.00000000 </v>
   <v>      -0.12500000       0.12500000       0.00000000 </v>
   <v>       0.00000000       0.25000000       0.00000000 </v>
   <v>       0.12500000       0.25000000       0.00000000 </v>
   <v>       0.25000000       0.25000000       0.00000000 </v>
   <v>       0.37500000       0.25000000       0.00000000 </v>
   <v>       0.50000000       0.25000000       0.00000000 </v>
   <v>      -0.37500000       0.25000000       0.00000000 </v>
   <v>      -0.25000000       0.25000000       0.00000000 </v>
   <v>      -0.12500000       0.25000000       0.00000000 </v>
   <v>      -0.00000000       0.37500000       0.00000000 </v>
   <v>       0.12500000       0.37500000       0.00000000 </v>
   <v>       0.25000000       0.37500000       0.00000000 </v>
   <v>       0.37500000       0.37500000       0.00000000 </v>
   <v>       0.50000000       0.37500000       0.00000000 </v>
   <v>      -0.37500000       0.37500000       0.00000000 </v>
   <v>      -0.25000000       0.37500000       0.00000000 </v>
   <v>      -0.12500000       0.37500000       0.00000000 </v>
   <v>       0.00000000       0.50000000       0.00000000 </v>
   <v>       0.12500000       0.50000000       0.00000000 </v>
   <v>       0.25000000       0.50000000       0.00000000 </v>
   <v>       0.37500000       0.50000000       0.00000000 </v>
   <v>       0.50000000       0.50000000       0.00000000 </v>
  </varray>
  <varray name="weights" >
   <v>       0.01562500 </v>
   <v>       0.03125000 </v>
   <v>       0.03125000 </v>
   <v>       0.03125000 </v>
   <v>       0.01562500 </v>
   <v>       0.03125000 </v>
   <v>       0.03125000 </v>
   <v>       0.03125000 </v>
   <v>       0.03125000 </v>
   <v>       0.03125000 </v>
   <v>       0.03125000 </v>
   <v>       0.03125000 </v>
   <v>       0.03125000 </v>
   <v>       0.03125000 </v>
   <v>       0.03125000 </v>
   <v>       0.03125000 </v>
   <v>       0.03125000 </v>
   <v>       0.03125000 </v>
   <v>       0.03125000 </v>
   <v>       0.03125000 </v>
   <v>       0.03125000 </v>
   <v>       0.03125000 </v>
   <v>       0.03125000 </v>
   <v>       0.03125000 </v>
   <v>       0.03125000 </v>
   <v>       0.03125000 </v>
   <v>       0.03125000 </v>
   <v>       0.03125000 </v>
   <v>       0.03125000 </v>
   <v>       0.01562500 </v>
   <v>       0.03125000 </v>
   <v>       0.03125000 </v>
   <v>       0.03125000 </v>
   <v>       0.01562500 </v>
  </varray>
 </kpoints>
 <parameters>
  <separator name="general" >
   <i type="string" name="SYSTEM">unknown system</i>
   <i type="logical" name="LCOMPAT"> F  </i>
  </separator>
  <separator name="electronic" >
   <i type="string" name="PREC">normal</i>
   <i name="ENMAX">    280.00000000</i>
   <i name="ENAUG">    373.43800000</i>
   <i name="EDIFF">      0.00010000</i>
   <i type="int" name="IALGO">    38</i>
   <i type="int" name="IWAVPR">    11</i>
   <i type="int" name="NBANDS">   120</i>
   <i name="NELECT">    159.00000000</i>
   <i type="int" name="TURBO">     0</i>
   <i type="int" name="IRESTART">     0</i>
   <i type="int" name="NREBOOT">     0</i>
   <i type="int" name="NMIN">     0</i>
   <i name="EREF">      0.00000000</i>
   <separator name="electronic smearing" >
    <i type="int" name="ISMEAR">     0</i>
    <i name="SIGMA">      0.20000000</i>
    <i name="KSPACING">      0.50000000</i>
    <i type="logical" name="KGAMMA"> T  </i>
   </separator>
   <separator name="electronic projectors" >
    <i type="logical" name="LREAL"> F  </i>
    <v name="ROPT">      0.00000000      0.00000000      0.00000000      0.00000000</v>
    <i type="int" name="LMAXPAW">  -100</i>
    <i type="int" name="LMAXMIX">     2</i>
    <i type="logical" name="NLSPLINE"> F  </i>
   </separator>
   <separator name="electronic startup" >
    <i type="int" name="ISTART">     0</i>
    <i type="int" name="ICHARG">     2</i>
    <i type="int" name="INIWAV">     1</i>
   </separator>
   <separator name="electronic spin" >
    <i type="int" name="ISPIN">     1</i>
    <i type="logical" name="LNONCOLLINEAR"> F  </i>
    <v name="MAGMOM">      1.00000000      1.00000000      1.00000000      1.00000000      1.00000000      1.00000000      1.00000000      1.00000000      1.00000000      1.00000000      1.00000000      1.00000000      1.00000000      1.00000000      1.00000000      1.00000000      1.00000000      1.00000000      1.00000000      1.00000000
      1.00000000      1.00000000      1.00000000      1.00000000      1.00000000      1.00000000      1.00000000</v>
    <i name="NUPDOWN">     -1.00000000</i>
    <i type="logical" name="LSORBIT"> F  </i>
    <v name="SAXIS">      0.00000000      0.00000000      1.00000000</v>
    <i type="logical" name="LSPIRAL"> F  </i>
    <v name="QSPIRAL">      0.00000000      0.00000000      0.00000000</v>
    <i type="logical" name="LZEROZ"> F  </i>
   </separator>
   <separator name="electronic exchange-correlation" >
    <i type="logical" name="LASPH"> F  </i>
    <i type="logical" name="LMETAGGA"> F  </i>
   </separator>
   <separator name="electronic convergence" >
    <i type="int" name="NELM">    60</i>
    <i type="int" name="NELMDL">    -5</i>
    <i type="int" name="NELMIN">     2</i>
    <i name="ENINI">    280.00000000</i>
    <separator name="electronic convergence detail" >
     <i type="logical" name="LDIAG"> T  </i>
     <i type="logical" name="LSUBROT"> F  </i>
     <i name="WEIMIN">      0.00100000</i>
     <i name="EBREAK">      0.00000021</i>
     <i name="DEPER">      0.30000000</i>
     <i type="int" name="NRMM">     4</i>
     <i name="TIME">      0.40000000</i>
    </separator>
   </separator>
   <separator name="electronic mixer" >
    <i name="AMIX">      0.40000000</i>
    <i name="BMIX">      1.00000000</i>
    <i name="AMIN">      0.10000000</i>
    <i name="AMIX_MAG">      1.60000000</i>
    <i name="BMIX_MAG">      1.00000000</i>
    <separator name="electronic mixer details" >
     <i type="int" name="IMIX">     4</i>
     <i type="logical" name="MIXFIRST"> F  </i>
     <i type="int" name="MAXMIX">   -45</i>
     <i name="WC">    100.00000000</i>
     <i type="int" name="INIMIX">     1</i>
     <i type="int" name="MIXPRE">     1</i>
     <i type="int" name="MREMOVE">     5</i>
    </separator>
   </separator>
   <separator name="electronic dipolcorrection" >
    <i type="logical" name="LDIPOL"> F  </i>
    <i type="logical" name="LMONO"> F  </i>
    <i type="int" name="IDIPOL">     0</i>
    <i name="EPSILON">      1.00000000</i>
    <v name="DIPOL">   -100.00000000   -100.00000000   -100.00000000</v>
    <i name="EFIELD">      0.00000000</i>
   </separator>
  </separator>
  <separator name="grids" >
   <i type="int" name="NGX">    42</i>
   <i type="int" name="NGY">    42</i>
   <i type="int" name="NGZ">   126</i>
   <i type="int" name="NGXF">    84</i>
   <i type="int" name="NGYF">    84</i>
   <i type="int" name="NGZF">   252</i>
   <i type="logical" name="ADDGRID"> F  </i>
  </separator>
  <separator name="ionic" >
   <i type="int" name="NSW">   100</i>
   <i type="int" name="IBRION">     1</i>
   <i type="int" name="ISIF">     3</i>
   <i name="PSTRESS">      0.00000000</i>
   <i name="EDIFFG">      0.00100000</i>
   <i type="int" name="NFREE">     0</i>
   <i name="POTIM">      0.50000000</i>
   <i name="SMASS">     -3.00000000</i>
   <i name="SCALEE">      1.00000000</i>
  </separator>
  <separator name="ionic md" >
   <i name="TEBEG">      0.00010000</i>
   <i name="TEEND">      0.00010000</i>
   <i type="int" name="NBLOCK">     1</i>
   <i type="int" name="KBLOCK">   100</i>
   <i type="int" name="NPACO">   256</i>
   <i name="APACO">     16.00000000</i>
  </separator>
  <separator name="symmetry" >
   <i type="int" name="ISYM">     0</i>
   <i name="SYMPREC">      0.00000001</i>
  </separator>
  <separator name="dos" >
   <i type="logical" name="LORBIT"> F  </i>
   <v name="RWIGS">     -1.00000000     -1.00000000     -1.00000000     -1.00000000</v>
   <i type="int" name="NEDOS">   301</i>
   <i name="EMIN">     10.00000000</i>
   <i name="EMAX">    -10.00000000</i>
   <i name="EFERMI">      0.00000000</i>
  </separator>
  <separator name="writing" >
   <i type="int" name="NWRITE">     2</i>
   <i type="logical" name="LWAVE"> F  </i>
   <i type="logical" name="LCHARG"> F  </i>
   <i type="logical" name="LPARD"> F  </i>
   <i type="logical" name="LVTOT"> F  </i>
   <i type="logical" name="LVHAR"> F  </i>
   <i type="logical" name="LELF"> F  </i>
   <i type="logical" name="LOPTICS"> F  </i>
   <v name="STM">      0.00000000      0.00000000      0.00000000      0.00000000      0.00000000      0.00000000      0.00000000</v>
  </separator>
  <separator name="performance" >
   <i type="int" name="NPAR">    40</i>
   <i type="int" name="NSIM">     4</i>
   <i type="int" name="NBLK">    -1</i>
   <i type="logical" name="LPLANE"> F  </i>
   <i type="logical" name="LSCALAPACK"> T  </i>
   <i type="logical" name="LSCAAWARE"> F  </i>
   <i type="logical" name="LSCALU"> F  </i>
   <i type="logical" name="LASYNC"> F  </i>
   <i type="logical" name="LORBITALREAL"> F  </i>
  </separator>
  <separator name="miscellaneous" >
   <i type="int" name="IDIOT">     3</i>
   <i type="logical" name="LMUSIC"> F  </i>
   <v name="POMASS">     50.94100000     95.94000000    183.85000000     32.06600000</v>
   <v name="DARWINR">      0.00000000      0.00000000      0.00000000      0.00000000</v>
   <v name="DARWINV">      1.00000000      1.00000000      1.00000000      1.00000000</v>
   <i type="logical" name="LCORR"> T  </i>
  </separator>
  <i type="logical" name="GGA_COMPAT"> T  </i>
  <i type="logical" name="LBERRY"> F  </i>
  <i type="int" name="ICORELEVEL">     0</i>
  <i type="logical" name="LDAU"> F  </i>
  <i type="int" name="I_CONSTRAINED_M">     0</i>
  <separator name="electronic exchange-correlation" >
   <i type="string" name="GGA">--</i>
   <i type="int" name="VOSKOWN">     0</i>
   <i type="logical" name="LHFCALC"> F  </i>
   <i type="string" name="PRECFOCK"></i>
   <i type="logical" name="LSYMGRAD"> F  </i>
   <i type="logical" name="LHFONE"> F  </i>
   <i type="logical" name="LRHFCALC"> F  </i>
   <i type="logical" name="LTHOMAS"> F  </i>
   <i type="logical" name="LMODELHF"> F  </i>
   <i name="ENCUT4O">     -1.00000000</i>
   <i type="int" name="EXXOEP">     0</i>
   <i type="int" name="FOURORBIT">     0</i>
   <i name="AEXX">      0.00000000</i>
   <i name="HFALPHA">      0.00000000</i>
   <i name="MCALPHA">      0.00000000</i>
   <i name="ALDAX">      1.00000000</i>
   <i name="AGGAX">      1.00000000</i>
   <i name="ALDAC">      1.00000000</i>
   <i name="AGGAC">      1.00000000</i>
   <i type="int" name="NKREDX">     1</i>
   <i type="int" name="NKREDY">     1</i>
   <i type="int" name="NKREDZ">     1</i>
   <i type="logical" name="SHIFTRED"> F  </i>
   <i type="logical" name="ODDONLY"> F  </i>
   <i type="logical" name="EVENONLY"> F  </i>
   <i type="int" name="LMAXFOCK">     0</i>
   <i type="int" name="NMAXFOCKAE">     0</i>
   <i type="logical" name="LFOCKAEDFT"> F  </i>
   <i name="HFSCREEN">      0.00000000</i>
   <i name="HFSCREENC">      0.00000000</i>
   <i type="int" name="NBANDSGWLOW">     0</i>
  </separator>
  <separator name="vdW DFT" >
   <i type="logical" name="LUSE_VDW"> F  </i>
   <i name="Zab_VDW">     -0.84910000</i>
   <i name="PARAM1">      0.12340000</i>
   <i name="PARAM2">      1.00000000</i>
   <i name="PARAM3">      0.00000000</i>
  </separator>
  <separator name="model GW" >
   <i type="int" name="MODEL_GW">     0</i>
   <i name="MODEL_EPS0">     58.26239943</i>
   <i name="MODEL_ALPHA">      1.00000000</i>
  </separator>
  <separator name="linear response parameters" >
   <i type="logical" name="LEPSILON"> F  </i>
   <i type="logical" name="LRPA"> F  </i>
   <i type="logical" name="LNABLA"> F  </i>
   <i type="logical" name="LVEL"> F  </i>
   <i type="int" name="KINTER">     0</i>
   <i name="CSHIFT">      0.10000000</i>
   <i name="OMEGAMAX">     -1.00000000</i>
   <i name="DEG_THRESHOLD">      0.00200000</i>
  </separator>
  <separator name="orbital magnetization" >
   <i type="logical" name="NUCIND"> F  </i>
   <v name="MAGPOS">      0.00000000      0.00000000      0.00000000</v>
   <i type="logical" name="LNICSALL"> T  </i>
   <i type="logical" name="ORBITALMAG"> F  </i>
   <i type="logical" name="LMAGBLOCH"> F  </i>
   <i type="logical" name="LCHIMAG"> F  </i>
   <i type="logical" name="LGAUGE"> T  </i>
   <i type="int" name="MAGATOM">     0</i>
   <v name="MAGDIPOL">      0.00000000      0.00000000      0.00000000</v>
   <v name="AVECCONST">      0.00000000      0.00000000      0.00000000</v>
  </separator>
  <separator name="response functions" >
   <i type="logical" name="LADDER"> F  </i>
   <i type="logical" name="LFXC"> F  </i>
   <i type="logical" name="LHARTREE"> T  </i>
   <i type="int" name="IBSE">     0</i>
   <v type="int" name="KPOINT">    -1     0     0     0</v>
   <i type="logical" name="LTCTE"> F  </i>
   <i type="logical" name="LTETE"> F  </i>
   <i type="logical" name="LTRIPLET"> F  </i>
   <i type="logical" name="LFXCEPS"> F  </i>
   <i type="logical" name="LFXHEG"> F  </i>
   <i type="int" name="NATURALO">     0</i>
   <i type="logical" name="L2ORDER"> F  </i>
   <i type="logical" name="LUSEW"> F  </i>
   <i name="ENCUTGW">     -2.00000000</i>
   <i name="ENCUTGWSOFT">     -2.00000000</i>
   <i name="ENCUTLF">     -1.00000000</i>
   <i type="int" name="LMAXMP2">    -1</i>
   <i name="SCISSOR">      0.00000000</i>
   <i type="int" name="NOMEGA">     0</i>
   <i type="int" name="NOMEGAR">     0</i>
   <i type="int" name="NBANDSGW">    -1</i>
   <i type="int" name="NBANDSO">    -1</i>
   <i type="int" name="NBANDSV">    -1</i>
   <i type="int" name="NELM">     1</i>
   <i type="int" name="NELMHF">     1</i>
   <i type="int" name="DIM">     3</i>
   <i type="int" name="ANTIRES">     0</i>
   <i name="OMEGAMAX">    -30.00000000</i>
   <i name="OMEGAMIN">    -30.00000000</i>
   <i name="OMEGATL">   -200.00000000</i>
   <i type="int" name="OMEGAGRID">     0</i>
   <i name="CSHIFT">     -0.10000000</i>
   <i type="logical" name="SELFENERGY"> F  </i>
   <i type="logical" name="LSPECTRAL"> F  </i>
   <i type="logical" name="LSPECTRALGW"> F  </i>
   <i type="logical" name="LSINGLES"> F  </i>
   <i type="logical" name="LFERMIGW"> F  </i>
   <i type="logical" name="ODDONLYGW"> F  </i>
   <i type="logical" name="EVENONLYGW"> F  </i>
   <i type="int" name="NKREDLFX">     1</i>
   <i type="int" name="NKREDLFY">     1</i>
   <i type="int" name="NKREDLFZ">     1</i>
   <i type="int" name="MAXMEM">  1800</i>
   <i type="int" name="TELESCOPE">     0</i>
   <i type="int" name="TAUPAR">     1</i>
   <i type="int" name="OMEGAPAR">    -1</i>
   <i name="LAMBDA">      1.00000000</i>
  </separator>
  <separator name="External order field" >
   <i name="OFIELD_KAPPA">      0.00000000</i>
   <v name="OFIELD_K">      0.00000000      0.00000000      0.00000000</v>
   <i name="OFIELD_Q6_NEAR">      0.00000000</i>
   <i name="OFIELD_Q6_FAR">      0.00000000</i>
   <i name="OFIELD_A">      0.00000000</i>
  </separator>
 </parameters>
 <atominfo>
  <atoms>      27 </atoms>
  <types>       4 </types>
  <array name="atoms" >
   <dimension dim="1">ion</dimension>
   <field type="string">element</field>
   <field type="int">atomtype</field>
   <set>
    <rc><c>V </c><c>   1</c></rc>
    <rc><c>V </c><c>   1</c></rc>
    <rc><c>V </c><c>   1</c></rc>
    <rc><c>Mo</c><c>   2</c></rc>
    <rc><c>Mo</c><c>   2</c></rc>
    <rc><c>Mo</c><c>   2</c></rc>
    <rc><c>W </c><c>   3</c></rc>
    <rc><c>W </c><c>   3</c></rc>
    <rc><c>W </c><c>   3</c></rc>
    <rc><c>S </c><c>   4</c></rc>
    <rc><c>S </c><c>   4</c></rc>
    <rc><c>S </c><c>   4</c></rc>
    <rc><c>S </c><c>   4</c></rc>
    <rc><c>S </c><c>   4</c></rc>
    <rc><c>S </c><c>   4</c></rc>
    <rc><c>S </c><c>   4</c></rc>
    <rc><c>S </c><c>   4</c></rc>
    <rc><c>S </c><c>   4</c></rc>
    <rc><c>S </c><c>   4</c></rc>
    <rc><c>S </c><c>   4</c></rc>
    <rc><c>S </c><c>   4</c></rc>
    <rc><c>S </c><c>   4</c></rc>
    <rc><c>S </c><c>   4</c></rc>
    <rc><c>S </c><c>   4</c></rc>
    <rc><c>S </c><c>   4</c></rc>
    <rc><c>S </c><c>   4</c></rc>
    <rc><c>S </c><c>   4</c></rc>
   </set>
  </array>
  <array name="atomtypes" >
   <dimension dim="1">type</dimension>
   <field type="int">atomspertype</field>
   <field type="string">element</field>
   <field>mass</field>
   <field>valence</field>
   <field type="string">pseudopotential</field>
   <set>
    <rc><c>   3</c><c>V </c><c>     50.94100000</c><c>      5.00000000</c><c> PAW_PBE V 08Apr2002                    </c></rc>
    <rc><c>   3</c><c>Mo</c><c>     95.94000000</c><c>      6.00000000</c><c> PAW_PBE Mo 08Apr2002                   </c></rc>
    <rc><c>   3</c><c>W </c><c>    183.85000000</c><c>      6.00000000</c><c> PAW_PBE W 08Apr2002                    </c></rc>
    <rc><c>  18</c><c>S </c><c>     32.06600000</c><c>      6.00000000</c><c>  PAW_PBE S 17Jan2003                   </c></rc>
   </set>
  </array>
 </atominfo>
 <structure name="initialpos" >
  <crystal>
   <varray name="basis" >
    <v>       8.66999996       5.03999989       0.00000000 </v>
    <v>      -8.66999982       5.04000013       0.00000000 </v>
    <v>       0.00000000       0.00000000      30.00000000 </v>
   </varray>
   <i name="volume">   2621.80797419 </i>
   <varray name="rec_basis" >
    <v>       0.05767013       0.09920635       0.00000000 </v>
    <v>      -0.05767013       0.09920635       0.00000000 </v>
    <v>       0.00000000       0.00000000       0.03333333 </v>
   </varray>
  </crystal>
  <varray name="positions" >
   <v>       0.00000000       0.66666669       0.00000000 </v>
   <v>       0.66666669       0.33333334       0.00000000 </v>
   <v>       0.33333334       0.66666669       0.00000000 </v>
   <v>       0.66666669       0.66666669       0.00000000 </v>
   <v>       1.00000000       0.33333334       0.00000000 </v>
   <v>       0.33333334       0.00000000       0.00000000 </v>
   <v>       0.00000000       0.00000000       0.00000000 </v>
   <v>       0.33333334       0.33333334       0.00000000 </v>
   <v>       0.66666669       0.00000000       0.00000000 </v>
   <v>       0.11068511       0.22244981       0.95539999 </v>
   <v>       0.22244981       0.11068511       0.04460000 </v>
   <v>       0.11068511       0.55578315       0.95539999 </v>
   <v>       0.22244981       0.44401845       0.04460000 </v>
   <v>       0.11068511       0.88911647       0.95539999 </v>
   <v>       0.22244981       0.77735180       0.04460000 </v>
   <v>       0.44401845       0.22244981       0.95539999 </v>
   <v>       0.55578315       0.11068511       0.04460000 </v>
   <v>       0.44401845       0.55578315       0.95539999 </v>
   <v>       0.55578315       0.44401845       0.04460000 </v>
   <v>       0.44401845       0.88911647       0.95539999 </v>
   <v>       0.55578315       0.77735180       0.04460000 </v>
   <v>       0.77735180       0.22244981       0.95539999 </v>
   <v>       0.88911647       0.11068511       0.04460000 </v>
   <v>       0.77735180       0.55578315       0.95539999 </v>
   <v>       0.88911647       0.44401845       0.04460000 </v>
   <v>       0.77735180       0.88911647       0.95539999 </v>
   <v>       0.88911647       0.77735180       0.04460000 </v>
  </varray>
 </structure>
 <calculation>
  <scstep>
   <time name="dav">   21.65   21.70</time>
   <time name="total">   21.69   21.75</time>
   <energy>
    <i name="alphaZ">     81.65567618 </i>
    <i name="ewald">  41890.23010370 </i>
    <i name="hartreedc"> -47722.87971485 </i>
    <i name="XCdc">   -242.92665272 </i>
    <i name="pawpsdc">   3467.42045192 </i>
    <i name="pawaedc">  -2871.19716117 </i>
    <i name="eentropy">     -0.53457790 </i>
    <i name="bandstr">   -239.22758599 </i>
    <i name="atom">   6761.44252427 </i>
    <i name="e_fr_energy">   1123.98306343 </i>
    <i name="e_wo_entrp">   1124.51764134 </i>
    <i name="e_0_energy">   1124.25035238 </i>
   </energy>
  </scstep>
  <scstep>
   <time name="dav">   27.57   27.64</time>
   <time name="total">   27.58   27.65</time>
   <energy>
    <i name="e_fr_energy">     -1.93854296 </i>
    <i name="e_wo_entrp">     -1.77343060 </i>
    <i name="e_0_energy">     -1.85598678 </i>
   </energy>
  </scstep>
  <scstep>
   <time name="dav">   27.43   27.50</time>
   <time name="total">   27.43   27.51</time>
   <energy>
    <i name="e_fr_energy">   -199.68608895 </i>
    <i name="e_wo_entrp">   -199.41227312 </i>
    <i name="e_0_energy">   -199.54918103 </i>
   </energy>
  </scstep>
  <scstep>
   <time name="dav">   30.07   30.14</time>
   <time name="total">   30.07   30.15</time>
   <energy>
    <i name="e_fr_energy">   -209.06302391 </i>
    <i name="e_wo_entrp">   -208.73851326 </i>
    <i name="e_0_energy">   -208.90076859 </i>
   </energy>
  </scstep>
  <scstep>
   <time name="dav">   28.48   28.55</time>
   <time name="total">   28.95   29.03</time>
   <energy>
    <i name="e_fr_energy">   -209.39366011 </i>
    <i name="e_wo_entrp">   -209.07137002 </i>
    <i name="e_0_energy">   -209.23251507 </i>
   </energy>
  </scstep>
  <scstep>
   <time name="dav">   30.46   30.54</time>
   <time name="total">   30.96   31.04</time>
   <energy>
    <i name="e_fr_energy">   -237.09510797 </i>
    <i name="e_wo_entrp">   -236.79537401 </i>
    <i name="e_0_energy">   -236.94524099 </i>
   </energy>
  </scstep>
  <scstep>
   <time name="dav">   32.86   32.94</time>
   <time name="total">   33.37   33.46</time>
   <energy>
    <i name="e_fr_energy">   -196.36973634 </i>
    <i name="e_wo_entrp">   -196.08411388 </i>
    <i name="e_0_energy">   -196.22692511 </i>
   </energy>
  </scstep>
  <scstep>
   <time name="dav">   29.50   29.57</time>
   <time name="total">   30.01   30.09</time>
   <energy>
    <i name="e_fr_energy">   -189.12090364 </i>
    <i name="e_wo_entrp">   -188.81387102 </i>
    <i name="e_0_energy">   -188.96738733 </i>
   </energy>
  </scstep>
  <scstep>
   <time name="dav">   32.90   32.98</time>
   <time name="total">   33.43   33.52</time>
   <energy>
    <i name="e_fr_energy">   -187.44262845 </i>
    <i name="e_wo_entrp">   -187.13003177 </i>
    <i name="e_0_energy">   -187.28633011 </i>
   </energy>
  </scstep>
  <scstep>
   <time name="dav">   32.67   32.75</time>
   <time name="total">   33.21   33.29</time>
   <energy>
    <i name="e_fr_energy">   -186.96923324 </i>
    <i name="e_wo_entrp">   -186.61367553 </i>
    <i name="e_0_energy">   -186.79145438 </i>
   </energy>
  </scstep>
  <scstep>
   <time name="dav">   30.99   31.06</time>
   <time name="total">   31.52   31.61</time>
   <energy>
    <i name="e_fr_energy">   -186.97537345 </i>
    <i name="e_wo_entrp">   -186.63669059 </i>
    <i name="e_0_energy">   -186.80603202 </i>
   </energy>
  </scstep>
  <scstep>
   <time name="dav">   32.24   32.32</time>
   <time name="total">   32.78   32.87</time>
   <energy>
    <i name="e_fr_energy">   -186.91871764 </i>
    <i name="e_wo_entrp">   -186.57945283 </i>
    <i name="e_0_energy">   -186.74908523 </i>
   </energy>
  </scstep>
  <scstep>
   <time name="dav">   31.46   31.53</time>
   <time name="total">   31.99   32.08</time>
   <energy>
    <i name="e_fr_energy">   -186.86175196 </i>
    <i name="e_wo_entrp">   -186.51901977 </i>
    <i name="e_0_energy">   -186.69038587 </i>
   </energy>
  </scstep>
  <scstep>
   <time name="dav">   31.37   31.45</time>
   <time name="total">   31.91   32.00</time>
   <energy>
    <i name="e_fr_energy">   -186.84689418 </i>
    <i name="e_wo_entrp">   -186.49762168 </i>
    <i name="e_0_energy">   -186.67225793 </i>
   </energy>
  </scstep>
  <scstep>
   <time name="dav">   29.53   29.61</time>
   <time name="total">   30.07   30.15</time>
   <energy>
    <i name="e_fr_energy">   -186.83775650 </i>
    <i name="e_wo_entrp">   -186.48914487 </i>
    <i name="e_0_energy">   -186.66345068 </i>
   </energy>
  </scstep>
  <scstep>
   <time name="dav">   32.10   32.18</time>
   <time name="total">   32.63   32.72</time>
   <energy>
    <i name="e_fr_energy">   -186.83730598 </i>
    <i name="e_wo_entrp">   -186.48973997 </i>
    <i name="e_0_energy">   -186.66352298 </i>
   </energy>
  </scstep>
  <scstep>
   <time name="dav">   30.48   30.56</time>
   <time name="total">   31.02   31.10</time>
   <energy>
    <i name="e_fr_energy">   -186.83473893 </i>
    <i name="e_wo_entrp">   -186.48932236 </i>
    <i name="e_0_energy">   -186.66203065 </i>
   </energy>
  </scstep>
  <scstep>
   <time name="dav">   30.81   30.88</time>
   <time name="total">   31.34   31.43</time>
   <energy>
    <i name="e_fr_energy">   -186.83368152 </i>
    <i name="e_wo_entrp">   -186.48702165 </i>
    <i name="e_0_energy">   -186.66035159 </i>
   </energy>
  </scstep>
  <scstep>
   <time name="dav">   26.76   26.82</time>
   <time name="total">   27.30   27.37</time>
   <energy>
    <i name="e_fr_energy">   -186.83424478 </i>
    <i name="e_wo_entrp">   -186.48782197 </i>
    <i name="e_0_energy">   -186.66103338 </i>
   </energy>
  </scstep>
  <scstep>
   <time name="dav">   24.67   24.73</time>
   <time name="total">   25.20   25.27</time>
   <energy>
    <i name="e_fr_energy">   -186.83464301 </i>
    <i name="e_wo_entrp">   -186.48840021 </i>
    <i name="e_0_energy">   -186.66152161 </i>
   </energy>
  </scstep>
  <scstep>
   <time name="dav">   20.77   20.82</time>
   <time name="total">   21.31   21.37</time>
   <energy>
    <i name="e_fr_energy">   -186.83551390 </i>
    <i name="e_wo_entrp">   -186.48910675 </i>
    <i name="e_0_energy">   -186.66231032 </i>
   </energy>
  </scstep>
  <scstep>
   <time name="dav">   18.24   18.28</time>
   <time name="total">   18.77   18.82</time>
   <energy>
    <i name="e_fr_energy">   -186.83622508 </i>
    <i name="e_wo_entrp">   -186.48974720 </i>
    <i name="e_0_energy">   -186.66298614 </i>
   </energy>
  </scstep>
  <scstep>
   <time name="dav">   20.29   20.34</time>
   <time name="total">   20.83   20.89</time>
   <energy>
    <i name="e_fr_energy">   -186.83745553 </i>
    <i name="e_wo_entrp">   -186.49109488 </i>
    <i name="e_0_energy">   -186.66427521 </i>
   </energy>
  </scstep>
  <scstep>
   <time name="dav">   18.79   18.84</time>
   <time name="total">   19.33   19.38</time>
   <energy>
    <i name="e_fr_energy">   -186.83800680 </i>
    <i name="e_wo_entrp">   -186.49162978 </i>
    <i name="e_0_energy">   -186.66481829 </i>
   </energy>
  </scstep>
  <scstep>
   <time name="dav">   16.35   16.39</time>
   <time name="total">   16.89   16.94</time>
   <energy>
    <i name="e_fr_energy">   -186.83842690 </i>
    <i name="e_wo_entrp">   -186.49200037 </i>
    <i name="e_0_energy">   -186.66521364 </i>
   </energy>
  </scstep>
  <scstep>
   <time name="dav">   18.88   18.93</time>
   <time name="total">   19.42   19.47</time>
   <energy>
    <i name="e_fr_energy">   -186.83864611 </i>
    <i name="e_wo_entrp">   -186.49223681 </i>
    <i name="e_0_energy">   -186.66544146 </i>
   </energy>
  </scstep>
  <scstep>
   <time name="dav">   19.24   19.29</time>
   <time name="total">   19.78   19.83</time>
   <energy>
    <i name="e_fr_energy">   -186.83875056 </i>
    <i name="e_wo_entrp">   -186.49235167 </i>
    <i name="e_0_energy">   -186.66555111 </i>
   </energy>
  </scstep>
  <scstep>
   <time name="dav">   20.30   20.35</time>
   <time name="total">   20.34   20.39</time>
   <energy>
    <i name="alphaZ">     81.65567618 </i>
    <i name="ewald">  41890.23010370 </i>
    <i name="hartreedc"> -47832.77649095 </i>
    <i name="XCdc">   -231.61216140 </i>
    <i name="pawpsdc">   4191.98139087 </i>
    <i name="pawaedc">  -3609.97838897 </i>
    <i name="eentropy">     -0.34639872 </i>
    <i name="bandstr">  -1437.43504304 </i>
    <i name="atom">   6761.44252427 </i>
    <i name="e_fr_energy">   -186.83878806 </i>
    <i name="e_wo_entrp">   -186.49238934 </i>
    <i name="e_0_energy">   -186.66558870 </i>
   </energy>
  </scstep>
  <structure>
   <crystal>
    <varray name="basis" >
     <v>       8.66999996       5.03999989       0.00000000 </v>
     <v>      -8.66999982       5.04000013       0.00000000 </v>
     <v>       0.00000000       0.00000000      30.00000000 </v>
    </varray>
    <i name="volume">   2621.80797419 </i>
    <varray name="rec_basis" >
     <v>       0.05767013       0.09920635       0.00000000 </v>
     <v>      -0.05767013       0.09920635       0.00000000 </v>
     <v>       0.00000000       0.00000000       0.03333333 </v>
    </varray>
   </crystal>
   <varray name="positions" >
    <v>       0.00000000       0.66666669       0.00000000 </v>
    <v>       0.66666669       0.33333334       0.00000000 </v>
    <v>       0.33333334       0.66666669       0.00000000 </v>
    <v>       0.66666669       0.66666669       0.00000000 </v>
    <v>       1.00000000       0.33333334       0.00000000 </v>
    <v>       0.33333334       0.00000000       0.00000000 </v>
    <v>       0.00000000       0.00000000       0.00000000 </v>
    <v>       0.33333334       0.33333334       0.00000000 </v>
    <v>       0.66666669       0.00000000       0.00000000 </v>
    <v>       0.11068511       0.22244981       0.95539999 </v>
    <v>       0.22244981       0.11068511       0.04460000 </v>
    <v>       0.11068511       0.55578315       0.95539999 </v>
    <v>       0.22244981       0.44401845       0.04460000 </v>
    <v>       0.11068511       0.88911647       0.95539999 </v>
    <v>       0.22244981       0.77735180       0.04460000 </v>
    <v>       0.44401845       0.22244981       0.95539999 </v>
    <v>       0.55578315       0.11068511       0.04460000 </v>
    <v>       0.44401845       0.55578315       0.95539999 </v>
    <v>       0.55578315       0.44401845       0.04460000 </v>
    <v>       0.44401845       0.88911647       0.95539999 </v>
    <v>       0.55578315       0.77735180       0.04460000 </v>
    <v>       0.77735180       0.22244981       0.95539999 </v>
    <v>       0.88911647       0.11068511       0.04460000 </v>
    <v>       0.77735180       0.55578315       0.95539999 </v>
    <v>       0.88911647       0.44401845       0.04460000 </v>
    <v>       0.77735180       0.88911647       0.95539999 </v>
    <v>       0.88911647       0.77735180       0.04460000 </v>
   </varray>
  </structure>
  <varray name="forces" >
   <v>       0.09465918      -0.05445681      -0.00269077 </v>
   <v>       0.00234259       0.10373384      -0.10460779 </v>
   <v>      -0.09476793      -0.03686285       0.10869304 </v>
   <v>       0.03724640       0.01020564      -0.04570078 </v>
   <v>      -0.04474782       0.01192124       0.00923587 </v>
   <v>       0.00683491      -0.03585578       0.03641530 </v>
   <v>       0.06765862      -0.02494175      -0.00567117 </v>
   <v>       0.00446716       0.05401456      -0.13089339 </v>
   <v>      -0.07164970      -0.04786774       0.13475518 </v>
   <v>       0.28882796       0.01029866      -2.90916031 </v>
   <v>      -0.27205299      -0.02331468       2.89235340 </v>
   <v>      -0.32481328       0.66318525      -1.42281670 </v>
   <v>      -0.39550731       0.72091574       2.16986653 </v>
   <v>       0.35914602      -0.69434997      -2.15908757 </v>
   <v>       0.34421328      -0.66168021       1.43146831 </v>
   <v>       0.36012716       0.72137057      -2.18422379 </v>
   <v>      -0.34543510       0.69227465       2.14935845 </v>
   <v>      -0.64326925      -0.16171885      -2.09854485 </v>
   <v>       0.66000720      -0.13890888       2.10272213 </v>
   <v>       0.60808277      -0.55342847      -2.14187623 </v>
   <v>      -0.63118186      -0.55654160       2.17223124 </v>
   <v>      -0.69545860      -0.13362521      -2.12668425 </v>
   <v>      -0.05344149      -0.15263986       2.91493114 </v>
   <v>       0.89796649      -0.02352212      -1.47160654 </v>
   <v>      -0.89132009       0.00260461       1.46044620 </v>
   <v>       0.07985264       0.14961161      -2.89587535 </v>
   <v>       0.65221306       0.15957840       2.11696270 </v>
  </varray>
  <varray name="stress" >
   <v>       7.31126369       0.00343038      -1.52023606 </v>
   <v>       0.00343041       4.41618486       0.05275820 </v>
   <v>      -1.52023604       0.05275837      30.32406181 </v>
  </varray>
  <energy>
   <i name="e_fr_energy">   -186.83878806 </i>
   <i name="e_wo_entrp">   -186.66558870 </i>
   <i name="e_0_energy">     -0.34639872 </i>
  </energy>
  <time name="totalsc">  800.77  802.96</time>
 </calculation>
 <calculation>
  <scstep>
   <time name="dav">   21.63   21.68</time>
   <time name="total">   22.17   22.23</time>
   <energy>
    <i name="alphaZ">     78.92750450 </i>
    <i name="ewald">  39382.42022422 </i>
    <i name="hartreedc"> -45339.81295815 </i>
    <i name="XCdc">   -239.06700103 </i>
    <i name="pawpsdc">   4191.98046822 </i>
    <i name="pawaedc">  -3609.97754513 </i>
    <i name="eentropy">     -0.29775550 </i>
    <i name="bandstr">  -1413.05010917 </i>
    <i name="atom">   6761.44252427 </i>
    <i name="e_fr_energy">   -187.43464777 </i>
    <i name="e_wo_entrp">   -187.13689227 </i>
    <i name="e_0_energy">   -187.28577002 </i>
   </energy>
  </scstep>
  <scstep>
   <time name="dav">   30.22   30.30</time>
   <time name="total">   30.76   30.84</time>
   <energy>
    <i name="e_fr_energy">   -189.15760101 </i>
    <i name="e_wo_entrp">   -188.84461811 </i>
    <i name="e_0_energy">   -189.00110956 </i>
   </energy>
  </scstep>
  <scstep>
   <time name="dav">   30.46   30.54</time>
   <time name="total">   31.01   31.09</time>
   <energy>
    <i name="e_fr_energy">   -189.35461364 </i>
    <i name="e_wo_entrp">   -189.06521856 </i>
    <i name="e_0_energy">   -189.20991610 </i>
   </energy>
  </scstep>
  <scstep>
   <time name="dav">   30.80   30.87</time>
   <time name="total">   31.34   31.42</time>
   <energy>
    <i name="e_fr_energy">   -188.72285646 </i>
    <i name="e_wo_entrp">   -188.42899322 </i>
    <i name="e_0_energy">   -188.57592484 </i>
   </energy>
  </scstep>
  <scstep>
   <time name="dav">   27.47   27.54</time>
   <time name="total">   28.01   28.09</time>
   <energy>
    <i name="e_fr_energy">   -188.70518192 </i>
    <i name="e_wo_entrp">   -188.40571300 </i>
    <i name="e_0_energy">   -188.55544746 </i>
   </energy>
  </scstep>
  <scstep>
   <time name="dav">   30.88   30.96</time>
   <time name="total">   31.42   31.51</time>
   <energy>
    <i name="e_fr_energy">   -188.75683971 </i>
    <i name="e_wo_entrp">   -188.45592188 </i>
    <i name="e_0_energy">   -188.60638079 </i>
   </energy>
  </scstep>
  <scstep>
   <time name="dav">   31.05   31.13</time>
   <time name="total">   31.60   31.69</time>
   <energy>
    <i name="e_fr_energy">   -188.62013603 </i>
    <i name="e_wo_entrp">   -188.32559335 </i>
    <i name="e_0_energy">   -188.47286469 </i>
   </energy>
  </scstep>
  <scstep>
   <time name="dav">   30.81   30.88</time>
   <time name="total">   31.35   31.44</time>
   <energy>
    <i name="e_fr_energy">   -188.61480405 </i>
    <i name="e_wo_entrp">   -188.31967973 </i>
    <i name="e_0_energy">   -188.46724189 </i>
   </energy>
  </scstep>
  <scstep>
   <time name="dav">   31.15   31.22</time>
   <time name="total">   31.69   31.78</time>
   <energy>
    <i name="e_fr_energy">   -188.60366187 </i>
    <i name="e_wo_entrp">   -188.30838978 </i>
    <i name="e_0_energy">   -188.45602582 </i>
   </energy>
  </scstep>
  <scstep>
   <time name="dav">   29.08   29.15</time>
   <time name="total">   29.63   29.71</time>
   <energy>
    <i name="e_fr_energy">   -188.60283192 </i>
    <i name="e_wo_entrp">   -188.30749554 </i>
    <i name="e_0_energy">   -188.45516373 </i>
   </energy>
  </scstep>
  <scstep>
   <time name="dav">   30.11   30.18</time>
   <time name="total">   30.66   30.74</time>
   <energy>
    <i name="e_fr_energy">   -188.60216628 </i>
    <i name="e_wo_entrp">   -188.30741992 </i>
    <i name="e_0_energy">   -188.45479310 </i>
   </energy>
  </scstep>
  <scstep>
   <time name="dav">   27.70   27.77</time>
   <time name="total">   28.24   28.32</time>
   <energy>
    <i name="e_fr_energy">   -188.60229627 </i>
    <i name="e_wo_entrp">   -188.30755938 </i>
    <i name="e_0_energy">   -188.45492782 </i>
   </energy>
  </scstep>
  <scstep>
   <time name="dav">   21.71   21.76</time>
   <time name="total">   21.74   21.80</time>
   <energy>
    <i name="alphaZ">     78.92750450 </i>
    <i name="ewald">  39382.42022422 </i>
    <i name="hartreedc"> -45350.62345368 </i>
    <i name="XCdc">   -237.98551050 </i>
    <i name="pawpsdc">   3950.06170466 </i>
    <i name="pawaedc">  -3364.55495347 </i>
    <i name="eentropy">     -0.29477503 </i>
    <i name="bandstr">  -1407.99554165 </i>
    <i name="atom">   6761.44252427 </i>
    <i name="e_fr_energy">   -188.60227668 </i>
    <i name="e_wo_entrp">   -188.30750165 </i>
    <i name="e_0_energy">   -188.45488916 </i>
   </energy>
  </scstep>
  <structure>
   <crystal>
    <varray name="basis" >
     <v>       8.85539056       5.10516505       0.00000000 </v>
     <v>      -8.85528932       5.10499137       0.00000000 </v>
     <v>       0.00000000       0.00000000      30.00000000 </v>
    </varray>
    <i name="volume">   2712.43217797 </i>
    <varray name="rec_basis" >
     <v>       0.05646215       0.09794113       0.00000000 </v>
     <v>      -0.05646407       0.09794225       0.00000000 </v>
     <v>       0.00000000       0.00000000       0.03333333 </v>
    </varray>
   </crystal>
   <varray name="positions" >
    <v>       0.00000273       0.66614270      -0.00000433 </v>
    <v>       0.66716967       0.33382329      -0.00016822 </v>
    <v>       0.33289326       0.66675392       0.00017479 </v>
    <v>       0.66681916       0.66661191      -0.00007349 </v>
    <v>       0.99993256       0.33351489       0.00001485 </v>
    <v>       0.33318075      -0.00019062       0.00005856 </v>
    <v>       0.00006887      -0.00030761      -0.00000912 </v>
    <v>       0.33360428       0.33357943      -0.00021049 </v>
    <v>       0.66623825      -0.00002975       0.00021670 </v>
    <v>       0.11153796       0.22169553       0.95072180 </v>
    <v>       0.22158133       0.11133042       0.04925116 </v>
    <v>       0.11295542       0.55986082       0.95311197 </v>
    <v>       0.22479973       0.44856910       0.04808934 </v>
    <v>       0.10836117       0.88479412       0.95192799 </v>
    <v>       0.22024068       0.77322735       0.04690193 </v>
    <v>       0.44847285       0.22490034       0.95188756 </v>
    <v>       0.55813531       0.11495938       0.04805636 </v>
    <v>       0.44145479       0.55679885       0.95202534 </v>
    <v>       0.55695458       0.44151739       0.04798136 </v>
    <v>       0.44306154       0.88477599       0.95195566 </v>
    <v>       0.55136351       0.77644425       0.04809314 </v>
    <v>       0.77477739       0.22374516       0.95198009 </v>
    <v>       0.88823725       0.11010326       0.04928747 </v>
    <v>       0.77973751       0.55317229       0.95303352 </v>
    <v>       0.88664914       0.44651071       0.04694853 </v>
    <v>       0.77829000       0.88961034       0.95074317 </v>
    <v>       0.89169477       0.77630097       0.04800426 </v>
   </varray>
  </structure>
  <varray name="forces" >
   <v>       0.02270776      -0.01410233      -0.00206370 </v>
   <v>      -0.01402284       0.01887431      -0.03245366 </v>
   <v>      -0.02415759       0.00554292       0.03431583 </v>
   <v>      -0.10231583       0.09375003      -0.00816877 </v>
   <v>       0.23842399      -0.13701552       0.00158755 </v>
   <v>      -0.13296557       0.04802058       0.00663700 </v>
   <v>      -0.08552407       0.05517694      -0.00001257 </v>
   <v>       0.01803294      -0.11256483      -0.03668696 </v>
   <v>       0.09460091       0.03402729       0.03752678 </v>
   <v>       0.13058704       0.00714615      -0.05198018 </v>
   <v>      -0.12906063       0.00981282       0.00579750 </v>
   <v>      -0.01645845       0.04256357       0.06865602 </v>
   <v>       0.10445367       0.07426933      -0.02557153 </v>
   <v>      -0.08889260      -0.06691471       0.02827298 </v>
   <v>       0.01105649      -0.05468905      -0.02682917 </v>
   <v>      -0.10682344       0.07362737      -0.01439376 </v>
   <v>       0.10143030       0.07017044      -0.02453837 </v>
   <v>       0.00067152      -0.11366277       0.00979104 </v>
   <v>      -0.01062869      -0.10272445      -0.05464469 </v>
   <v>       0.08478616       0.04001536       0.06394359 </v>
   <v>      -0.09588182       0.03843569       0.02216355 </v>
   <v>       0.00148893      -0.11084828       0.00108618 </v>
   <v>       0.08188277      -0.12378518       0.04377614 </v>
   <v>       0.04981054       0.00077583       0.04336387 </v>
   <v>      -0.04489167       0.01039974      -0.08164204 </v>
   <v>      -0.09057455       0.11572103       0.00297871 </v>
   <v>       0.00226472       0.09797770      -0.01091133 </v>
  </varray>
  <varray name="stress" >
   <v>     -19.86587026       0.00757995       0.04669079 </v>
   <v>       0.00758023     -19.44349600       0.02660925 </v>
   <v>       0.04669091       0.02660933      -1.71853565 </v>
  </varray>
  <energy>
   <i name="e_fr_energy">   -188.60227668 </i>
   <i name="e_wo_entrp">   -188.45488916 </i>
   <i name="e_0_energy">     -0.29477503 </i>
  </energy>
  <time name="totalsc">  421.45  422.57</time>
 </calculation>
 <calculation>
  <scstep>
   <time name="dav">   24.09   24.14</time>
   <time name="total">   24.62   24.68</time>
   <energy>
    <i name="alphaZ">     82.35601810 </i>
    <i name="ewald">  41307.62232453 </i>
    <i name="hartreedc"> -47306.49402527 </i>
    <i name="XCdc">   -233.85915846 </i>
    <i name="pawpsdc">   3949.69399397 </i>
    <i name="pawaedc">  -3364.18382286 </i>
    <i name="eentropy">     -0.24440086 </i>
    <i name="bandstr">  -1386.83816967 </i>
    <i name="atom">   6761.44252427 </i>
    <i name="e_fr_energy">   -190.50471623 </i>
    <i name="e_wo_entrp">   -190.26031538 </i>
    <i name="e_0_energy">   -190.38251581 </i>
   </energy>
  </scstep>
  <scstep>
   <time name="dav">   27.73   27.79</time>
   <time name="total">   28.25   28.33</time>
   <energy>
    <i name="e_fr_energy">   -190.56941448 </i>
    <i name="e_wo_entrp">   -190.31656288 </i>
    <i name="e_0_energy">   -190.44298868 </i>
   </energy>
  </scstep>
  <scstep>
   <time name="dav">   30.29   30.37</time>
   <time name="total">   30.82   30.90</time>
   <energy>
    <i name="e_fr_energy">   -189.97060526 </i>
    <i name="e_wo_entrp">   -189.71792516 </i>
    <i name="e_0_energy">   -189.84426521 </i>
   </energy>
  </scstep>
  <scstep>
   <time name="dav">   31.07   31.15</time>
   <time name="total">   31.61   31.70</time>
   <energy>
    <i name="e_fr_energy">   -189.76919121 </i>
    <i name="e_wo_entrp">   -189.51748114 </i>
    <i name="e_0_energy">   -189.64333618 </i>
   </energy>
  </scstep>
  <scstep>
   <time name="dav">   30.03   30.10</time>
   <time name="total">   30.56   30.64</time>
   <energy>
    <i name="e_fr_energy">   -189.70778400 </i>
    <i name="e_wo_entrp">   -189.45964317 </i>
    <i name="e_0_energy">   -189.58371359 </i>
   </energy>
  </scstep>
  <scstep>
   <time name="dav">   29.99   30.07</time>
   <time name="total">   30.53   30.61</time>
   <energy>
    <i name="e_fr_energy">   -189.67195681 </i>
    <i name="e_wo_entrp">   -189.42252275 </i>
    <i name="e_0_energy">   -189.54723978 </i>
   </energy>
  </scstep>
  <scstep>
   <time name="dav">   29.79   29.87</time>
   <time name="total">   30.33   30.41</time>
   <energy>
    <i name="e_fr_energy">   -189.66570438 </i>
    <i name="e_wo_entrp">   -189.41557397 </i>
    <i name="e_0_energy">   -189.54063917 </i>
   </energy>
  </scstep>
  <scstep>
   <time name="dav">   27.38   27.44</time>
   <time name="total">   27.91   27.99</time>
   <energy>
    <i name="e_fr_energy">   -189.66582029 </i>
    <i name="e_wo_entrp">   -189.41596417 </i>
    <i name="e_0_energy">   -189.54089223 </i>
   </energy>
  </scstep>
  <scstep>
   <time name="dav">   26.71   26.77</time>
   <time name="total">   27.24   27.32</time>
   <energy>
    <i name="e_fr_energy">   -189.66618933 </i>
    <i name="e_wo_entrp">   -189.41652020 </i>
    <i name="e_0_energy">   -189.54135476 </i>
   </energy>
  </scstep>
  <scstep>
   <time name="dav">   26.39   26.46</time>
   <time name="total">   26.93   27.00</time>
   <energy>
    <i name="e_fr_energy">   -189.66634896 </i>
    <i name="e_wo_entrp">   -189.41664211 </i>
    <i name="e_0_energy">   -189.54149554 </i>
   </energy>
  </scstep>
  <scstep>
   <time name="dav">   24.23   24.29</time>
   <time name="total">   24.77   24.83</time>
   <energy>
    <i name="e_fr_energy">   -189.66587323 </i>
    <i name="e_wo_entrp">   -189.41603564 </i>
    <i name="e_0_energy">   -189.54095443 </i>
   </energy>
  </scstep>
  <scstep>
   <time name="dav">   17.83   17.87</time>
   <time name="total">   17.87   17.92</time>
   <energy>
    <i name="alphaZ">     82.35601810 </i>
    <i name="ewald">  41307.62232453 </i>
    <i name="hartreedc"> -47279.82170096 </i>
    <i name="XCdc">   -235.25690818 </i>
    <i name="pawpsdc">   4038.26941323 </i>
    <i name="pawaedc">  -3453.95751929 </i>
    <i name="eentropy">     -0.24979937 </i>
    <i name="bandstr">  -1410.07024620 </i>
    <i name="atom">   6761.44252427 </i>
    <i name="e_fr_energy">   -189.66589387 </i>
    <i name="e_wo_entrp">   -189.41609450 </i>
    <i name="e_0_energy">   -189.54099418 </i>
   </energy>
  </scstep>
  <structure>
   <crystal>
    <varray name="basis" >
     <v>       8.66714449       4.99899634       0.00000000 </v>
     <v>      -8.66696256       4.99868259       0.00000000 </v>
     <v>       0.00000000       0.00000000      30.00000000 </v>
    </varray>
    <i name="volume">   2599.51255389 </i>
    <varray name="rec_basis" >
     <v>       0.05768792       0.10002217       0.00000000 </v>
     <v>      -0.05769154       0.10002427       0.00000000 </v>
     <v>       0.00000000       0.00000000       0.03333333 </v>
    </varray>
   </crystal>
   <varray name="positions" >
    <v>       0.00000104       0.66609724      -0.00000550 </v>
    <v>       0.66718771       0.33386836      -0.00018668 </v>
    <v>       0.33287924       0.66678647       0.00019431 </v>
    <v>       0.66687728       0.66686725      -0.00007814 </v>
    <v>       0.99993328       0.33305603       0.00001576 </v>
    <v>       0.33313289       0.00001782       0.00006234 </v>
    <v>       0.00007869      -0.00013293      -0.00000913 </v>
    <v>       0.33343348       0.33337386      -0.00023136 </v>
    <v>       0.66638631      -0.00006404       0.00023805 </v>
    <v>       0.11167577       0.22158162       0.95069223 </v>
    <v>       0.22147335       0.11147122       0.04925446 </v>
    <v>       0.11301071       0.55994785       0.95315104 </v>
    <v>       0.22502457       0.44859260       0.04807479 </v>
    <v>       0.10816363       0.88476793       0.95194407 </v>
    <v>       0.22015991       0.77312527       0.04688666 </v>
    <v>       0.44849298       0.22512639       0.95187938 </v>
    <v>       0.55835038       0.11497893       0.04804240 </v>
    <v>       0.44126542       0.55660818       0.95203092 </v>
    <v>       0.55677260       0.44135590       0.04795027 </v>
    <v>       0.44321015       0.88476117       0.95199205 </v>
    <v>       0.55133536       0.77660092       0.04810575 </v>
    <v>       0.77459351       0.22355840       0.95198071 </v>
    <v>       0.88810922       0.10981739       0.04931237 </v>
    <v>       0.77978681       0.55312558       0.95305819 </v>
    <v>       0.88662326       0.44657137       0.04690207 </v>
    <v>       0.77839617       0.88989110       0.95074486 </v>
    <v>       0.89186075       0.77646259       0.04799805 </v>
   </varray>
  </structure>
  <varray name="forces" >
   <v>      -0.02257918       0.00831872      -0.00110602 </v>
   <v>      -0.01945697      -0.03410970      -0.00588375 </v>
   <v>       0.02069343       0.03583327       0.00662496 </v>
   <v>      -0.15004938       0.11915431       0.00545294 </v>
   <v>       0.32677642      -0.19033945      -0.00084966 </v>
   <v>      -0.17739174       0.07426098      -0.00455117 </v>
   <v>      -0.14878258       0.08769500       0.00099277 </v>
   <v>       0.02321112      -0.18231807      -0.00037769 </v>
   <v>       0.16086086       0.06365956       0.00009838 </v>
   <v>       0.06138826       0.00114634      -0.62379969 </v>
   <v>      -0.06381433       0.01430916       0.56419521 </v>
   <v>      -0.04951840       0.10122940      -0.37180014 </v>
   <v>      -0.00535070       0.13339226       0.47431190 </v>
   <v>       0.02947901      -0.13469503      -0.46966778 </v>
   <v>       0.04119878      -0.12218214       0.42575099 </v>
   <v>       0.01504292       0.14000421      -0.52753074 </v>
   <v>      -0.02229204       0.14030759       0.47325379 </v>
   <v>      -0.12077738      -0.04060494      -0.48903675 </v>
   <v>       0.09879894      -0.03154657       0.43015525 </v>
   <v>       0.07993389      -0.08583249      -0.42074262 </v>
   <v>      -0.09495272      -0.09377194       0.53288482 </v>
   <v>      -0.10309508      -0.04820206      -0.49362729 </v>
   <v>       0.04935813      -0.06197483       0.61523911 </v>
   <v>       0.12751330       0.00832738      -0.40950530 </v>
   <v>      -0.11426739       0.00930964       0.35911642 </v>
   <v>      -0.06114285       0.05664445      -0.55384141 </v>
   <v>       0.11921566       0.03198496       0.48424347 </v>
  </varray>
  <varray name="stress" >
   <v>     -10.16643561      -0.00694473       0.02947035 </v>
   <v>      -0.00694486      -9.85550998       0.02295253 </v>
   <v>       0.02947031       0.02295264       6.54866342 </v>
  </varray>
  <energy>
   <i name="e_fr_energy">   -189.66589387 </i>
   <i name="e_wo_entrp">   -189.54099418 </i>
   <i name="e_0_energy">     -0.24979937 </i>
  </energy>
  <time name="totalsc">  373.18  374.17</time>
 </calculation>
 <calculation>
  <scstep>
   <time name="dav">   21.61   21.67</time>
   <time name="total">   22.13   22.18</time>
   <energy>
    <i name="alphaZ">     85.86315079 </i>
    <i name="ewald">  42851.53058977 </i>
    <i name="hartreedc"> -48868.70127861 </i>
    <i name="XCdc">   -232.94844445 </i>
    <i name="pawpsdc">   4038.32512699 </i>
    <i name="pawaedc">  -3454.00988084 </i>
    <i name="eentropy">     -0.19683280 </i>
    <i name="bandstr">  -1372.48093061 </i>
    <i name="atom">   6761.44252427 </i>
    <i name="e_fr_energy">   -191.17597550 </i>
    <i name="e_wo_entrp">   -190.97914270 </i>
    <i name="e_0_energy">   -191.07755910 </i>
   </energy>
  </scstep>
  <scstep>
   <time name="dav">   32.65   32.73</time>
   <time name="total">   33.17   33.25</time>
   <energy>
    <i name="e_fr_energy">   -191.12940717 </i>
    <i name="e_wo_entrp">   -190.91813560 </i>
    <i name="e_0_energy">   -191.02377138 </i>
   </energy>
  </scstep>
  <scstep>
   <time name="dav">   30.02   30.09</time>
   <time name="total">   30.53   30.61</time>
   <energy>
    <i name="e_fr_energy">   -191.02497355 </i>
    <i name="e_wo_entrp">   -190.81317480 </i>
    <i name="e_0_energy">   -190.91907417 </i>
   </energy>
  </scstep>
  <scstep>
   <time name="dav">   32.12   32.19</time>
   <time name="total">   32.64   32.73</time>
   <energy>
    <i name="e_fr_energy">   -190.66080296 </i>
    <i name="e_wo_entrp">   -190.45547514 </i>
    <i name="e_0_energy">   -190.55813905 </i>
   </energy>
  </scstep>
  <scstep>
   <time name="dav">   30.01   30.08</time>
   <time name="total">   30.53   30.61</time>
   <energy>
    <i name="e_fr_energy">   -190.60540753 </i>
    <i name="e_wo_entrp">   -190.40076605 </i>
    <i name="e_0_energy">   -190.50308679 </i>
   </energy>
  </scstep>
  <scstep>
   <time name="dav">   30.46   30.53</time>
   <time name="total">   30.98   31.06</time>
   <energy>
    <i name="e_fr_energy">   -190.56566360 </i>
    <i name="e_wo_entrp">   -190.35927150 </i>
    <i name="e_0_energy">   -190.46246755 </i>
   </energy>
  </scstep>
  <scstep>
   <time name="dav">   30.01   30.08</time>
   <time name="total">   30.52   30.60</time>
   <energy>
    <i name="e_fr_energy">   -190.56109208 </i>
    <i name="e_wo_entrp">   -190.35486020 </i>
    <i name="e_0_energy">   -190.45797614 </i>
   </energy>
  </scstep>
  <scstep>
   <time name="dav">   26.72   26.78</time>
   <time name="total">   27.24   27.31</time>
   <energy>
    <i name="e_fr_energy">   -190.55739083 </i>
    <i name="e_wo_entrp">   -190.35176684 </i>
    <i name="e_0_energy">   -190.45457884 </i>
   </energy>
  </scstep>
  <scstep>
   <time name="dav">   28.53   28.60</time>
   <time name="total">   29.04   29.12</time>
   <energy>
    <i name="e_fr_energy">   -190.55810949 </i>
    <i name="e_wo_entrp">   -190.35263673 </i>
    <i name="e_0_energy">   -190.45537311 </i>
   </energy>
  </scstep>
  <scstep>
   <time name="dav">   27.08   27.14</time>
   <time name="total">   27.60   27.67</time>
   <energy>
    <i name="e_fr_energy">   -190.55768899 </i>
    <i name="e_wo_entrp">   -190.35227662 </i>
    <i name="e_0_energy">   -190.45498280 </i>
   </energy>
  </scstep>
  <scstep>
   <time name="dav">   23.06   23.12</time>
   <time name="total">   23.57   23.64</time>
   <energy>
    <i name="e_fr_energy">   -190.55752954 </i>
    <i name="e_wo_entrp">   -190.35208002 </i>
    <i name="e_0_energy">   -190.45480478 </i>
   </energy>
  </scstep>
  <scstep>
   <time name="dav">   19.96   20.00</time>
   <time name="total">   19.99   20.05</time>
   <energy>
    <i name="alphaZ">     85.86315079 </i>
    <i name="ewald">  42851.53058977 </i>
    <i name="hartreedc"> -48839.92202983 </i>
    <i name="XCdc">   -234.31201662 </i>
    <i name="pawpsdc">   4061.97148427 </i>
    <i name="pawaedc">  -3477.81715498 </i>
    <i name="eentropy">     -0.20544244 </i>
    <i name="bandstr">  -1399.10862928 </i>
    <i name="atom">   6761.44252427 </i>
    <i name="e_fr_energy">   -190.55752405 </i>
    <i name="e_wo_entrp">   -190.35208161 </i>
    <i name="e_0_energy">   -190.45480283 </i>
   </energy>
  </scstep>
  <structure>
   <crystal>
    <varray name="basis" >
     <v>       8.48399794       4.89774628       0.00000000 </v>
     <v>      -8.48431309       4.89829403       0.00000000 </v>
     <v>       0.00000000       0.00000000      30.00000000 </v>
    </varray>
    <i name="volume">   2493.33388024 </i>
    <varray name="rec_basis" >
     <v>       0.05893668       0.10208396       0.00000000 </v>
     <v>      -0.05893009       0.10208017       0.00000000 </v>
     <v>       0.00000000       0.00000000       0.03333333 </v>
    </varray>
   </crystal>
   <varray name="positions" >
    <v>      -0.00003775       0.66635283      -0.00000698 </v>
    <v>       0.66676248       0.33359978      -0.00017624 </v>
    <v>       0.33331985       0.66694763       0.00018445 </v>
    <v>       0.66707667       0.66829161      -0.00005521 </v>
    <v>       0.99991577       0.33041586       0.00001191 </v>
    <v>       0.33295821       0.00125664       0.00004335 </v>
    <v>       0.00008053       0.00112953      -0.00000621 </v>
    <v>       0.33220546       0.33196270      -0.00020119 </v>
    <v>       0.66753865      -0.00026848       0.00020635 </v>
    <v>       0.11179037       0.22145134       0.94891040 </v>
    <v>       0.22143753       0.11170928       0.05090117 </v>
    <v>       0.11356621       0.56095760       0.95200408 </v>
    <v>       0.22583233       0.44975629       0.04948511 </v>
    <v>       0.10742576       0.88347459       0.95054504 </v>
    <v>       0.21941638       0.77199618       0.04815590 </v>
    <v>       0.44976887       0.22594134       0.95034733 </v>
    <v>       0.55914769       0.11629511       0.04944874 </v>
    <v>       0.44058058       0.55714912       0.95059094 </v>
    <v>       0.55726871       0.44082017       0.04925612 </v>
    <v>       0.44263847       0.88362438       0.95070583 </v>
    <v>       0.55007275       0.77602353       0.04964685 </v>
    <v>       0.77392329       0.22393715       0.95053472 </v>
    <v>       0.88800672       0.10945123       0.05107614 </v>
    <v>       0.78043211       0.55262265       0.95182241 </v>
    <v>       0.88616489       0.44714122       0.04802297 </v>
    <v>       0.77842490       0.89027781       0.94912098 </v>
    <v>       0.89249700       0.77589738       0.04942496 </v>
   </varray>
  </structure>
  <varray name="forces" >
   <v>      -0.05710434       0.03041028      -0.00021281 </v>
   <v>      -0.02669965      -0.10002109       0.05234628 </v>
   <v>       0.07001738       0.07575705      -0.05238781 </v>
   <v>      -0.19195160       0.13783794       0.01672988 </v>
   <v>       0.39023973      -0.22540155      -0.00041881 </v>
   <v>      -0.21597020       0.09515738      -0.01634837 </v>
   <v>      -0.23586655       0.14331490      -0.00065496 </v>
   <v>       0.02684678      -0.27305286       0.03487271 </v>
   <v>       0.23805442       0.10215393      -0.03463057 </v>
   <v>       0.03513161       0.00037848      -0.50210389 </v>
   <v>      -0.01736042       0.00106589       0.40534516 </v>
   <v>       0.01762072      -0.01246197      -0.23865072 </v>
   <v>      -0.01142221       0.02770782       0.32031814 </v>
   <v>       0.01814808      -0.05062901      -0.30607649 </v>
   <v>      -0.01476214      -0.02789860       0.32474769 </v>
   <v>       0.00641352       0.06599474      -0.40710111 </v>
   <v>      -0.01670870       0.05226380       0.29281175 </v>
   <v>      -0.04087255      -0.01200668      -0.29563196 </v>
   <v>       0.01035150       0.01679488       0.22839316 </v>
   <v>      -0.00335848      -0.02817737      -0.22526747 </v>
   <v>      -0.05456470      -0.03721036       0.40947431 </v>
   <v>      -0.01676187      -0.00334933      -0.32948677 </v>
   <v>       0.01731792      -0.02949422       0.50077626 </v>
   <v>       0.02463479       0.01873765      -0.32229864 </v>
   <v>       0.01450170       0.00302125       0.23648857 </v>
   <v>      -0.00870426       0.01677410      -0.40389962 </v>
   <v>       0.04282950       0.01233294       0.31286609 </v>
  </varray>
  <varray name="stress" >
   <v>      -5.87915249      -0.00412955      -0.05906961 </v>
   <v>      -0.00412943      -5.88941008       0.02193399 </v>
   <v>      -0.05906950       0.02193425       4.52551097 </v>
  </varray>
  <energy>
   <i name="e_fr_energy">   -190.55752405 </i>
   <i name="e_wo_entrp">   -190.45480283 </i>
   <i name="e_0_energy">     -0.20544244 </i>
  </energy>
  <time name="totalsc">  379.51  380.52</time>
 </calculation>
 <calculation>
  <scstep>
   <time name="dav">   21.63   21.68</time>
   <time name="total">   22.14   22.19</time>
   <energy>
    <i name="alphaZ">     90.46815513 </i>
    <i name="ewald">  44793.06948451 </i>
    <i name="hartreedc"> -50839.89869369 </i>
    <i name="XCdc">   -231.68401415 </i>
    <i name="pawpsdc">   4061.85644012 </i>
    <i name="pawaedc">  -3477.69766847 </i>
    <i name="eentropy">     -0.15985095 </i>
    <i name="bandstr">  -1349.37784985 </i>
    <i name="atom">   6761.44252427 </i>
    <i name="e_fr_energy">   -191.98147309 </i>
    <i name="e_wo_entrp">   -191.82162214 </i>
    <i name="e_0_energy">   -191.90154762 </i>
   </energy>
  </scstep>
  <scstep>
   <time name="dav">   31.60   31.67</time>
   <time name="total">   32.11   32.19</time>
   <energy>
    <i name="e_fr_energy">   -191.66839915 </i>
    <i name="e_wo_entrp">   -191.48763183 </i>
    <i name="e_0_energy">   -191.57801549 </i>
   </energy>
  </scstep>
  <scstep>
   <time name="dav">   29.85   29.93</time>
   <time name="total">   30.36   30.44</time>
   <energy>
    <i name="e_fr_energy">   -191.98568359 </i>
    <i name="e_wo_entrp">   -191.80915543 </i>
    <i name="e_0_energy">   -191.89741951 </i>
   </energy>
  </scstep>
  <scstep>
   <time name="dav">   29.97   30.05</time>
   <time name="total">   30.49   30.57</time>
   <energy>
    <i name="e_fr_energy">   -191.34443943 </i>
    <i name="e_wo_entrp">   -191.17125751 </i>
    <i name="e_0_energy">   -191.25784847 </i>
   </energy>
  </scstep>
  <scstep>
   <time name="dav">   29.93   30.00</time>
   <time name="total">   30.43   30.51</time>
   <energy>
    <i name="e_fr_energy">   -191.29565624 </i>
    <i name="e_wo_entrp">   -191.12645906 </i>
    <i name="e_0_energy">   -191.21105765 </i>
   </energy>
  </scstep>
  <scstep>
   <time name="dav">   29.78   29.86</time>
   <time name="total">   30.30   30.38</time>
   <energy>
    <i name="e_fr_energy">   -191.12380624 </i>
    <i name="e_wo_entrp">   -190.95272593 </i>
    <i name="e_0_energy">   -191.03826608 </i>
   </energy>
  </scstep>
  <scstep>
   <time name="dav">   30.08   30.15</time>
   <time name="total">   30.58   30.66</time>
   <energy>
    <i name="e_fr_energy">   -191.12219032 </i>
    <i name="e_wo_entrp">   -190.95097577 </i>
    <i name="e_0_energy">   -191.03658305 </i>
   </energy>
  </scstep>
  <scstep>
   <time name="dav">   27.12   27.19</time>
   <time name="total">   27.64   27.71</time>
   <energy>
    <i name="e_fr_energy">   -191.11896724 </i>
    <i name="e_wo_entrp">   -190.94855051 </i>
    <i name="e_0_energy">   -191.03375888 </i>
   </energy>
  </scstep>
  <scstep>
   <time name="dav">   29.70   29.77</time>
   <time name="total">   30.20   30.29</time>
   <energy>
    <i name="e_fr_energy">   -191.12027979 </i>
    <i name="e_wo_entrp">   -190.95003669 </i>
    <i name="e_0_energy">   -191.03515824 </i>
   </energy>
  </scstep>
  <scstep>
   <time name="dav">   29.08   29.15</time>
   <time name="total">   29.60   29.67</time>
   <energy>
    <i name="e_fr_energy">   -191.11921250 </i>
    <i name="e_wo_entrp">   -190.94908764 </i>
    <i name="e_0_energy">   -191.03415007 </i>
   </energy>
  </scstep>
  <scstep>
   <time name="dav">   25.74   25.80</time>
   <time name="total">   26.25   26.32</time>
   <energy>
    <i name="e_fr_energy">   -191.11910119 </i>
    <i name="e_wo_entrp">   -190.94899760 </i>
    <i name="e_0_energy">   -191.03404939 </i>
   </energy>
  </scstep>
  <scstep>
   <time name="dav">   20.66   20.71</time>
   <time name="total">   20.69   20.75</time>
   <energy>
    <i name="alphaZ">     90.46815513 </i>
    <i name="ewald">  44793.06948451 </i>
    <i name="hartreedc"> -50803.51009418 </i>
    <i name="XCdc">   -233.36469949 </i>
    <i name="pawpsdc">   4081.20280346 </i>
    <i name="pawaedc">  -3497.07257730 </i>
    <i name="eentropy">     -0.17016203 </i>
    <i name="bandstr">  -1383.18448887 </i>
    <i name="atom">   6761.44252427 </i>
    <i name="e_fr_energy">   -191.11905450 </i>
    <i name="e_wo_entrp">   -190.94889247 </i>
    <i name="e_0_energy">   -191.03397349 </i>
   </energy>
  </scstep>
  <structure>
   <crystal>
    <varray name="basis" >
     <v>       8.26509161       4.77087008       0.00000000 </v>
     <v>      -8.26599462       4.77243657       0.00000000 </v>
     <v>       0.00000000       0.00000000      30.00000000 </v>
    </varray>
    <i name="volume">   2366.41835608 </i>
    <varray name="rec_basis" >
     <v>       0.06050202       0.10479121       0.00000000 </v>
     <v>      -0.06048216       0.10477976       0.00000000 </v>
     <v>       0.00000000       0.00000000       0.03333333 </v>
    </varray>
   </crystal>
   <varray name="positions" >
    <v>      -0.00008500       0.66722635      -0.00000737 </v>
    <v>       0.66525773       0.33248872       0.00003368 </v>
    <v>       0.33483707       0.66738726      -0.00002635 </v>
    <v>       0.66742124       0.67151703       0.00002130 </v>
    <v>       0.99990439       0.32453395       0.00000744 </v>
    <v>       0.33258959       0.00411434      -0.00002879 </v>
    <v>       0.00014942       0.00468224      -0.00000694 </v>
    <v>       0.32890598       0.32826110      -0.00004018 </v>
    <v>       0.67062422      -0.00072925       0.00004489 </v>
    <v>       0.11194043       0.22127725       0.94618681 </v>
    <v>       0.22142800       0.11181947       0.05323375 </v>
    <v>       0.11378879       0.56117472       0.95049337 </v>
    <v>       0.22627817       0.45073951       0.05140483 </v>
    <v>       0.10678382       0.88213200       0.94868051 </v>
    <v>       0.21869581       0.77127224       0.05001524 </v>
    <v>       0.45120142       0.22683764       0.94807580 </v>
    <v>       0.55983139       0.11766548       0.05126804 </v>
    <v>       0.44000884       0.55775924       0.94875166 </v>
    <v>       0.55796739       0.44080671       0.05080899 </v>
    <v>       0.44185195       0.88273486       0.94916948 </v>
    <v>       0.54866610       0.77549129       0.05192733 </v>
    <v>       0.77359957       0.22439785       0.94857688 </v>
    <v>       0.88786620       0.10910667       0.05378981 </v>
    <v>       0.78109285       0.55244438       0.94998064 </v>
    <v>       0.88606496       0.44733300       0.04951917 </v>
    <v>       0.77846274       0.89044622       0.94680099 </v>
    <v>       0.89308138       0.77529418       0.05131894 </v>
   </varray>
  </structure>
  <varray name="forces" >
   <v>      -0.05499346       0.02666693       0.00124243 </v>
   <v>      -0.04104430      -0.12530223       0.02141615 </v>
   <v>       0.08598163       0.10373909      -0.02240239 </v>
   <v>      -0.16770338       0.14692579       0.00376351 </v>
   <v>       0.27004071      -0.15683749       0.00119823 </v>
   <v>      -0.20888987       0.06871524      -0.00379610 </v>
   <v>      -0.21917686       0.12721955       0.00223097 </v>
   <v>       0.02743357      -0.30508843      -0.01300277 </v>
   <v>       0.27495094       0.12384761       0.01274390 </v>
   <v>       0.04028505      -0.00683526      -0.25157435 </v>
   <v>      -0.00348405      -0.05350752       0.17601634 </v>
   <v>       0.09545580      -0.12935875       0.07001879 </v>
   <v>       0.03186297      -0.09585908       0.01132418 </v>
   <v>      -0.08570238       0.05472172      -0.00473485 </v>
   <v>      -0.04432310       0.07836766      -0.00922325 </v>
   <v>      -0.06110150      -0.00663874      -0.09982793 </v>
   <v>       0.05380585      -0.05153483      -0.03727026 </v>
   <v>       0.07608844      -0.02218848       0.04333011 </v>
   <v>      -0.11532666       0.01866799      -0.07480420 </v>
   <v>      -0.07664853       0.09065997       0.06586899 </v>
   <v>      -0.02857488       0.05812532       0.10321074 </v>
   <v>       0.09652805       0.01743375      -0.00907420 </v>
   <v>       0.02191039      -0.02852741       0.24664529 </v>
   <v>      -0.08851437       0.00307250       0.00704751 </v>
   <v>       0.16152173      -0.01806795      -0.06684905 </v>
   <v>       0.04871815       0.03095300      -0.17399805 </v>
   <v>      -0.08909995       0.05063005       0.00050028 </v>
  </varray>
  <varray name="stress" >
   <v>      -0.37783113      -0.11359563      -0.06319191 </v>
   <v>      -0.11359556      -0.48363502      -0.08459903 </v>
   <v>      -0.06319196      -0.08459893      -0.47165307 </v>
  </varray>
  <energy>
   <i name="e_fr_energy">   -191.11905450 </i>
   <i name="e_wo_entrp">   -191.03397349 </i>
   <i name="e_0_energy">     -0.17016203 </i>
  </energy>
  <time name="totalsc">  382.02  383.03</time>
 </calculation>
 <calculation>
  <scstep>
   <time name="dav">   21.61   21.66</time>
   <time name="total">   22.12   22.17</time>
   <energy>
    <i name="alphaZ">     90.79199874 </i>
    <i name="ewald">  44922.49495347 </i>
    <i name="hartreedc"> -50937.19031074 </i>
    <i name="XCdc">   -233.20816046 </i>
    <i name="pawpsdc">   4081.05656482 </i>
    <i name="pawaedc">  -3496.92071025 </i>
    <i name="eentropy">     -0.17323874 </i>
    <i name="bandstr">  -1379.45997185 </i>
    <i name="atom">   6761.44252427 </i>
    <i name="e_fr_energy">   -191.16635074 </i>
    <i name="e_wo_entrp">   -190.99311200 </i>
    <i name="e_0_energy">   -191.07973137 </i>
   </energy>
  </scstep>
  <scstep>
   <time name="dav">   32.67   32.75</time>
   <time name="total">   33.18   33.27</time>
   <energy>
    <i name="e_fr_energy">   -191.19777672 </i>
    <i name="e_wo_entrp">   -191.02486248 </i>
    <i name="e_0_energy">   -191.11131960 </i>
   </energy>
  </scstep>
  <scstep>
   <time name="dav">   30.51   30.59</time>
   <time name="total">   31.02   31.10</time>
   <energy>
    <i name="e_fr_energy">   -191.17293615 </i>
    <i name="e_wo_entrp">   -190.99866643 </i>
    <i name="e_0_energy">   -191.08580129 </i>
   </energy>
  </scstep>
  <scstep>
   <time name="dav">   26.85   26.91</time>
   <time name="total">   27.36   27.44</time>
   <energy>
    <i name="e_fr_energy">   -191.16965307 </i>
    <i name="e_wo_entrp">   -190.99534828 </i>
    <i name="e_0_energy">   -191.08250067 </i>
   </energy>
  </scstep>
  <scstep>
   <time name="dav">   28.84   28.91</time>
   <time name="total">   29.34   29.42</time>
   <energy>
    <i name="e_fr_energy">   -191.16884322 </i>
    <i name="e_wo_entrp">   -190.99565128 </i>
    <i name="e_0_energy">   -191.08224725 </i>
   </energy>
  </scstep>
  <scstep>
   <time name="dav">   28.98   29.05</time>
   <time name="total">   29.50   29.58</time>
   <energy>
    <i name="e_fr_energy">   -191.16740049 </i>
    <i name="e_wo_entrp">   -190.99357003 </i>
    <i name="e_0_energy">   -191.08048526 </i>
   </energy>
  </scstep>
  <scstep>
   <time name="dav">   26.58   26.65</time>
   <time name="total">   27.09   27.16</time>
   <energy>
    <i name="e_fr_energy">   -191.16712444 </i>
    <i name="e_wo_entrp">   -190.99311767 </i>
    <i name="e_0_energy">   -191.08012105 </i>
   </energy>
  </scstep>
  <scstep>
   <time name="dav">   19.42   19.47</time>
   <time name="total">   19.46   19.51</time>
   <energy>
    <i name="alphaZ">     90.79199874 </i>
    <i name="ewald">  44922.49495347 </i>
    <i name="hartreedc"> -50935.40950145 </i>
    <i name="XCdc">   -233.31242477 </i>
    <i name="pawpsdc">   4081.14946690 </i>
    <i name="pawaedc">  -3496.99933001 </i>
    <i name="eentropy">     -0.17387936 </i>
    <i name="bandstr">  -1381.15088271 </i>
    <i name="atom">   6761.44252427 </i>
    <i name="e_fr_energy">   -191.16707492 </i>
    <i name="e_wo_entrp">   -190.99319556 </i>
    <i name="e_0_energy">   -191.08013524 </i>
   </energy>
  </scstep>
  <structure>
   <crystal>
    <varray name="basis" >
     <v>       8.25003218       4.75899579       0.00000000 </v>
     <v>      -8.25399560       4.76586315       0.00000000 </v>
     <v>       0.00000000       0.00000000      30.00000000 </v>
    </varray>
    <i name="volume">   2357.97764016 </i>
    <varray name="rec_basis" >
     <v>       0.06063497       0.10501366       0.00000000 </v>
     <v>      -0.06054759       0.10496324       0.00000000 </v>
     <v>       0.00000000       0.00000000       0.03333333 </v>
    </varray>
   </crystal>
   <varray name="positions" >
    <v>      -0.00011432       0.66757299      -0.00000526 </v>
    <v>       0.66440314       0.33190263       0.00007772 </v>
    <v>       0.33571567       0.66769310      -0.00007213 </v>
    <v>       0.66770240       0.67294295       0.00003069 </v>
    <v>       0.99989877       0.32263875       0.00000925 </v>
    <v>       0.33229815       0.00523505      -0.00003801 </v>
    <v>       0.00015506       0.00617230      -0.00000312 </v>
    <v>       0.32723418       0.32640478      -0.00005605 </v>
    <v>       0.67225283      -0.00093326       0.00006027 </v>
    <v>       0.11203133       0.22111147       0.94564306 </v>
    <v>       0.22113257       0.11154688       0.05363459 </v>
    <v>       0.11340495       0.56020609       0.95054512 </v>
    <v>       0.22588358       0.45017619       0.05150838 </v>
    <v>       0.10678526       0.88262778       0.94859013 </v>
    <v>       0.21894616       0.77179153       0.05007971 </v>
    <v>       0.45104215       0.22702640       0.94780866 </v>
    <v>       0.55975012       0.11728685       0.05128539 </v>
    <v>       0.44010157       0.55743820       0.94874371 </v>
    <v>       0.55774580       0.44125941       0.05075259 </v>
    <v>       0.44206235       0.88341208       0.94921134 </v>
    <v>       0.54882510       0.77586086       0.05220055 </v>
    <v>       0.77397606       0.22421848       0.94847576 </v>
    <v>       0.88777845       0.10887706       0.05432470 </v>
    <v>       0.78086536       0.55272258       0.94991327 </v>
    <v>       0.88645850       0.44674971       0.04947215 </v>
    <v>       0.77877813       0.89046506       0.94640421 </v>
    <v>       0.89310113       0.77580851       0.05140322 </v>
   </varray>
  </structure>
  <varray name="forces" >
   <v>      -0.03084309       0.01291970      -0.00082917 </v>
   <v>      -0.04925041      -0.10342693       0.02562814 </v>
   <v>       0.06248103       0.10114910      -0.02588326 </v>
   <v>      -0.16781019       0.19371751       0.00417186 </v>
   <v>       0.24916794      -0.14551984      -0.00167471 </v>
   <v>      -0.24712723       0.04770036      -0.00361514 </v>
   <v>      -0.17724077       0.10262490      -0.00052658 </v>
   <v>       0.04571480      -0.31466135       0.01079423 </v>
   <v>       0.29243897       0.11286457      -0.01131780 </v>
   <v>       0.02946168      -0.01203507      -0.20368448 </v>
   <v>      -0.01919111      -0.04593678       0.14112270 </v>
   <v>       0.07185045      -0.08887926       0.10749242 </v>
   <v>       0.03520139      -0.06460863      -0.01547612 </v>
   <v>      -0.07292409       0.03578535       0.01230425 </v>
   <v>      -0.02342435       0.05764106      -0.04824951 </v>
   <v>      -0.04770373       0.00009168      -0.08415058 </v>
   <v>       0.05147261      -0.03399671      -0.06333058 </v>
   <v>       0.05773076      -0.02869493       0.06679664 </v>
   <v>      -0.09744549      -0.00002606      -0.10948646 </v>
   <v>      -0.04951242       0.08399611       0.10295468 </v>
   <v>      -0.02663963       0.04274582       0.08664668 </v>
   <v>       0.07270652       0.00012504       0.01524946 </v>
   <v>       0.02207104      -0.01849056       0.20336699 </v>
   <v>      -0.06113389      -0.00555000       0.04652277 </v>
   <v>       0.11434408      -0.01761035      -0.10336029 </v>
   <v>       0.03246872       0.04035855      -0.13985955 </v>
   <v>      -0.06686358       0.04771675      -0.01160660 </v>
  </varray>
  <varray name="stress" >
   <v>       0.12201802      -0.05283338      -0.04793716 </v>
   <v>      -0.05283347       0.06850620      -0.06566422 </v>
   <v>      -0.04793712      -0.06566406      -1.03771196 </v>
  </varray>
  <energy>
   <i name="e_fr_energy">   -191.16707492 </i>
   <i name="e_wo_entrp">   -191.08013524 </i>
   <i name="e_0_energy">     -0.17387936 </i>
  </energy>
  <time name="totalsc">  260.68  261.37</time>
 </calculation>
 <calculation>
  <scstep>
   <time name="dav">   21.62   21.68</time>
   <time name="total">   22.13   22.19</time>
   <energy>
    <i name="alphaZ">     90.74816073 </i>
    <i name="ewald">  44892.84282085 </i>
    <i name="hartreedc"> -50905.57510061 </i>
    <i name="XCdc">   -233.37936732 </i>
    <i name="pawpsdc">   4081.27241650 </i>
    <i name="pawaedc">  -3497.12342585 </i>
    <i name="eentropy">     -0.18040079 </i>
    <i name="bandstr">  -1381.25007460 </i>
    <i name="atom">   6761.44252427 </i>
    <i name="e_fr_energy">   -191.20244681 </i>
    <i name="e_wo_entrp">   -191.02204602 </i>
    <i name="e_0_energy">   -191.11224642 </i>
   </energy>
  </scstep>
  <scstep>
   <time name="dav">   33.01   33.09</time>
   <time name="total">   33.52   33.61</time>
   <energy>
    <i name="e_fr_energy">   -191.24248155 </i>
    <i name="e_wo_entrp">   -191.06337167 </i>
    <i name="e_0_energy">   -191.15292661 </i>
   </energy>
  </scstep>
  <scstep>
   <time name="dav">   30.77   30.84</time>
   <time name="total">   31.28   31.36</time>
   <energy>
    <i name="e_fr_energy">   -191.20616761 </i>
    <i name="e_wo_entrp">   -191.02584581 </i>
    <i name="e_0_energy">   -191.11600671 </i>
   </energy>
  </scstep>
  <scstep>
   <time name="dav">   28.74   28.81</time>
   <time name="total">   29.26   29.34</time>
   <energy>
    <i name="e_fr_energy">   -191.20592625 </i>
    <i name="e_wo_entrp">   -191.02528966 </i>
    <i name="e_0_energy">   -191.11560795 </i>
   </energy>
  </scstep>
  <scstep>
   <time name="dav">   29.24   29.31</time>
   <time name="total">   29.74   29.82</time>
   <energy>
    <i name="e_fr_energy">   -191.20563902 </i>
    <i name="e_wo_entrp">   -191.02562024 </i>
    <i name="e_0_energy">   -191.11562963 </i>
   </energy>
  </scstep>
  <scstep>
   <time name="dav">   26.22   26.29</time>
   <time name="total">   26.74   26.81</time>
   <energy>
    <i name="e_fr_energy">   -191.20502318 </i>
    <i name="e_wo_entrp">   -191.02470734 </i>
    <i name="e_0_energy">   -191.11486526 </i>
   </energy>
  </scstep>
  <scstep>
   <time name="dav">   25.74   25.80</time>
   <time name="total">   25.77   25.84</time>
   <energy>
    <i name="alphaZ">     90.74816073 </i>
    <i name="ewald">  44892.84282085 </i>
    <i name="hartreedc"> -50906.46064241 </i>
    <i name="XCdc">   -233.35629699 </i>
[...]
      <set comment="kpoint 31">
       <r>  -17.5650    1.0000 </r>
       <r>  -17.2551    1.0000 </r>
       <r>  -16.9048    1.0000 </r>
       <r>  -16.6530    1.0000 </r>
       <r>  -16.4888    1.0000 </r>
       <r>  -16.4545    1.0000 </r>
       <r>  -16.3163    1.0000 </r>
       <r>  -16.2349    1.0000 </r>
       <r>  -16.1080    1.0000 </r>
       <r>  -16.0341    1.0000 </r>
       <r>  -15.9032    1.0000 </r>
       <r>  -15.8640    1.0000 </r>
       <r>  -15.7929    1.0000 </r>
       <r>  -15.7306    1.0000 </r>
       <r>  -15.5720    1.0000 </r>
       <r>  -15.4717    1.0000 </r>
       <r>  -15.3613    1.0000 </r>
       <r>  -15.2218    1.0000 </r>
       <r>   -9.7778    1.0000 </r>
       <r>   -9.4667    1.0000 </r>
       <r>   -9.3714    1.0000 </r>
       <r>   -9.1057    1.0000 </r>
       <r>   -8.8104    1.0000 </r>
       <r>   -8.6524    1.0000 </r>
       <r>   -8.5649    1.0000 </r>
       <r>   -8.5182    1.0000 </r>
       <r>   -8.4025    1.0000 </r>
       <r>   -8.3355    1.0000 </r>
       <r>   -8.2389    1.0000 </r>
       <r>   -8.1731    1.0000 </r>
       <r>   -8.1438    1.0000 </r>
       <r>   -8.0553    1.0000 </r>
       <r>   -7.9940    1.0000 </r>
       <r>   -7.8632    1.0000 </r>
       <r>   -7.7953    1.0000 </r>
       <r>   -7.6223    1.0000 </r>
       <r>   -7.5690    1.0000 </r>
       <r>   -7.4447    1.0000 </r>
       <r>   -7.3534    1.0000 </r>
       <r>   -7.2315    1.0000 </r>
       <r>   -7.1289    1.0000 </r>
       <r>   -7.0443    1.0000 </r>
       <r>   -7.0237    1.0000 </r>
       <r>   -6.9618    1.0000 </r>
       <r>   -6.8858    1.0000 </r>
       <r>   -6.8068    1.0000 </r>
       <r>   -6.6881    1.0000 </r>
       <r>   -6.6128    1.0000 </r>
       <r>   -6.5594    1.0000 </r>
       <r>   -6.5141    1.0000 </r>
       <r>   -6.4241    1.0000 </r>
       <r>   -6.3556    1.0000 </r>
       <r>   -6.2527    1.0000 </r>
       <r>   -6.1797    1.0000 </r>
       <r>   -6.1277    1.0000 </r>
       <r>   -6.0972    1.0000 </r>
       <r>   -5.9946    1.0000 </r>
       <r>   -5.9348    1.0000 </r>
       <r>   -5.8507    1.0000 </r>
       <r>   -5.7262    1.0000 </r>
       <r>   -5.6949    1.0000 </r>
       <r>   -5.6154    1.0000 </r>
       <r>   -5.5238    1.0000 </r>
       <r>   -5.3505    1.0000 </r>
       <r>   -5.2326    1.0000 </r>
       <r>   -5.1453    1.0000 </r>
       <r>   -5.0625    1.0000 </r>
       <r>   -4.8318    1.0000 </r>
       <r>   -4.7678    1.0000 </r>
       <r>   -4.6463    1.0000 </r>
       <r>   -4.5332    1.0000 </r>
       <r>   -4.4170    1.0000 </r>
       <r>   -4.3132    1.0000 </r>
       <r>   -4.1949    1.0000 </r>
       <r>   -4.1562    1.0000 </r>
       <r>   -3.8459    0.9999 </r>
       <r>   -3.7608    0.9991 </r>
       <r>   -3.6630    0.9923 </r>
       <r>   -3.5270    0.9282 </r>
       <r>   -3.4602    0.8390 </r>
       <r>   -3.0834    0.0471 </r>
       <r>   -2.6937    0.0000 </r>
       <r>   -2.6417    0.0000 </r>
       <r>   -2.5886    0.0000 </r>
       <r>   -2.4513    0.0000 </r>
       <r>   -2.4059    0.0000 </r>
       <r>   -2.2635    0.0000 </r>
       <r>   -2.1383    0.0000 </r>
       <r>   -2.0930    0.0000 </r>
       <r>   -1.9909    0.0000 </r>
       <r>   -1.8623    0.0000 </r>
       <r>   -1.7759    0.0000 </r>
       <r>   -1.4132    0.0000 </r>
       <r>   -1.2655    0.0000 </r>
       <r>   -1.1866    0.0000 </r>
       <r>   -1.1096    0.0000 </r>
       <r>   -1.0575    0.0000 </r>
       <r>   -0.9771    0.0000 </r>
       <r>   -0.9236    0.0000 </r>
       <r>   -0.8647    0.0000 </r>
       <r>   -0.7758    0.0000 </r>
       <r>   -0.7465    0.0000 </r>
       <r>   -0.6001    0.0000 </r>
       <r>   -0.5342    0.0000 </r>
       <r>   -0.4273    0.0000 </r>
       <r>   -0.3421    0.0000 </r>
       <r>   -0.1663    0.0000 </r>
       <r>   -0.0605    0.0000 </r>
       <r>    0.0161    0.0000 </r>
       <r>    0.1903    0.0000 </r>
       <r>    0.3923    0.0000 </r>
       <r>    0.4908    0.0000 </r>
       <r>    0.6020    0.0000 </r>
       <r>    1.0098    0.0000 </r>
       <r>    1.1564    0.0000 </r>
       <r>    1.3280    0.0000 </r>
       <r>    1.3970    0.0000 </r>
       <r>    2.1232    0.0000 </r>
       <r>    2.3044    0.0000 </r>
       <r>    2.3753    0.0000 </r>
      </set>
      <set comment="kpoint 32">
       <r>  -17.5832    1.0000 </r>
       <r>  -17.1378    1.0000 </r>
       <r>  -17.0553    1.0000 </r>
       <r>  -16.6560    1.0000 </r>
       <r>  -16.4422    1.0000 </r>
       <r>  -16.3952    1.0000 </r>
       <r>  -16.2905    1.0000 </r>
       <r>  -16.2466    1.0000 </r>
       <r>  -16.1415    1.0000 </r>
       <r>  -16.0724    1.0000 </r>
       <r>  -15.9390    1.0000 </r>
       <r>  -15.8634    1.0000 </r>
       <r>  -15.7646    1.0000 </r>
       <r>  -15.7091    1.0000 </r>
       <r>  -15.5810    1.0000 </r>
       <r>  -15.4827    1.0000 </r>
       <r>  -15.3646    1.0000 </r>
       <r>  -15.2062    1.0000 </r>
       <r>   -9.6728    1.0000 </r>
       <r>   -9.6124    1.0000 </r>
       <r>   -9.4123    1.0000 </r>
       <r>   -9.1382    1.0000 </r>
       <r>   -8.7196    1.0000 </r>
       <r>   -8.5616    1.0000 </r>
       <r>   -8.5082    1.0000 </r>
       <r>   -8.4534    1.0000 </r>
       <r>   -8.4017    1.0000 </r>
       <r>   -8.3376    1.0000 </r>
       <r>   -8.2874    1.0000 </r>
       <r>   -8.2272    1.0000 </r>
       <r>   -8.1579    1.0000 </r>
       <r>   -8.0966    1.0000 </r>
       <r>   -8.0065    1.0000 </r>
       <r>   -7.8790    1.0000 </r>
       <r>   -7.8441    1.0000 </r>
       <r>   -7.6507    1.0000 </r>
       <r>   -7.4887    1.0000 </r>
       <r>   -7.4495    1.0000 </r>
       <r>   -7.3744    1.0000 </r>
       <r>   -7.2104    1.0000 </r>
       <r>   -7.1657    1.0000 </r>
       <r>   -7.0756    1.0000 </r>
       <r>   -7.0394    1.0000 </r>
       <r>   -6.9525    1.0000 </r>
       <r>   -6.8773    1.0000 </r>
       <r>   -6.8157    1.0000 </r>
       <r>   -6.6724    1.0000 </r>
       <r>   -6.6067    1.0000 </r>
       <r>   -6.5606    1.0000 </r>
       <r>   -6.4691    1.0000 </r>
       <r>   -6.3959    1.0000 </r>
       <r>   -6.3041    1.0000 </r>
       <r>   -6.2866    1.0000 </r>
       <r>   -6.2054    1.0000 </r>
       <r>   -6.1540    1.0000 </r>
       <r>   -6.0284    1.0000 </r>
       <r>   -6.0037    1.0000 </r>
       <r>   -5.9700    1.0000 </r>
       <r>   -5.8401    1.0000 </r>
       <r>   -5.7359    1.0000 </r>
       <r>   -5.6375    1.0000 </r>
       <r>   -5.5702    1.0000 </r>
       <r>   -5.4666    1.0000 </r>
       <r>   -5.3782    1.0000 </r>
       <r>   -5.2758    1.0000 </r>
       <r>   -5.1722    1.0000 </r>
       <r>   -5.0840    1.0000 </r>
       <r>   -4.9278    1.0000 </r>
       <r>   -4.8354    1.0000 </r>
       <r>   -4.5710    1.0000 </r>
       <r>   -4.4673    1.0000 </r>
       <r>   -4.4118    1.0000 </r>
       <r>   -4.3603    1.0000 </r>
       <r>   -4.2784    1.0000 </r>
       <r>   -4.1412    1.0000 </r>
       <r>   -3.9088    1.0000 </r>
       <r>   -3.7570    0.9990 </r>
       <r>   -3.5891    0.9714 </r>
       <r>   -3.4870    0.8810 </r>
       <r>   -3.4296    0.7806 </r>
       <r>   -3.0229    0.0178 </r>
       <r>   -2.7495    0.0000 </r>
       <r>   -2.6531    0.0000 </r>
       <r>   -2.6028    0.0000 </r>
       <r>   -2.4640    0.0000 </r>
       <r>   -2.4083    0.0000 </r>
       <r>   -2.2717    0.0000 </r>
       <r>   -2.1059    0.0000 </r>
       <r>   -2.0591    0.0000 </r>
       <r>   -2.0090    0.0000 </r>
       <r>   -1.8463    0.0000 </r>
       <r>   -1.7751    0.0000 </r>
       <r>   -1.4258    0.0000 </r>
       <r>   -1.2637    0.0000 </r>
       <r>   -1.2275    0.0000 </r>
       <r>   -1.1166    0.0000 </r>
       <r>   -1.0663    0.0000 </r>
       <r>   -0.9868    0.0000 </r>
       <r>   -0.9295    0.0000 </r>
       <r>   -0.8396    0.0000 </r>
       <r>   -0.8084    0.0000 </r>
       <r>   -0.7092    0.0000 </r>
       <r>   -0.5678    0.0000 </r>
       <r>   -0.4912    0.0000 </r>
       <r>   -0.4374    0.0000 </r>
       <r>   -0.3110    0.0000 </r>
       <r>   -0.1893    0.0000 </r>
       <r>   -0.0480    0.0000 </r>
       <r>    0.0325    0.0000 </r>
       <r>    0.1789    0.0000 </r>
       <r>    0.3684    0.0000 </r>
       <r>    0.5122    0.0000 </r>
       <r>    0.6115    0.0000 </r>
       <r>    1.0323    0.0000 </r>
       <r>    1.1332    0.0000 </r>
       <r>    1.2761    0.0000 </r>
       <r>    1.3227    0.0000 </r>
       <r>    2.0902    0.0000 </r>
       <r>    2.2728    0.0000 </r>
       <r>    2.5504    0.0000 </r>
      </set>
      <set comment="kpoint 33">
       <r>  -17.5833    1.0000 </r>
       <r>  -17.2037    1.0000 </r>
       <r>  -16.9373    1.0000 </r>
       <r>  -16.6588    1.0000 </r>
       <r>  -16.5159    1.0000 </r>
       <r>  -16.4221    1.0000 </r>
       <r>  -16.3078    1.0000 </r>
       <r>  -16.2266    1.0000 </r>
       <r>  -16.1225    1.0000 </r>
       <r>  -16.0377    1.0000 </r>
       <r>  -15.9677    1.0000 </r>
       <r>  -15.8532    1.0000 </r>
       <r>  -15.7319    1.0000 </r>
       <r>  -15.6878    1.0000 </r>
       <r>  -15.6064    1.0000 </r>
       <r>  -15.4887    1.0000 </r>
       <r>  -15.3739    1.0000 </r>
       <r>  -15.2057    1.0000 </r>
       <r>   -9.7449    1.0000 </r>
       <r>   -9.4981    1.0000 </r>
       <r>   -9.3565    1.0000 </r>
       <r>   -9.1534    1.0000 </r>
       <r>   -8.8670    1.0000 </r>
       <r>   -8.6914    1.0000 </r>
       <r>   -8.5662    1.0000 </r>
       <r>   -8.4027    1.0000 </r>
       <r>   -8.3724    1.0000 </r>
       <r>   -8.3094    1.0000 </r>
       <r>   -8.2382    1.0000 </r>
       <r>   -8.2070    1.0000 </r>
       <r>   -8.1419    1.0000 </r>
       <r>   -8.0918    1.0000 </r>
       <r>   -7.9321    1.0000 </r>
       <r>   -7.8722    1.0000 </r>
       <r>   -7.7536    1.0000 </r>
       <r>   -7.7270    1.0000 </r>
       <r>   -7.6172    1.0000 </r>
       <r>   -7.3931    1.0000 </r>
       <r>   -7.3190    1.0000 </r>
       <r>   -7.1976    1.0000 </r>
       <r>   -7.1467    1.0000 </r>
       <r>   -7.0669    1.0000 </r>
       <r>   -7.0390    1.0000 </r>
       <r>   -6.9328    1.0000 </r>
       <r>   -6.8764    1.0000 </r>
       <r>   -6.7881    1.0000 </r>
       <r>   -6.6808    1.0000 </r>
       <r>   -6.6069    1.0000 </r>
       <r>   -6.5555    1.0000 </r>
       <r>   -6.4852    1.0000 </r>
       <r>   -6.3822    1.0000 </r>
       <r>   -6.3145    1.0000 </r>
       <r>   -6.2773    1.0000 </r>
       <r>   -6.1930    1.0000 </r>
       <r>   -6.1454    1.0000 </r>
       <r>   -6.0772    1.0000 </r>
       <r>   -6.0131    1.0000 </r>
       <r>   -5.9673    1.0000 </r>
       <r>   -5.8907    1.0000 </r>
       <r>   -5.8443    1.0000 </r>
       <r>   -5.6878    1.0000 </r>
       <r>   -5.6211    1.0000 </r>
       <r>   -5.4887    1.0000 </r>
       <r>   -5.2807    1.0000 </r>
       <r>   -5.2203    1.0000 </r>
       <r>   -5.1735    1.0000 </r>
       <r>   -5.0555    1.0000 </r>
       <r>   -4.8979    1.0000 </r>
       <r>   -4.7997    1.0000 </r>
       <r>   -4.6315    1.0000 </r>
       <r>   -4.4863    1.0000 </r>
       <r>   -4.3629    1.0000 </r>
       <r>   -4.3408    1.0000 </r>
       <r>   -4.2834    1.0000 </r>
       <r>   -4.1375    1.0000 </r>
       <r>   -3.9306    1.0000 </r>
       <r>   -3.7856    0.9995 </r>
       <r>   -3.6130    0.9808 </r>
       <r>   -3.4895    0.8844 </r>
       <r>   -3.3831    0.6718 </r>
       <r>   -2.9465    0.0041 </r>
       <r>   -2.8290    0.0003 </r>
       <r>   -2.6780    0.0000 </r>
       <r>   -2.6029    0.0000 </r>
       <r>   -2.4649    0.0000 </r>
       <r>   -2.3995    0.0000 </r>
       <r>   -2.3179    0.0000 </r>
       <r>   -2.0875    0.0000 </r>
       <r>   -1.9995    0.0000 </r>
       <r>   -1.9830    0.0000 </r>
       <r>   -1.8393    0.0000 </r>
       <r>   -1.7528    0.0000 </r>
       <r>   -1.4390    0.0000 </r>
       <r>   -1.3124    0.0000 </r>
       <r>   -1.2292    0.0000 </r>
       <r>   -1.1169    0.0000 </r>
       <r>   -1.0448    0.0000 </r>
       <r>   -1.0004    0.0000 </r>
       <r>   -0.9336    0.0000 </r>
       <r>   -0.8578    0.0000 </r>
       <r>   -0.7773    0.0000 </r>
       <r>   -0.7025    0.0000 </r>
       <r>   -0.5840    0.0000 </r>
       <r>   -0.5249    0.0000 </r>
       <r>   -0.3914    0.0000 </r>
       <r>   -0.3072    0.0000 </r>
       <r>   -0.1865    0.0000 </r>
       <r>   -0.1357    0.0000 </r>
       <r>    0.0497    0.0000 </r>
       <r>    0.2404    0.0000 </r>
       <r>    0.3851    0.0000 </r>
       <r>    0.5412    0.0000 </r>
       <r>    0.6157    0.0000 </r>
       <r>    1.0282    0.0000 </r>
       <r>    1.1136    0.0000 </r>
       <r>    1.2326    0.0000 </r>
       <r>    1.3424    0.0000 </r>
       <r>    2.1134    0.0000 </r>
       <r>    2.3020    0.0000 </r>
       <r>    2.3797    0.0000 </r>
      </set>
      <set comment="kpoint 34">
       <r>  -17.5784    1.0000 </r>
       <r>  -17.2490    1.0000 </r>
       <r>  -16.7948    1.0000 </r>
       <r>  -16.6710    1.0000 </r>
       <r>  -16.6419    1.0000 </r>
       <r>  -16.4258    1.0000 </r>
       <r>  -16.2928    1.0000 </r>
       <r>  -16.2538    1.0000 </r>
       <r>  -16.0776    1.0000 </r>
       <r>  -16.0385    1.0000 </r>
       <r>  -15.9706    1.0000 </r>
       <r>  -15.8419    1.0000 </r>
       <r>  -15.7001    1.0000 </r>
       <r>  -15.6879    1.0000 </r>
       <r>  -15.6278    1.0000 </r>
       <r>  -15.4888    1.0000 </r>
       <r>  -15.3816    1.0000 </r>
       <r>  -15.2092    1.0000 </r>
       <r>   -9.7849    1.0000 </r>
       <r>   -9.4105    1.0000 </r>
       <r>   -9.2724    1.0000 </r>
       <r>   -9.1319    1.0000 </r>
       <r>   -9.0289    1.0000 </r>
       <r>   -8.8090    1.0000 </r>
       <r>   -8.5752    1.0000 </r>
       <r>   -8.4081    1.0000 </r>
       <r>   -8.3778    1.0000 </r>
       <r>   -8.2893    1.0000 </r>
       <r>   -8.2202    1.0000 </r>
       <r>   -8.1763    1.0000 </r>
       <r>   -8.1213    1.0000 </r>
       <r>   -7.9839    1.0000 </r>
       <r>   -7.9568    1.0000 </r>
       <r>   -7.9035    1.0000 </r>
       <r>   -7.8110    1.0000 </r>
       <r>   -7.7053    1.0000 </r>
       <r>   -7.5409    1.0000 </r>
       <r>   -7.3899    1.0000 </r>
       <r>   -7.3196    1.0000 </r>
       <r>   -7.2030    1.0000 </r>
       <r>   -7.1228    1.0000 </r>
       <r>   -7.0713    1.0000 </r>
       <r>   -7.0301    1.0000 </r>
       <r>   -6.9169    1.0000 </r>
       <r>   -6.8860    1.0000 </r>
       <r>   -6.7558    1.0000 </r>
       <r>   -6.6391    1.0000 </r>
       <r>   -6.5856    1.0000 </r>
       <r>   -6.5813    1.0000 </r>
       <r>   -6.5084    1.0000 </r>
       <r>   -6.4637    1.0000 </r>
       <r>   -6.3249    1.0000 </r>
       <r>   -6.2698    1.0000 </r>
       <r>   -6.1843    1.0000 </r>
       <r>   -6.1370    1.0000 </r>
       <r>   -6.0678    1.0000 </r>
       <r>   -6.0102    1.0000 </r>
       <r>   -5.9782    1.0000 </r>
       <r>   -5.9466    1.0000 </r>
       <r>   -5.8744    1.0000 </r>
       <r>   -5.7294    1.0000 </r>
       <r>   -5.6725    1.0000 </r>
       <r>   -5.4049    1.0000 </r>
       <r>   -5.3707    1.0000 </r>
       <r>   -5.2579    1.0000 </r>
       <r>   -5.1161    1.0000 </r>
       <r>   -4.9685    1.0000 </r>
       <r>   -4.8055    1.0000 </r>
       <r>   -4.7535    1.0000 </r>
       <r>   -4.7045    1.0000 </r>
       <r>   -4.5600    1.0000 </r>
       <r>   -4.3568    1.0000 </r>
       <r>   -4.3277    1.0000 </r>
       <r>   -4.2347    1.0000 </r>
       <r>   -4.1105    1.0000 </r>
       <r>   -3.9322    1.0000 </r>
       <r>   -3.8142    0.9998 </r>
       <r>   -3.6666    0.9929 </r>
       <r>   -3.4932    0.8895 </r>
       <r>   -3.3535    0.5932 </r>
       <r>   -2.8988    0.0014 </r>
       <r>   -2.8817    0.0010 </r>
       <r>   -2.6919    0.0000 </r>
       <r>   -2.5978    0.0000 </r>
       <r>   -2.4646    0.0000 </r>
       <r>   -2.3879    0.0000 </r>
       <r>   -2.3486    0.0000 </r>
       <r>   -2.0828    0.0000 </r>
       <r>   -1.9835    0.0000 </r>
       <r>   -1.9507    0.0000 </r>
       <r>   -1.8395    0.0000 </r>
       <r>   -1.7352    0.0000 </r>
       <r>   -1.4480    0.0000 </r>
       <r>   -1.3317    0.0000 </r>
       <r>   -1.2202    0.0000 </r>
       <r>   -1.1232    0.0000 </r>
       <r>   -1.0358    0.0000 </r>
       <r>   -0.9979    0.0000 </r>
       <r>   -0.9324    0.0000 </r>
       <r>   -0.8756    0.0000 </r>
       <r>   -0.7351    0.0000 </r>
       <r>   -0.7113    0.0000 </r>
       <r>   -0.6522    0.0000 </r>
       <r>   -0.5188    0.0000 </r>
       <r>   -0.3465    0.0000 </r>
       <r>   -0.3198    0.0000 </r>
       <r>   -0.2327    0.0000 </r>
       <r>   -0.1222    0.0000 </r>
       <r>    0.0144    0.0000 </r>
       <r>    0.2858    0.0000 </r>
       <r>    0.4343    0.0000 </r>
       <r>    0.5647    0.0000 </r>
       <r>    0.5773    0.0000 </r>
       <r>    1.0291    0.0000 </r>
       <r>    1.0772    0.0000 </r>
       <r>    1.2708    0.0000 </r>
       <r>    1.3479    0.0000 </r>
       <r>    2.1611    0.0000 </r>
       <r>    2.2634    0.0000 </r>
       <r>    2.3861    0.0000 </r>
      </set>
     </set>
    </set>
   </array>
  </eigenvalues>
  <separator name="orbital magnetization" >
   <v name="MAGDIPOLOUT">      0.00000000      0.00000000      0.00000000</v>
  </separator>
 </calculation>
 <structure name="finalpos" >
  <crystal>
   <varray name="basis" >
    <v>       8.34776164       4.81214065       0.00000000 </v>
    <v>      -8.35228357       4.82009102       0.00000000 </v>
    <v>       0.00000000       0.00000000      30.00000000 </v>
   </varray>
   <i name="volume">   2412.88002518 </i>
   <varray name="rec_basis" >
    <v>       0.05992952       0.10384624       0.00000000 </v>
    <v>      -0.05983067       0.10379001       0.00000000 </v>
    <v>       0.00000000       0.00000000       0.03333333 </v>
   </varray>
  </crystal>
  <varray name="positions" >
   <v>      -0.00231253       0.68632798       0.00021824 </v>
   <v>       0.65240234       0.34911146      -0.00082837 </v>
   <v>       0.35011806       0.70402643       0.00186347 </v>
   <v>       0.64151207       0.64588425      -0.00053282 </v>
   <v>       0.99405447       0.29591738      -0.00104886 </v>
   <v>       0.31754184       0.00918403      -0.00045534 </v>
   <v>       0.01880978       0.01782289       0.00037102 </v>
   <v>       0.32894172       0.31617849       0.00022031 </v>
   <v>       0.69129552      -0.01493287       0.00128070 </v>
   <v>       0.11723475       0.21857230       0.94352229 </v>
   <v>       0.22192568       0.11217475       0.05670819 </v>
   <v>       0.11117035       0.55522477       0.95780029 </v>
   <v>       0.22478408       0.45313463       0.04634484 </v>
   <v>       0.11041455       0.88728257       0.94621515 </v>
   <v>       0.21938636       0.78257041       0.05067182 </v>
   <v>       0.45125612       0.22862600       0.94586189 </v>
   <v>       0.56554678       0.11587274       0.04378889 </v>
   <v>       0.42741588       0.55518149       0.95061331 </v>
   <v>       0.55000631       0.43612990       0.05367880 </v>
   <v>       0.45317681       0.89789603       0.95073706 </v>
   <v>       0.54957520       0.77275535       0.05431303 </v>
   <v>       0.77111018       0.21629413       0.95191714 </v>
   <v>       0.89418215       0.10297241       0.05706216 </v>
   <v>       0.77850795       0.55401282       0.94893484 </v>
   <v>       0.88961844       0.44585066       0.04317128 </v>
   <v>       0.78476252       0.87930760       0.94785641 </v>
   <v>       0.88577706       0.77483586       0.04971417 </v>
  </varray>
 </structure>
</modeling>
