unknown system                          
           1
     8.855391    5.105165    0.000000
    -8.855289    5.104991    0.000000
     0.000000    0.000000   30.000000
   V    Mo   W    S 
   3   3   3  18
Direct configuration=     1
   0.00000000  0.66666669  0.00000000
   0.66666669  0.33333334  0.00000000
   0.33333334  0.66666669  0.00000000
   0.66666669  0.66666669  0.00000000
   1.00000000  0.33333334  0.00000000
   0.33333334  0.00000000  0.00000000
   0.00000000  0.00000000  0.00000000
   0.33333334  0.33333334  0.00000000
   0.66666669  0.00000000  0.00000000
   0.11068511  0.22244981  0.95539999
   0.22244981  0.11068511  0.04460000
   0.11068511  0.55578315  0.95539999
   0.22244981  0.44401845  0.04460000
   0.11068511  0.88911647  0.95539999
   0.22244981  0.77735180  0.04460000
   0.44401845  0.22244981  0.95539999
   0.55578315  0.11068511  0.04460000
   0.44401845  0.55578315  0.95539999
   0.55578315  0.44401845  0.04460000
   0.44401845  0.88911647  0.95539999
   0.55578315  0.77735180  0.04460000
   0.77735180  0.22244981  0.95539999
   0.88911647  0.11068511  0.04460000
   0.77735180  0.55578315  0.95539999
   0.88911647  0.44401845  0.04460000
   0.77735180  0.88911647  0.95539999
   0.88911647  0.77735180  0.04460000
unknown system                          
           1
     8.667144    4.998996    0.000000
    -8.666963    4.998683    0.000000
     0.000000    0.000000   30.000000
   V    Mo   W    S 
   3   3   3  18
Direct configuration=     2
   0.00000273  0.66614270 -0.00000433
   0.66716967  0.33382329 -0.00016822
   0.33289326  0.66675392  0.00017479
   0.66681916  0.66661191 -0.00007349
   0.99993256  0.33351489  0.00001485
   0.33318075 -0.00019062  0.00005856
   0.00006887 -0.00030761 -0.00000912
   0.33360428  0.33357943 -0.00021049
   0.66623825 -0.00002975  0.00021670
   0.11153796  0.22169553  0.95072180
   0.22158133  0.11133042  0.04925116
   0.11295542  0.55986082  0.95311197
   0.22479973  0.44856910  0.04808934
   0.10836117  0.88479412  0.95192799
   0.22024068  0.77322735  0.04690193
   0.44847285  0.22490034  0.95188756
   0.55813531  0.11495938  0.04805636
   0.44145479  0.55679885  0.95202534
   0.55695458  0.44151739  0.04798136
   0.44306154  0.88477599  0.95195566
   0.55136351  0.77644425  0.04809314
   0.77477739  0.22374516  0.95198009
   0.88823725  0.11010326  0.04928747
   0.77973751  0.55317229  0.95303352
   0.88664914  0.44651071  0.04694853
   0.77829000  0.88961034  0.95074317
   0.89169477  0.77630097  0.04800426
unknown system                          
           1
     8.483998    4.897746    0.000000
    -8.484313    4.898294    0.000000
     0.000000    0.000000   30.000000
   V    Mo   W    S 
   3   3   3  18
Direct configuration=     3
   0.00000104  0.66609724 -0.00000550
   0.66718771  0.33386836 -0.00018668
   0.33287924  0.66678647  0.00019431
   0.66687728  0.66686725 -0.00007814
   0.99993328  0.33305603  0.00001576
   0.33313289  0.00001782  0.00006234
   0.00007869 -0.00013293 -0.00000913
   0.33343348  0.33337386 -0.00023136
   0.66638631 -0.00006404  0.00023805
   0.11167577  0.22158162  0.95069223
   0.22147335  0.11147122  0.04925446
   0.11301071  0.55994785  0.95315104
   0.22502457  0.44859260  0.04807479
   0.10816363  0.88476793  0.95194407
   0.22015991  0.77312527  0.04688666
   0.44849298  0.22512639  0.95187938
   0.55835038  0.11497893  0.04804240
   0.44126542  0.55660818  0.95203092
   0.55677260  0.44135590  0.04795027
   0.44321015  0.88476117  0.95199205
   0.55133536  0.77660092  0.04810575
   0.77459351  0.22355840  0.95198071
   0.88810922  0.10981739  0.04931237
   0.77978681  0.55312558  0.95305819
   0.88662326  0.44657137  0.04690207
   0.77839617  0.88989110  0.95074486
   0.89186075  0.77646259  0.04799805
unknown system                          
           1
     8.265092    4.770870    0.000000
    -8.265995    4.772437    0.000000
     0.000000    0.000000   30.000000
   V    Mo   W    S 
   3   3   3  18
Direct configuration=     4
  -0.00003775  0.66635283 -0.00000698
   0.66676248  0.33359978 -0.00017624
   0.33331985  0.66694763  0.00018445
   0.66707667  0.66829161 -0.00005521
   0.99991577  0.33041586  0.00001191
   0.33295821  0.00125664  0.00004335
   0.00008053  0.00112953 -0.00000621
   0.33220546  0.33196270 -0.00020119
   0.66753865 -0.00026848  0.00020635
   0.11179037  0.22145134  0.94891040
   0.22143753  0.11170928  0.05090117
   0.11356621  0.56095760  0.95200408
   0.22583233  0.44975629  0.04948511
   0.10742576  0.88347459  0.95054504
   0.21941638  0.77199618  0.04815590
   0.44976887  0.22594134  0.95034733
   0.55914769  0.11629511  0.04944874
   0.44058058  0.55714912  0.95059094
   0.55726871  0.44082017  0.04925612
   0.44263847  0.88362438  0.95070583
   0.55007275  0.77602353  0.04964685
   0.77392329  0.22393715  0.95053472
   0.88800672  0.10945123  0.05107614
   0.78043211  0.55262265  0.95182241
   0.88616489  0.44714122  0.04802297
   0.77842490  0.89027781  0.94912098
   0.89249700  0.77589738  0.04942496
unknown system                          
           1
     8.250032    4.758996    0.000000
    -8.253996    4.765863    0.000000
     0.000000    0.000000   30.000000
   V    Mo   W    S 
   3   3   3  18
Direct configuration=     5
  -0.00008500  0.66722635 -0.00000737
   0.66525773  0.33248872  0.00003368
   0.33483707  0.66738726 -0.00002635
   0.66742124  0.67151703  0.00002130
   0.99990439  0.32453395  0.00000744
   0.33258959  0.00411434 -0.00002879
   0.00014942  0.00468224 -0.00000694
   0.32890598  0.32826110 -0.00004018
   0.67062422 -0.00072925  0.00004489
   0.11194043  0.22127725  0.94618681
   0.22142800  0.11181947  0.05323375
   0.11378879  0.56117472  0.95049337
   0.22627817  0.45073951  0.05140483
   0.10678382  0.88213200  0.94868051
   0.21869581  0.77127224  0.05001524
   0.45120142  0.22683764  0.94807580
   0.55983139  0.11766548  0.05126804
   0.44000884  0.55775924  0.94875166
   0.55796739  0.44080671  0.05080899
   0.44185195  0.88273486  0.94916948
   0.54866610  0.77549129  0.05192733
   0.77359957  0.22439785  0.94857688
   0.88786620  0.10910667  0.05378981
   0.78109285  0.55244438  0.94998064
   0.88606496  0.44733300  0.04951917
   0.77846274  0.89044622  0.94680099
   0.89308138  0.77529418  0.05131894
unknown system                          
           1
     8.251942    4.758626    0.000000
    -8.257264    4.767847    0.000000
     0.000000    0.000000   30.000000
   V    Mo   W    S 
   3   3   3  18
Direct configuration=     6
  -0.00011432  0.66757299 -0.00000526
   0.66440314  0.33190263  0.00007772
   0.33571567  0.66769310 -0.00007213
   0.66770240  0.67294295  0.00003069
   0.99989877  0.32263875  0.00000925
   0.33229815  0.00523505 -0.00003801
   0.00015506  0.00617230 -0.00000312
   0.32723418  0.32640478 -0.00005605
   0.67225283 -0.00093326  0.00006027
   0.11203133  0.22111147  0.94564306
   0.22113257  0.11154688  0.05363459
   0.11340495  0.56020609  0.95054512
   0.22588358  0.45017619  0.05150838
   0.10678526  0.88262778  0.94859013
   0.21894616  0.77179153  0.05007971
   0.45104215  0.22702640  0.94780866
   0.55975012  0.11728685  0.05128539
   0.44010157  0.55743820  0.94874371
   0.55774580  0.44125941  0.05075259
   0.44206235  0.88341208  0.94921134
   0.54882510  0.77586086  0.05220055
   0.77397606  0.22421848  0.94847576
   0.88777845  0.10887706  0.05432470
   0.78086536  0.55272258  0.94991327
   0.88645850  0.44674971  0.04947215
   0.77877813  0.89046506  0.94640421
   0.89310113  0.77580851  0.05140322
unknown system                          
           1
     8.251953    4.755448    0.000000
    -8.260119    4.769593    0.000000
     0.000000    0.000000   30.000000
   V    Mo   W    S 
   3   3   3  18
Direct configuration=     7
  -0.00013973  0.66773316 -0.00000662
   0.66371777  0.33151258  0.00012008
   0.33642886  0.66803094 -0.00011491
   0.66820460  0.67445155  0.00003762
   0.99989020  0.32113399  0.00000650
   0.33180541  0.00622384 -0.00004402
   0.00015659  0.00723772 -0.00000398
   0.32573617  0.32463373 -0.00003819
   0.67371671 -0.00122295  0.00004154
   0.11205729  0.22096085  0.94530501
   0.22083687  0.11136608  0.05386929
   0.11315926  0.55953048  0.95072050
   0.22565411  0.44973685  0.05148485
   0.10675195  0.88303018  0.94860850
   0.21917432  0.77215980  0.05000216
   0.45090112  0.22717035  0.94766789
   0.55972847  0.11695796  0.05118299
   0.44012522  0.55711749  0.94885180
   0.55745466  0.44155082  0.05057400
   0.44234883  0.88399476  0.94937918
   0.54896569  0.77616159  0.05234544
   0.77419433  0.22400229  0.94849889
   0.88774851  0.10871491  0.05466221
   0.78065410  0.55287653  0.94998799
   0.88670959  0.44631655  0.04930356
   0.77908469  0.89057715  0.94617160
   0.89314886  0.77625525  0.05138601
unknown system                          
           1
     8.252727    4.756650    0.000000
    -8.260205    4.769605    0.000000
     0.000000    0.000000   30.000000
   V    Mo   W    S 
   3   3   3  18
Direct configuration=     8
  -0.00016076  0.66776100 -0.00000868
   0.66274533  0.33099058  0.00019260
   0.33748258  0.66857617 -0.00018832
   0.66923265  0.67711325  0.00006561
   0.99988489  0.31899756  0.00000629
   0.33078302  0.00778300 -0.00006824
   0.00015141  0.00863727 -0.00000013
   0.32338052  0.32181591 -0.00004926
   0.67599857 -0.00175108  0.00005403
   0.11208961  0.22076953  0.94484762
   0.22030801  0.11106731  0.05424086
   0.11292077  0.55871857  0.95101536
   0.22540219  0.44915147  0.05141504
   0.10665782  0.88350033  0.94863984
   0.21947485  0.77262156  0.04985381
   0.45070111  0.22738044  0.94748497
   0.55968920  0.11645468  0.05095569
   0.44016706  0.55664303  0.94908770
   0.55696925  0.44193776  0.05023871
   0.44282276  0.88485500  0.94970027
   0.54915949  0.77658313  0.05253588
   0.77443338  0.22365947  0.94856042
   0.88771176  0.10850673  0.05511344
   0.78036938  0.55305923  0.95013326
   0.88696001  0.44574266  0.04901859
   0.77962132  0.89080881  0.94579717
   0.89325827  0.77683109  0.05135736
unknown system                          
           1
     8.254126    4.758076    0.000000
    -8.261127    4.770204    0.000000
     0.000000    0.000000   30.000000
   V    Mo   W    S 
   3   3   3  18
Direct configuration=     9
  -0.00015347  0.66773195 -0.00000835
   0.66301281  0.33114129  0.00017281
   0.33719745  0.66843756 -0.00016835
   0.66900022  0.67643951  0.00005753
   0.99988626  0.31962388  0.00000606
   0.33101306  0.00735756 -0.00006129
   0.00015220  0.00819293 -0.00000126
   0.32403529  0.32257279 -0.00004782
   0.67536253 -0.00163395  0.00005189
   0.11207699  0.22082510  0.94497893
   0.22044336  0.11114645  0.05414003
   0.11299992  0.55896328  0.95093566
   0.22548236  0.44932044  0.05143020
   0.10667903  0.88335836  0.94862977
   0.21938963  0.77248595  0.04989158
   0.45075543  0.22731969  0.94753664
   0.55969302  0.11658537  0.05100936
   0.44016258  0.55677421  0.94903180
   0.55709836  0.44183486  0.05032268
   0.44269633  0.88462464  0.94961996
   0.54910552  0.77646348  0.05248264
   0.77435751  0.22375001  0.94854727
   0.88772475  0.10856952  0.05498407
   0.78044938  0.55300411  0.95009674
   0.88687887  0.44590882  0.04909586
   0.77948315  0.89075289  0.94589850
   0.89323193  0.77666377  0.05136699
unknown system                          
           1
     8.250369    4.755008    0.000000
    -8.257801    4.767882    0.000000
     0.000000    0.000000   30.000000
   V    Mo   W    S 
   3   3   3  18
Direct configuration=    10
  -0.00019584  0.66762694 -0.00000744
   0.66305526  0.33117028  0.00016529
   0.33714033  0.66842022 -0.00015412
   0.66926009  0.67672710  0.00005775
   0.99984501  0.31961576  0.00000583
   0.33082178  0.00746839 -0.00006077
   0.00013793  0.00816764 -0.00000206
   0.32388313  0.32232601 -0.00005179
   0.67556729 -0.00165325  0.00005650
   0.11204157  0.22079699  0.94500733
   0.22039600  0.11111967  0.05414236
   0.11303743  0.55903066  0.95092588
   0.22555111  0.44938843  0.05141365
   0.10662310  0.88328241  0.94863918
   0.21938300  0.77248319  0.04988089
   0.45078860  0.22731788  0.94755375
   0.55965622  0.11655510  0.05097389
   0.44021375  0.55676714  0.94905839
   0.55712530  0.44186032  0.05028461
   0.44268785  0.88465196  0.94964728
   0.54909287  0.77643312  0.05247117
   0.77427837  0.22375582  0.94856923
   0.88775717  0.10857433  0.05495572
   0.78043595  0.55297945  0.95011355
   0.88681530  0.44593268  0.04909946
   0.77953022  0.89077441  0.94589479
   0.89328567  0.77664179  0.05135959
unknown system                          
           1
     8.236356    4.745052    0.000000
    -8.245262    4.760478    0.000000
     0.000000    0.000000   30.000000
   V    Mo   W    S 
   3   3   3  18
Direct configuration=    11
  -0.00007252  0.66828531 -0.00000360
   0.66276585  0.33105364  0.00012962
   0.33750414  0.66860318 -0.00012545
   0.66839811  0.67579626  0.00004064
   0.99992580  0.31876944  0.00000866
   0.33150185  0.00720699 -0.00003482
   0.00019832  0.00876158  0.00001277
   0.32394354  0.32289090 -0.00005317
   0.67538006 -0.00130334  0.00006457
   0.11218559  0.22080881  0.94485938
   0.22053668  0.11112817  0.05412825
   0.11286372  0.55878124  0.95098843
   0.22540484  0.44926753  0.05149919
   0.10674425  0.88352996  0.94863939
   0.21945054  0.77250550  0.04990113
   0.45083636  0.22742682  0.94749724
   0.55987155  0.11673952  0.05113226
   0.43996534  0.55673255  0.94888467
   0.55703624  0.44171307  0.05044339
   0.44273597  0.88456824  0.94948384
   0.54895219  0.77646618  0.05255163
   0.77446042  0.22375317  0.94850546
   0.88761086  0.10845369  0.05507605
   0.78042198  0.55301656  0.95010626
   0.88704902  0.44586965  0.04902369
   0.77939639  0.89063412  0.94590752
   0.89314736  0.77675574  0.05133291
unknown system                          
           1
     8.238303    4.744979    0.000000
    -8.248419    4.762503    0.000000
     0.000000    0.000000   30.000000
   V    Mo   W    S 
   3   3   3  18
Direct configuration=    12
   0.00027739  0.67090237 -0.00000734
   0.66131478  0.33077010  0.00013289
   0.33921072  0.66980289 -0.00015527
   0.66538343  0.67267584  0.00002675
   1.00011654  0.31518717 -0.00000805
   0.33396429  0.00660108 -0.00003309
   0.00040859  0.01095185 -0.00000813
   0.32400401  0.32445973 -0.00003149
   0.67498508 -0.00021803  0.00002229
   0.11261623  0.22055290  0.94425889
   0.22087499  0.11104954  0.05403697
   0.11222622  0.55777221  0.95143168
   0.22487695  0.44871867  0.05172804
   0.10720659  0.88461142  0.94872204
   0.21982757  0.77275764  0.04996598
   0.45094250  0.22772718  0.94738089
   0.56063475  0.11745962  0.05154842
   0.43912532  0.55664825  0.94840708
   0.55658326  0.44112562  0.05081046
   0.44308845  0.88441811  0.94908951
   0.54860220  0.77658737  0.05277651
   0.77506621  0.22367449  0.94835803
   0.88713436  0.10779190  0.05564536
   0.78018164  0.55311324  0.95011889
   0.88786401  0.44554870  0.04852927
   0.77908570  0.89020665  0.94605629
   0.89261266  0.77731796  0.05119704
unknown system                          
           1
     8.254815    4.751487    0.000000
    -8.267807    4.773993    0.000000
     0.000000    0.000000   30.000000
   V    Mo   W    S 
   3   3   3  18
Direct configuration=    13
   0.00032975  0.67155103 -0.00000932
   0.66074204  0.33073804  0.00017554
   0.33986488  0.67037477 -0.00019813
   0.66499513  0.67256404  0.00003513
   1.00013068  0.31404518 -0.00001009
   0.33422812  0.00677435 -0.00004170
   0.00045704  0.01153082 -0.00001499
   0.32361090  0.32416100 -0.00003303
   0.67532565 -0.00021508  0.00002523
   0.11269475  0.22039338  0.94406519
   0.22080784  0.11093660  0.05405154
   0.11207147  0.55743696  0.95163668
   0.22474392  0.44852662  0.05171336
   0.10730974  0.88493538  0.94873629
   0.21999226  0.77291689  0.04995377
   0.45089719  0.22776274  0.94734562
   0.56073925  0.11750545  0.05153428
   0.43900510  0.55658412  0.94841127
   0.55635748  0.44107010  0.05077910
   0.44329846  0.88458129  0.94911514
   0.54863224  0.77666445  0.05282476
   0.77519493  0.22361129  0.94837162
   0.88704590  0.10754783  0.05583659
   0.78002859  0.55313742  0.95014395
   0.88805843  0.44538979  0.04832061
   0.77915507  0.89015651  0.94605518
   0.89249766  0.77753347  0.05117629
unknown system                          
           1
     8.255781    4.750784    0.000000
    -8.269923    4.775284    0.000000
     0.000000    0.000000   30.000000
   V    Mo   W    S 
   3   3   3  18
Direct configuration=    14
   0.00026818  0.67225042  0.00000033
   0.65979430  0.33091309  0.00021264
   0.34084117  0.67154552 -0.00020841
   0.66541410  0.67350339  0.00002088
   0.99998880  0.31268085  0.00000625
   0.33378000  0.00739318  0.00000391
   0.00049351  0.01195685  0.00002185
   0.32263540  0.32264018 -0.00009023
   0.67643133 -0.00063962  0.00012102
   0.11277486  0.22012858  0.94387100
   0.22052272  0.11064723  0.05410553
   0.11191584  0.55700494  0.95201258
   0.22462255  0.44830300  0.05151509
   0.10740753  0.88525598  0.94869384
   0.22025154  0.77320670  0.04985697
   0.45080019  0.22774458  0.94729047
   0.56069186  0.11732426  0.05129429
   0.43904378  0.55642914  0.94863129
   0.55591376  0.44115912  0.05059434
   0.44376308  0.88513463  0.94928789
   0.54883821  0.77679209  0.05286609
   0.77524721  0.22351280  0.94853145
   0.88699031  0.10716489  0.05600282
   0.77973047  0.55311522  0.95023275
   0.88821137  0.44513864  0.04794693
   0.77943140  0.89012303  0.94597838
   0.89241100  0.77778578  0.05119997
unknown system                          
           1
     8.255260    4.750986    0.000000
    -8.268816    4.774469    0.000000
     0.000000    0.000000   30.000000
   V    Mo   W    S 
   3   3   3  18
Direct configuration=    15
   0.00025160  0.67310710 -0.00000501
   0.65881791  0.33116118  0.00023677
   0.34189182  0.67283976 -0.00023759
   0.66581694  0.67433648  0.00000134
   0.99988929  0.31123948 -0.00001219
   0.33327129  0.00781983  0.00000168
   0.00053733  0.01231617  0.00000239
   0.32182412  0.32131068 -0.00013562
   0.67731838 -0.00111941  0.00013649
   0.11280645  0.21987581  0.94373548
   0.22031254  0.11044756  0.05416502
   0.11175677  0.55662775  0.95238595
   0.22452696  0.44802839  0.05132365
   0.10749182  0.88551695  0.94869529
   0.22043658  0.77344317  0.04976925
   0.45068632  0.22771304  0.94724247
   0.56073408  0.11720187  0.05109566
   0.43899848  0.55625799  0.94882961
   0.55549402  0.44121188  0.05044949
   0.44420031  0.88563100  0.94944558
   0.54900318  0.77690185  0.05292844
   0.77529622  0.22331480  0.94871367
   0.88696001  0.10685807  0.05616896
   0.77953100  0.55313907  0.95032558
   0.88837237  0.44493700  0.04758716
   0.77965393  0.89012877  0.94594629
   0.89233473  0.77796822  0.05120409
unknown system                          
           1
     8.267374    4.755540    0.000000
    -8.283250    4.783041    0.000000
     0.000000    0.000000   30.000000
   V    Mo   W    S 
   3   3   3  18
Direct configuration=    16
   0.00023714  0.67275929 -0.00000777
   0.65902942  0.33124973  0.00023702
   0.34169743  0.67273756 -0.00024235
   0.66635620  0.67496248  0.00000534
   0.99990605  0.31176356 -0.00001501
   0.33273237  0.00786089 -0.00000932
   0.00051336  0.01194050 -0.00000410
   0.32177893  0.32101088 -0.00013432
   0.67735499 -0.00141379  0.00012879
   0.11271907  0.21993041  0.94383572
   0.22026296  0.11047590  0.05420670
   0.11186440  0.55680616  0.95230749
   0.22462640  0.44810438  0.05128605
   0.10740475  0.88530480  0.94867208
   0.22034460  0.77338096  0.04977093
   0.45063208  0.22764285  0.94723631
   0.56061394  0.11705004  0.05103816
   0.43911935  0.55625684  0.94891050
   0.55556387  0.44133699  0.05040647
   0.44413200  0.88566073  0.94950775
   0.54906170  0.77688165  0.05291206
   0.77519801  0.22328738  0.94873335
   0.88705050  0.10700001  0.05608391
   0.77961833  0.55316040  0.95030597
   0.88825764  0.44500554  0.04768586
   0.77970603  0.89021462  0.94590281
   0.89243291  0.77784370  0.05123949
unknown system                          
           1
     8.266948    4.754435    0.000000
    -8.283630    4.783334    0.000000
     0.000000    0.000000   30.000000
   V    Mo   W    S 
   3   3   3  18
Direct configuration=    17
   0.00030992  0.67451192 -0.00000330
   0.65771290  0.33145005  0.00024478
   0.34312103  0.67430353 -0.00024353
   0.66527697  0.67393096 -0.00002096
   0.99986189  0.30967202 -0.00001894
   0.33354134  0.00780784  0.00002058
   0.00061974  0.01288375 -0.00000633
   0.32147162  0.32086288 -0.00017083
   0.67767207 -0.00130388  0.00017027
   0.11293830  0.21961443  0.94352183
   0.22026632  0.11025639  0.05416192
   0.11147536  0.55610339  0.95283358
   0.22430580  0.44770229  0.05118454
   0.10772504  0.88594311  0.94868668
   0.22069554  0.77367676  0.04971549
   0.45068930  0.22774173  0.94715747
   0.56097801  0.11736413  0.05104151
   0.43873504  0.55616968  0.94887636
   0.55501070  0.44102588  0.05046418
   0.44468061  0.88594217  0.94944564
   0.54902819  0.77695060  0.05300830
   0.77546905  0.22320409  0.94883220
   0.88682937  0.10644050  0.05639394
   0.77928871  0.55311644  0.95038143
   0.88868417  0.44471402  0.04714269
   0.77971345  0.88996679  0.94597738
   0.89211401  0.77816300  0.05120302
unknown system                          
           1
     8.267245    4.754831    0.000000
    -8.283792    4.783495    0.000000
     0.000000    0.000000   30.000000
   V    Mo   W    S 
   3   3   3  18
Direct configuration=    18
   0.00034442  0.67547653 -0.00000043
   0.65701397  0.33167243  0.00024422
   0.34387912  0.67524752 -0.00024268
   0.66483817  0.67348710 -0.00003790
   0.99982903  0.30865147 -0.00002295
   0.33381109  0.00774462  0.00003791
   0.00068651  0.01325502 -0.00000181
   0.32134771  0.32067048 -0.00019449
   0.67782197 -0.00139397  0.00019457
   0.11302443  0.21945365  0.94343226
   0.22027516  0.11015641  0.05410997
   0.11130353  0.55582262  0.95310842
   0.22419342  0.44752968  0.05109510
   0.10788508  0.88619264  0.94869096
   0.22083135  0.77380262  0.04968518
   0.45068183  0.22773345  0.94713518
   0.56114035  0.11749541  0.05100405
   0.43855554  0.55613596  0.94889984
   0.55474863  0.44089847  0.05049225
   0.44494115  0.88609047  0.94942380
   0.54903906  0.77695746  0.05303932
   0.77555993  0.22312690  0.94891815
   0.88674957  0.10617810  0.05647979
   0.77916926  0.55311862  0.95041772
   0.88887754  0.44461915  0.04686676
   0.77971244  0.88984322  0.94604043
   0.89195419  0.77824841  0.05118430
unknown system                          
           1
     8.266293    4.753945    0.000000
    -8.283678    4.784063    0.000000
     0.000000    0.000000   30.000000
   V    Mo   W    S 
   3   3   3  18
Direct configuration=    19
   0.00028214  0.67552936  0.00000340
   0.65667628  0.33211617  0.00026788
   0.34422414  0.67604504 -0.00025535
   0.66610532  0.67498211 -0.00003993
   0.99973402  0.30869069 -0.00001804
   0.33252051  0.00804077  0.00005065
   0.00069162  0.01262824  0.00002152
   0.32097361  0.31933195 -0.00021751
   0.67833591 -0.00226148  0.00023521
   0.11290912  0.21940336  0.94349288
   0.22005606  0.11004063  0.05424020
   0.11142644  0.55600840  0.95316336
   0.22437820  0.44758315  0.05094162
   0.10775510  0.88588516  0.94857778
   0.22070450  0.77378459  0.04968352
   0.45052459  0.22754995  0.94706699
   0.56094210  0.11716848  0.05077047
   0.43873990  0.55605206  0.94913593
   0.55469208  0.44118406  0.05038656
   0.44501494  0.88643316  0.94954451
   0.54921749  0.77693369  0.05309199
   0.77535482  0.22295295  0.94903732
   0.88688780  0.10622348  0.05640873
   0.77929027  0.55321274  0.95039563
   0.88874581  0.44469472  0.04684035
   0.77994996  0.88994200  0.94588457
   0.89208171  0.77805902  0.05128963
unknown system                          
           1
     8.268803    4.753407    0.000000
    -8.287242    4.785347    0.000000
     0.000000    0.000000   30.000000
   V    Mo   W    S 
   3   3   3  18
Direct configuration=    20
   0.00037506  0.67593183  0.00001885
   0.65705125  0.33092808  0.00019214
   0.34350251  0.67423028 -0.00017913
   0.66163595  0.66941379  0.00000597
   0.99987491  0.30816439  0.00001332
   0.33720106  0.00719481  0.00005338
   0.00070630  0.01476833  0.00006568
   0.32242839  0.32339743 -0.00015032
   0.67680486  0.00047400  0.00021976
   0.11322779  0.21945068  0.94336298
   0.22078202  0.11035824  0.05361367
   0.11097814  0.55542725  0.95314705
   0.22382643  0.44752455  0.05131626
   0.10826387  0.88688365  0.94896820
   0.22115766  0.77385026  0.04964313
   0.45112988  0.22807026  0.94734090
   0.56169544  0.11843258  0.05146922
   0.43803462  0.55639555  0.94838730
   0.55482628  0.44010559  0.05071726
   0.44486491  0.88530412  0.94913186
   0.54866669  0.77690433  0.05285174
   0.77590406  0.22358289  0.94874220
   0.88653145  0.10595881  0.05645589
   0.77883698  0.55281708  0.95049926
   0.88916671  0.44452012  0.04674814
   0.77916256  0.88951048  0.94649717
   0.89157868  0.77861506  0.05086802
unknown system                          
           1
     8.270236    4.753043    0.000000
    -8.289926    4.787150    0.000000
     0.000000    0.000000   30.000000
   V    Mo   W    S 
   3   3   3  18
Direct configuration=    21
   0.00049392  0.67686703  0.00000431
   0.65706084  0.33086130  0.00011093
   0.34328543  0.67405606 -0.00017366
   0.65843608  0.66512714 -0.00004425
   1.00001349  0.30785066 -0.00005671
   0.34023938  0.00603147 -0.00000363
   0.00077504  0.01596773 -0.00006617
   0.32351833  0.32594040 -0.00023345
   0.67567121  0.00184729  0.00013532
   0.11336954  0.21937710  0.94340585
   0.22128984  0.11038718  0.05322276
   0.11059827  0.55522578  0.95332032
   0.22365875  0.44763853  0.05139008
   0.10878746  0.88743955  0.94924505
   0.22136402  0.77394635  0.04963512
   0.45124196  0.22804047  0.94741056
   0.56226097  0.11916559  0.05189955
   0.43748313  0.55656828  0.94804411
   0.55472225  0.43952228  0.05109653
   0.44495055  0.88476684  0.94887043
   0.54853367  0.77674916  0.05274743
   0.77610130  0.22387681  0.94870373
   0.88636498  0.10577782  0.05655895
   0.77866793  0.55272363  0.95050865
   0.88955937  0.44469967  0.04658200
   0.77867717  0.88906218  0.94703898
   0.89108956  0.77869814  0.05064711
unknown system                          
           1
     8.273345    4.753698    0.000000
    -8.294171    4.789775    0.000000
     0.000000    0.000000   30.000000
   V    Mo   W    S 
   3   3   3  18
Direct configuration=    22
   0.00050800  0.67727809  0.00002451
   0.65695508  0.33107754  0.00010212
   0.34331062  0.67431674 -0.00013325
   0.65743745  0.66354902 -0.00000772
   1.00000795  0.30767672 -0.00001941
   0.34116872  0.00552237  0.00001403
   0.00082767  0.01634170 -0.00000552
   0.32393346  0.32665867 -0.00021267
   0.67534193  0.00224366  0.00019450
   0.11341466  0.21938103  0.94337133
   0.22142656  0.11036509  0.05305449
   0.11047880  0.55522916  0.95338551
   0.22365629  0.44771062  0.05135655
   0.10899611  0.88761066  0.94928666
   0.22142233  0.77398303  0.04964750
   0.45123571  0.22794525  0.94742369
   0.56244558  0.11935155  0.05196944
   0.43727024  0.55658141  0.94794769
   0.55462537  0.43933243  0.05121327
   0.44503397  0.88466189  0.94874804
   0.54853150  0.77665448  0.05268988
   0.77609549  0.22397077  0.94870733
   0.88636244  0.10573217  0.05651852
   0.77862924  0.55270832  0.95048066
   0.88966845  0.44480927  0.04650400
   0.77854298  0.88885324  0.94717045
   0.89088787  0.77866956  0.05056832
unknown system                          
           1
     8.273793    4.754138    0.000000
    -8.294491    4.789993    0.000000
     0.000000    0.000000   30.000000
   V    Mo   W    S 
   3   3   3  18
Direct configuration=    23
   0.00049785  0.67760295  0.00002895
   0.65651910  0.33190806  0.00011259
   0.34383154  0.67565922 -0.00013402
   0.65853838  0.66452336 -0.00001211
   0.99992372  0.30755641 -0.00002039
   0.33989166  0.00535519  0.00001790
   0.00090775  0.01582286  0.00001025
   0.32360037  0.32539016 -0.00024031
   0.67577401  0.00135499  0.00023418
   0.11331294  0.21933680  0.94338728
   0.22122198  0.11016950  0.05319188
   0.11056110  0.55545895  0.95349439
   0.22389550  0.44780589  0.05115553
   0.10897501  0.88737269  0.94913846
   0.22131208  0.77400115  0.04969658
   0.45099655  0.22763266  0.94733826
   0.56230634  0.11898755  0.05170019
   0.43736814  0.55642842  0.94821215
   0.55442298  0.43958466  0.05118227
   0.44523993  0.88510217  0.94881133
   0.54875163  0.77655815  0.05275765
   0.77584742  0.22376803  0.94887062
   0.88650930  0.10577369  0.05649615
   0.77874604  0.55283844  0.95041276
   0.88957658  0.44495925  0.04643044
   0.77879355  0.88883953  0.94702834
   0.89089302  0.77842374  0.05069859
unknown system                          
           1
     8.266959    4.748278    0.000000
    -8.288798    4.786105    0.000000
     0.000000    0.000000   30.000000
   V    Mo   W    S 
   3   3   3  18
Direct configuration=    24
   0.00049903  0.67786171  0.00003202
   0.65630654  0.33230163  0.00010974
   0.34406153  0.67626760 -0.00012825
   0.65857077  0.66435820 -0.00002098
   0.99989373  0.30742040 -0.00002179
   0.33974039  0.00515467  0.00002645
   0.00096033  0.01579867  0.00001270
   0.32363535  0.32515831 -0.00024600
   0.67581646  0.00111019  0.00024160
   0.11327284  0.21929210  0.94339224
   0.22121831  0.11009731  0.05319027
   0.11055485  0.55551420  0.95356274
   0.22395943  0.44784535  0.05107806
   0.10900600  0.88734525  0.94910470
   0.22128708  0.77401201  0.04972139
   0.45091843  0.22751602  0.94731806
   0.56233242  0.11897374  0.05163418
   0.43732264  0.55640795  0.94827193
   0.55432417  0.43957447  0.05121770
   0.44534282  0.88519724  0.94878876