   27   27  100    1
  0.9710400E+02  0.1002848E-08  0.1002848E-08  0.3000000E-08  0.5000000E-15
  1.000000000000000E-004
  CAR 
 unknown system                          
    159     34    120
 
  0.0000000E+00  0.0000000E+00  0.0000000E+00  0.1562500E-01
    1      -17.821500   1.000000
    2      -16.693289   1.000000
    3      -16.598491   1.000000
    4      -16.568018   1.000000
    5      -16.526436   1.000000
    6      -16.467375   1.000000
    7      -16.355038   1.000000
    8      -16.257859   1.000000
    9      -16.119661   1.000000
   10      -16.086339   1.000000
   11      -16.025841   1.000000
   12      -16.007663   1.000000
   13      -15.858431   1.000000
   14      -15.721912   1.000000
   15      -15.616986   1.000000
   16      -15.550772   1.000000
   17      -15.421699   1.000000
   18      -15.286687   1.000000
   19       -9.388042   1.000000
   20       -9.006010   1.000000
   21       -8.859683   1.000000
   22       -8.827003   1.000000
   23       -8.686645   1.000000
   24       -8.655058   1.000000
   25       -8.598815   1.000000
   26       -8.540867   1.000000
   27       -8.482540   1.000000
   28       -8.407749   1.000000
   29       -8.389624   1.000000
   30       -8.283144   1.000000
   31       -8.226957   1.000000
   32       -8.167185   1.000000
   33       -8.111948   1.000000
   34       -8.044646   1.000000
   35       -7.906068   1.000000
   36       -7.819703   1.000000
   37       -7.702332   1.000000
   38       -7.615290   1.000000
   39       -7.458360   1.000000
   40       -7.438868   1.000000
   41       -7.378905   1.000000
   42       -7.217068   1.000000
   43       -7.147942   1.000000
   44       -6.891516   1.000000
   45       -6.836967   1.000000
   46       -6.767356   1.000000
   47       -6.693859   1.000000
   48       -6.670068   1.000000
   49       -6.645317   1.000000
   50       -6.497739   1.000000
   51       -6.420401   1.000000
   52       -6.404608   1.000000
   53       -6.312220   1.000000
   54       -6.263549   1.000000
   55       -6.209673   1.000000
   56       -6.067757   1.000000
   57       -5.907943   1.000000
   58       -5.858052   1.000000
   59       -5.700164   1.000000
   60       -5.573584   1.000000
   61       -5.515782   1.000000
   62       -5.337803   1.000000
   63       -5.271172   1.000000
   64       -5.174484   1.000000
   65       -5.089645   1.000000
   66       -4.966743   1.000000
   67       -4.862840   1.000000
   68       -4.784361   1.000000
   69       -4.712101   1.000000
   70       -4.694919   1.000000
   71       -4.573547   1.000000
   72       -4.502644   1.000000
   73       -4.435770   1.000000
   74       -4.321450   1.000000
   75       -4.186876   1.000000
   76       -3.992057   1.000000
   77       -3.628317   0.995214
   78       -3.554869   0.980847
   79       -3.479726   0.938247
   80       -3.374948   0.787950
   81       -3.265604   0.510432
   82       -2.710809   0.000049
   83       -2.616305   0.000002
   84       -2.534329   0.000000
   85       -2.487050   0.000000
   86       -2.416775   0.000000
   87       -2.319315   0.000000
   88       -2.226328   0.000000
   89       -2.213822   0.000000
   90       -1.951870   0.000000
   91       -1.872009   0.000000
   92       -1.722141   0.000000
   93       -1.492607   0.000000
   94       -1.462407   0.000000
   95       -1.268067   0.000000
   96       -1.074144   0.000000
   97       -1.059140   0.000000
   98       -0.848871   0.000000
   99       -0.808185   0.000000
  100       -0.583134   0.000000
  101       -0.539800   0.000000
  102       -0.463506   0.000000
  103       -0.395849   0.000000
  104       -0.299638   0.000000
  105       -0.065641   0.000000
  106        0.125642   0.000000
  107        0.167022   0.000000
  108        0.241904   0.000000
  109        0.296509   0.000000
  110        0.342132   0.000000
  111        0.364704   0.000000
  112        0.515602   0.000000
  113        0.563336   0.000000
  114        0.693112   0.000000
  115        0.750740   0.000000
  116        1.016304   0.000000
  117        1.209890   0.000000
  118        1.652105   0.000000
  119        1.833668   0.000000
  120        2.158685   0.000000
 
  0.1250000E+00  0.2775558E-16  0.0000000E+00  0.3125000E-01
    1      -17.796534   1.000000
    2      -16.800572   1.000000
    3      -16.638961   1.000000
    4      -16.584835   1.000000
    5      -16.532538   1.000000
    6      -16.378140   1.000000
    7      -16.334607   1.000000
    8      -16.262226   1.000000
    9      -16.130479   1.000000
   10      -16.094416   1.000000
   11      -16.052884   1.000000
   12      -15.894051   1.000000
   13      -15.837415   1.000000
   14      -15.728508   1.000000
   15      -15.616031   1.000000
   16      -15.569565   1.000000
   17      -15.427122   1.000000
   18      -15.293133   1.000000
   19       -9.379933   1.000000
   20       -9.181433   1.000000
   21       -8.961496   1.000000
   22       -8.877648   1.000000
   23       -8.767820   1.000000
   24       -8.654495   1.000000
   25       -8.609535   1.000000
   26       -8.519554   1.000000
   27       -8.484210   1.000000
   28       -8.405551   1.000000
   29       -8.281085   1.000000
   30       -8.261515   1.000000
   31       -8.217904   1.000000
   32       -8.121596   1.000000
   33       -8.032679   1.000000
   34       -7.933388   1.000000
   35       -7.840365   1.000000
   36       -7.732196   1.000000
   37       -7.690807   1.000000
   38       -7.584288   1.000000
   39       -7.501856   1.000000
   40       -7.403046   1.000000
   41       -7.326323   1.000000
   42       -7.261586   1.000000
   43       -7.126231   1.000000
   44       -6.976460   1.000000
   45       -6.894680   1.000000
   46       -6.781202   1.000000
   47       -6.706511   1.000000
   48       -6.648298   1.000000
   49       -6.557042   1.000000
   50       -6.513169   1.000000
   51       -6.443383   1.000000
   52       -6.382980   1.000000
   53       -6.316962   1.000000
   54       -6.280853   1.000000
   55       -6.176971   1.000000
   56       -6.066864   1.000000
   57       -5.968227   1.000000
   58       -5.836502   1.000000
   59       -5.701388   1.000000
   60       -5.565207   1.000000
   61       -5.490279   1.000000
   62       -5.404626   1.000000
   63       -5.293297   1.000000
   64       -5.184953   1.000000
   65       -5.154910   1.000000
   66       -5.031346   1.000000
   67       -4.953509   1.000000
   68       -4.846947   1.000000
   69       -4.691477   1.000000
   70       -4.663263   1.000000
   71       -4.555256   1.000000
   72       -4.446329   1.000000
   73       -4.379677   1.000000
   74       -4.209805   1.000000
   75       -4.111978   1.000000
   76       -3.953203   0.999999
   77       -3.782658   0.999884
   78       -3.657628   0.997430
   79       -3.570360   0.985412
   80       -3.280824   0.553208
   81       -3.172218   0.262979
   82       -2.711033   0.000049
   83       -2.615958   0.000002
   84       -2.531453   0.000000
   85       -2.465550   0.000000
   86       -2.414652   0.000000
   87       -2.314458   0.000000
   88       -2.212414   0.000000
   89       -2.188556   0.000000
   90       -1.946955   0.000000
   91       -1.862184   0.000000
   92       -1.732238   0.000000
   93       -1.491791   0.000000
   94       -1.450416   0.000000
   95       -1.254083   0.000000
   96       -1.084947   0.000000
   97       -1.047134   0.000000
   98       -0.857769   0.000000
   99       -0.793271   0.000000
  100       -0.664532   0.000000
  101       -0.576182   0.000000
  102       -0.519922   0.000000
  103       -0.448606   0.000000
  104       -0.333451   0.000000
  105       -0.152129   0.000000
  106        0.030015   0.000000
  107        0.104173   0.000000
  108        0.234525   0.000000
  109        0.248445   0.000000
  110        0.337316   0.000000
  111        0.373861   0.000000
  112        0.557630   0.000000
  113        0.670185   0.000000
  114        0.730157   0.000000
  115        0.852449   0.000000
  116        1.028296   0.000000
  117        1.185492   0.000000
  118        1.694453   0.000000
  119        1.873409   0.000000
  120        2.193431   0.000000
 
  0.2500000E+00  0.5551115E-16  0.0000000E+00  0.3125000E-01
    1      -17.722863   1.000000
    2      -17.011146   1.000000
    3      -16.662684   1.000000
    4      -16.607009   1.000000
    5      -16.562675   1.000000
    6      -16.333904   1.000000
    7      -16.290585   1.000000
    8      -16.236884   1.000000
    9      -16.133145   1.000000
   10      -16.084367   1.000000
   11      -16.018573   1.000000
   12      -15.810422   1.000000
   13      -15.762836   1.000000
   14      -15.730723   1.000000
   15      -15.615158   1.000000
   16      -15.602015   1.000000
   17      -15.447810   1.000000
   18      -15.310022   1.000000
   19       -9.516529   1.000000
   20       -9.287927   1.000000
   21       -9.147873   1.000000
   22       -8.952702   1.000000
   23       -8.874093   1.000000
   24       -8.728944   1.000000
   25       -8.569588   1.000000
   26       -8.509933   1.000000
   27       -8.463017   1.000000
   28       -8.386534   1.000000
   29       -8.236006   1.000000
   30       -8.203822   1.000000
   31       -8.184372   1.000000
   32       -8.070080   1.000000
   33       -7.924782   1.000000
   34       -7.802772   1.000000
   35       -7.724611   1.000000
   36       -7.636356   1.000000
   37       -7.572815   1.000000
   38       -7.539762   1.000000
   39       -7.439796   1.000000
   40       -7.373104   1.000000
   41       -7.256198   1.000000
   42       -7.182010   1.000000
   43       -7.087619   1.000000
   44       -7.038030   1.000000
   45       -6.956926   1.000000
   46       -6.826309   1.000000
   47       -6.739492   1.000000
   48       -6.631132   1.000000
   49       -6.543915   1.000000
   50       -6.494983   1.000000
   51       -6.445288   1.000000
   52       -6.376754   1.000000
   53       -6.307280   1.000000
   54       -6.186382   1.000000
   55       -6.133773   1.000000
   56       -6.072271   1.000000
   57       -6.030081   1.000000
   58       -5.852182   1.000000
   59       -5.706741   1.000000
   60       -5.633713   1.000000
   61       -5.594409   1.000000
   62       -5.527650   1.000000
   63       -5.467790   1.000000
   64       -5.377960   1.000000
   65       -5.206186   1.000000
   66       -5.053905   1.000000
   67       -4.911972   1.000000
   68       -4.801576   1.000000
   69       -4.651053   1.000000
   70       -4.607987   1.000000
   71       -4.580949   1.000000
   72       -4.357347   1.000000
   73       -4.285373   1.000000
   74       -4.222857   1.000000
   75       -4.003190   1.000000
   76       -3.945169   0.999999
   77       -3.877250   0.999993
   78       -3.802003   0.999933
   79       -3.583540   0.988526
   80       -3.227727   0.404513
   81       -3.073373   0.091245
   82       -2.708176   0.000045
   83       -2.613721   0.000002
   84       -2.534334   0.000000
   85       -2.432856   0.000000
   86       -2.382814   0.000000
   87       -2.302464   0.000000
   88       -2.175558   0.000000
   89       -2.118413   0.000000
   90       -1.927049   0.000000
   91       -1.850891   0.000000
   92       -1.736313   0.000000
   93       -1.499235   0.000000
   94       -1.430407   0.000000
   95       -1.226757   0.000000
   96       -1.101099   0.000000
   97       -1.048878   0.000000
   98       -0.915636   0.000000
   99       -0.818488   0.000000
  100       -0.757564   0.000000
  101       -0.677582   0.000000
  102       -0.616051   0.000000
  103       -0.510581   0.000000
  104       -0.443332   0.000000
  105       -0.290580   0.000000
  106       -0.185531   0.000000
  107       -0.019052   0.000000
  108        0.129723   0.000000
  109        0.164772   0.000000
  110        0.386984   0.000000
  111        0.489622   0.000000
  112        0.624789   0.000000
  113        0.733711   0.000000
  114        0.833636   0.000000
  115        0.915134   0.000000
  116        1.057183   0.000000
  117        1.276676   0.000000
  118        1.814198   0.000000
  119        1.986906   0.000000
  120        2.296572   0.000000
 
  0.3750000E+00  0.0000000E+00  0.0000000E+00  0.3125000E-01
    1      -17.605631   1.000000
    2      -17.224026   1.000000
    3      -16.689763   1.000000
    4      -16.628215   1.000000
    5      -16.564048   1.000000
    6      -16.367840   1.000000
    7      -16.260537   1.000000
    8      -16.209199   1.000000
    9      -16.095740   1.000000
   10      -16.049289   1.000000
   11      -15.955301   1.000000
   12      -15.828256   1.000000
   13      -15.751641   1.000000
   14      -15.688723   1.000000
   15      -15.614524   1.000000
   16      -15.568927   1.000000
   17      -15.480948   1.000000
   18      -15.330342   1.000000
   19       -9.718108   1.000000
   20       -9.292721   1.000000
   21       -9.247523   1.000000
   22       -9.010679   1.000000
   23       -8.917550   1.000000
   24       -8.797161   1.000000
   25       -8.538778   1.000000
   26       -8.501343   1.000000
   27       -8.426314   1.000000
   28       -8.366902   1.000000
   29       -8.257992   1.000000
   30       -8.198620   1.000000
   31       -8.141984   1.000000
   32       -8.015613   1.000000
   33       -7.892532   1.000000
   34       -7.784492   1.000000
   35       -7.708638   1.000000
   36       -7.629384   1.000000
   37       -7.575671   1.000000
   38       -7.480984   1.000000
   39       -7.269586   1.000000
   40       -7.245689   1.000000
   41       -7.199035   1.000000
   42       -7.079173   1.000000
   43       -7.048174   1.000000
   44       -6.978273   1.000000
   45       -6.866606   1.000000
   46       -6.854260   1.000000
   47       -6.738291   1.000000
   48       -6.607077   1.000000
   49       -6.512953   1.000000
   50       -6.493557   1.000000
   51       -6.419197   1.000000
   52       -6.346815   1.000000
   53       -6.250862   1.000000
   54       -6.155165   1.000000
   55       -6.114806   1.000000
   56       -6.051538   1.000000
   57       -6.006684   1.000000
   58       -5.943508   1.000000
   59       -5.855617   1.000000
   60       -5.801083   1.000000
   61       -5.759018   1.000000
   62       -5.665880   1.000000
   63       -5.592682   1.000000
   64       -5.487516   1.000000
   65       -5.207619   1.000000
   66       -4.989904   1.000000
   67       -4.848135   1.000000
   68       -4.805282   1.000000
   69       -4.696881   1.000000
   70       -4.601003   1.000000
   71       -4.561317   1.000000
   72       -4.474877   1.000000
   73       -4.294997   1.000000
   74       -4.144096   1.000000
   75       -4.064921   1.000000
   76       -3.889757   0.999995
   77       -3.796265   0.999921
   78       -3.738650   0.999626
   79       -3.585786   0.988994
   80       -3.220190   0.384007
   81       -3.016627   0.041425
   82       -2.720159   0.000064
   83       -2.615069   0.000002
   84       -2.527061   0.000000
   85       -2.415603   0.000000
   86       -2.334834   0.000000
   87       -2.274474   0.000000
   88       -2.133856   0.000000
   89       -2.047143   0.000000
   90       -1.900779   0.000000
   91       -1.827611   0.000000
   92       -1.728901   0.000000
   93       -1.524633   0.000000
   94       -1.432794   0.000000
   95       -1.218433   0.000000
   96       -1.130885   0.000000
   97       -1.092526   0.000000
   98       -0.992182   0.000000
   99       -0.871693   0.000000
  100       -0.825139   0.000000
  101       -0.722882   0.000000
  102       -0.665142   0.000000
  103       -0.606515   0.000000
  104       -0.513843   0.000000
  105       -0.391286   0.000000
  106       -0.335837   0.000000
  107       -0.121812   0.000000
  108        0.043410   0.000000
  109        0.098441   0.000000
  110        0.411077   0.000000
  111        0.545122   0.000000
  112        0.680151   0.000000
  113        0.735913   0.000000
  114        0.831758   0.000000
  115        1.011528   0.000000
  116        1.091058   0.000000
  117        1.428179   0.000000
  118        1.995570   0.000000
  119        2.161378   0.000000
  120        2.463036   0.000000
 
  0.5000000E+00  0.1110223E-15  0.0000000E+00  0.1562500E-01
    1      -17.493102   1.000000
    2      -17.370143   1.000000
    3      -16.700238   1.000000
    4      -16.639894   1.000000
    5      -16.556303   1.000000
    6      -16.385686   1.000000
    7      -16.253939   1.000000
    8      -16.205815   1.000000
    9      -16.080414   1.000000
   10      -16.002246   1.000000
   11      -15.940266   1.000000
   12      -15.831751   1.000000
   13      -15.777864   1.000000
   14      -15.686123   1.000000
   15      -15.595671   1.000000
   16      -15.540107   1.000000
   17      -15.500127   1.000000
   18      -15.340706   1.000000
   19       -9.793014   1.000000
   20       -9.329740   1.000000
   21       -9.253210   1.000000
   22       -9.030676   1.000000
   23       -8.897309   1.000000
   24       -8.820742   1.000000
   25       -8.601842   1.000000
   26       -8.476662   1.000000
   27       -8.407775   1.000000
   28       -8.351927   1.000000
   29       -8.245691   1.000000
   30       -8.163853   1.000000
   31       -8.112114   1.000000
   32       -8.009987   1.000000
   33       -7.910746   1.000000
   34       -7.802494   1.000000
   35       -7.779008   1.000000
   36       -7.617986   1.000000
   37       -7.599181   1.000000
   38       -7.429602   1.000000
   39       -7.242336   1.000000
   40       -7.182893   1.000000
   41       -7.137090   1.000000
   42       -7.045147   1.000000
   43       -6.980093   1.000000
   44       -6.945755   1.000000
   45       -6.875079   1.000000
   46       -6.736148   1.000000
   47       -6.693806   1.000000
   48       -6.620308   1.000000
   49       -6.519565   1.000000
   50       -6.459243   1.000000
   51       -6.443014   1.000000
   52       -6.329844   1.000000
   53       -6.259140   1.000000
   54       -6.198714   1.000000
   55       -6.156275   1.000000
   56       -6.046263   1.000000
   57       -5.997399   1.000000
   58       -5.929896   1.000000
   59       -5.890575   1.000000
   60       -5.877537   1.000000
   61       -5.753034   1.000000
   62       -5.709336   1.000000
   63       -5.620841   1.000000
   64       -5.559562   1.000000
   65       -5.164312   1.000000
   66       -5.126824   1.000000
   67       -4.955558   1.000000
   68       -4.781460   1.000000
   69       -4.666005   1.000000
   70       -4.581631   1.000000
   71       -4.546997   1.000000
   72       -4.466766   1.000000
   73       -4.277227   1.000000
   74       -4.163967   1.000000
   75       -4.086977   1.000000
   76       -3.843758   0.999981
   77       -3.750421   0.999724
   78       -3.711600   0.999263
   79       -3.579950   0.987741
   80       -3.223774   0.393723
   81       -2.995135   0.029624
   82       -2.733972   0.000095
   83       -2.613455   0.000002
   84       -2.522104   0.000000
   85       -2.407846   0.000000
   86       -2.314855   0.000000
   87       -2.257161   0.000000
   88       -2.113127   0.000000
   89       -2.023443   0.000000
   90       -1.882692   0.000000
   91       -1.808978   0.000000
   92       -1.723826   0.000000
   93       -1.546984   0.000000
   94       -1.442938   0.000000
   95       -1.233078   0.000000
   96       -1.149450   0.000000
   97       -1.122287   0.000000
   98       -1.002903   0.000000
   99       -0.880957   0.000000
  100       -0.862319   0.000000
  101       -0.728876   0.000000
  102       -0.684694   0.000000
  103       -0.665893   0.000000
  104       -0.543222   0.000000
  105       -0.417086   0.000000
  106       -0.380238   0.000000
  107       -0.159025   0.000000
  108        0.017105   0.000000
  109        0.071730   0.000000
  110        0.411838   0.000000
  111        0.551038   0.000000
  112        0.696042   0.000000
  113        0.734220   0.000000
  114        0.831774   0.000000
  115        1.058440   0.000000
  116        1.107080   0.000000
  117        1.485413   0.000000
  118        2.207963   0.000000
  119        2.245495   0.000000
  120        2.371255   0.000000
 
  0.0000000E+00  0.1250000E+00  0.0000000E+00  0.3125000E-01
    1      -17.795845   1.000000
    2      -16.774491   1.000000
    3      -16.675383   1.000000
    4      -16.579739   1.000000
    5      -16.513030   1.000000
    6      -16.396282   1.000000
    7      -16.375315   1.000000
    8      -16.246714   1.000000
    9      -16.125923   1.000000
   10      -16.074461   1.000000
   11      -16.020381   1.000000
   12      -15.928060   1.000000
   13      -15.847787   1.000000
   14      -15.714124   1.000000
   15      -15.630913   1.000000
   16      -15.545066   1.000000
   17      -15.433499   1.000000
   18      -15.293443   1.000000
   19       -9.385763   1.000000
   20       -9.169308   1.000000
   21       -8.970592   1.000000
   22       -8.893155   1.000000
   23       -8.751023   1.000000
   24       -8.679474   1.000000
   25       -8.601267   1.000000
   26       -8.554944   1.000000
   27       -8.431803   1.000000
   28       -8.378515   1.000000
   29       -8.337390   1.000000
   30       -8.276010   1.000000
   31       -8.217729   1.000000
   32       -8.123814   1.000000
   33       -8.029532   1.000000
   34       -7.884188   1.000000
   35       -7.854583   1.000000
   36       -7.725363   1.000000
   37       -7.677305   1.000000
   38       -7.578227   1.000000
   39       -7.479475   1.000000
   40       -7.439855   1.000000
   41       -7.309733   1.000000
   42       -7.250778   1.000000
   43       -7.139477   1.000000
   44       -6.952234   1.000000
   45       -6.890306   1.000000
   46       -6.807311   1.000000
   47       -6.759148   1.000000
   48       -6.669785   1.000000
   49       -6.628702   1.000000
   50       -6.480158   1.000000
   51       -6.406079   1.000000
   52       -6.371784   1.000000
   53       -6.313303   1.000000
   54       -6.256428   1.000000
   55       -6.181379   1.000000
   56       -6.090629   1.000000
   57       -5.941077   1.000000
   58       -5.812280   1.000000
   59       -5.672749   1.000000
   60       -5.588141   1.000000
   61       -5.440379   1.000000
   62       -5.407538   1.000000
   63       -5.306324   1.000000
   64       -5.210390   1.000000
   65       -5.068016   1.000000
   66       -5.015196   1.000000
   67       -4.968719   1.000000
   68       -4.870157   1.000000
   69       -4.820213   1.000000
   70       -4.624176   1.000000
   71       -4.585865   1.000000
   72       -4.510143   1.000000
   73       -4.315720   1.000000
   74       -4.251619   1.000000
   75       -4.053397   1.000000
   76       -3.895101   0.999996
   77       -3.766097   0.999818
   78       -3.671368   0.998106
   79       -3.537414   0.974301
   80       -3.361785   0.759984
   81       -3.140633   0.195576
   82       -2.713718   0.000053
   83       -2.602201   0.000002
   84       -2.559248   0.000000
   85       -2.497523   0.000000
   86       -2.400399   0.000000
   87       -2.319640   0.000000
   88       -2.238819   0.000000
   89       -2.188649   0.000000
   90       -1.999015   0.000000
   91       -1.876008   0.000000
   92       -1.646632   0.000000
   93       -1.506043   0.000000
   94       -1.425745   0.000000
   95       -1.257647   0.000000
   96       -1.085808   0.000000
   97       -1.029793   0.000000
   98       -0.865190   0.000000
   99       -0.775764   0.000000
  100       -0.651685   0.000000
  101       -0.563581   0.000000
  102       -0.533501   0.000000
  103       -0.447648   0.000000
  104       -0.285628   0.000000
  105       -0.155428   0.000000
  106       -0.009932   0.000000
  107        0.037688   0.000000
  108        0.177108   0.000000
  109        0.275955   0.000000
  110        0.320121   0.000000
  111        0.377285   0.000000
  112        0.530126   0.000000
  113        0.656735   0.000000
  114        0.767201   0.000000
  115        0.872834   0.000000
  116        1.050538   0.000000
  117        1.229794   0.000000
  118        1.696822   0.000000
  119        1.872802   0.000000
  120        2.194379   0.000000
 
  0.1250000E+00  0.1250000E+00  0.0000000E+00  0.3125000E-01
    1      -17.744005   1.000000
    2      -16.945394   1.000000
    3      -16.717350   1.000000
    4      -16.585092   1.000000
    5      -16.488920   1.000000
    6      -16.401175   1.000000
    7      -16.292205   1.000000
    8      -16.237279   1.000000
    9      -16.131805   1.000000
   10      -16.088531   1.000000
   11      -15.998122   1.000000
   12      -15.877235   1.000000
   13      -15.765530   1.000000
   14      -15.725200   1.000000
   15      -15.640606   1.000000
   16      -15.567320   1.000000
   17      -15.442388   1.000000
   18      -15.300969   1.000000
   19       -9.463614   1.000000
   20       -9.259994   1.000000
   21       -9.173746   1.000000
   22       -8.979521   1.000000
   23       -8.766528   1.000000
   24       -8.699647   1.000000
   25       -8.577266   1.000000
   26       -8.507274   1.000000
   27       -8.433939   1.000000
   28       -8.354413   1.000000
   29       -8.263223   1.000000
   30       -8.236853   1.000000
   31       -8.179240   1.000000
   32       -8.130807   1.000000
   33       -7.984598   1.000000
   34       -7.845904   1.000000
   35       -7.760861   1.000000
   36       -7.666996   1.000000
   37       -7.609915   1.000000
   38       -7.485850   1.000000
   39       -7.401653   1.000000
   40       -7.348529   1.000000
   41       -7.281658   1.000000
   42       -7.241247   1.000000
   43       -7.136599   1.000000
   44       -7.025638   1.000000
   45       -6.925681   1.000000
   46       -6.837693   1.000000
   47       -6.775664   1.000000
   48       -6.695897   1.000000
   49       -6.563802   1.000000
   50       -6.515709   1.000000
   51       -6.425657   1.000000
   52       -6.341865   1.000000
   53       -6.287946   1.000000
   54       -6.223497   1.000000
   55       -6.124484   1.000000
   56       -6.102808   1.000000
   57       -6.010964   1.000000
   58       -5.805947   1.000000
   59       -5.707887   1.000000
   60       -5.626522   1.000000
   61       -5.525098   1.000000
   62       -5.454283   1.000000
   63       -5.386855   1.000000
   64       -5.255862   1.000000
   65       -5.166745   1.000000
   66       -5.042459   1.000000
   67       -4.979009   1.000000
   68       -4.874291   1.000000
   69       -4.793989   1.000000
   70       -4.680997   1.000000
   71       -4.494634   1.000000
   72       -4.379713   1.000000
   73       -4.235690   1.000000
   74       -4.179640   1.000000
   75       -4.065083   1.000000
   76       -3.959268   1.000000
   77       -3.858638   0.999988
   78       -3.736406   0.999603
   79       -3.560789   0.982718
   80       -3.268379   0.518254
   81       -3.114498   0.148628
   82       -2.703298   0.000039
   83       -2.574940   0.000001
   84       -2.544884   0.000000
   85       -2.493779   0.000000
   86       -2.378652   0.000000
   87       -2.318185   0.000000
   88       -2.215658   0.000000
   89       -2.140385   0.000000
   90       -1.982204   0.000000
   91       -1.878155   0.000000
   92       -1.665876   0.000000
   93       -1.490829   0.000000
   94       -1.415914   0.000000
   95       -1.236388   0.000000
   96       -1.103925   0.000000
   97       -1.025431   0.000000
   98       -0.875995   0.000000
   99       -0.812144   0.000000
  100       -0.723345   0.000000
  101       -0.622000   0.000000
  102       -0.561041   0.000000
  103       -0.521356   0.000000
  104       -0.386840   0.000000
  105       -0.274737   0.000000
  106       -0.135113   0.000000
  107       -0.077307   0.000000
  108        0.116449   0.000000
  109        0.253119   0.000000
  110        0.323087   0.000000
  111        0.451596   0.000000
  112        0.564364   0.000000
  113        0.722679   0.000000
  114        0.799225   0.000000
  115        0.956730   0.000000
  116        1.113678   0.000000
  117        1.254272   0.000000
  118        1.778818   0.000000
  119        1.950582   0.000000
  120        2.263989   0.000000
 
  0.2500000E+00  0.1250000E+00  0.0000000E+00  0.3125000E-01
    1      -17.645834   1.000000
    2      -17.138253   1.000000
    3      -16.797323   1.000000
    4      -16.585552   1.000000
    5      -16.480548   1.000000
    6      -16.362455   1.000000
    7      -16.264946   1.000000
    8      -16.234158   1.000000
    9      -16.097906   1.000000
   10      -16.078389   1.000000
   11      -15.961489   1.000000
   12      -15.826215   1.000000
   13      -15.762530   1.000000
   14      -15.705883   1.000000
   15      -15.630031   1.000000
   16      -15.581184   1.000000
   17      -15.448892   1.000000
   18      -15.317609   1.000000
   19       -9.652569   1.000000
   20       -9.342693   1.000000
   21       -9.256335   1.000000
   22       -9.064381   1.000000
   23       -8.771287   1.000000
   24       -8.724061   1.000000
   25       -8.529859   1.000000
   26       -8.492321   1.000000
   27       -8.419620   1.000000
   28       -8.342488   1.000000
   29       -8.253859   1.000000
   30       -8.216008   1.000000
   31       -8.174951   1.000000
   32       -8.078694   1.000000
   33       -7.975908   1.000000
   34       -7.816838   1.000000
   35       -7.762091   1.000000
   36       -7.621337   1.000000
   37       -7.518182   1.000000
   38       -7.422746   1.000000
   39       -7.348052   1.000000
   40       -7.273417   1.000000
   41       -7.160055   1.000000
   42       -7.129568   1.000000
   43       -7.043625   1.000000
   44       -6.978262   1.000000
   45       -6.930335   1.000000
   46       -6.851441   1.000000
   47       -6.774591   1.000000