       N       E                     dE             d eps       ncg     rms          rms(c)
DAV:   1     0.112579459111E+04    0.11258E+04   -0.35979E+04  8160   0.577E+02
DAV:   2    -0.193292908311E+01   -0.11277E+04   -0.10874E+04 11080   0.173E+02
DAV:   3    -0.199561391852E+03   -0.19763E+03   -0.18942E+03 10880   0.820E+01
DAV:   4    -0.208997964339E+03   -0.94366E+01   -0.91399E+01 12160   0.263E+01
DAV:   5    -0.209327205620E+03   -0.32924E+00   -0.32826E+00 11560   0.359E+00    0.275E+01
DAV:   6    -0.237157763399E+03   -0.27831E+02   -0.10966E+02 12400   0.604E+01    0.596E+01
DAV:   7    -0.196424428589E+03    0.40733E+02   -0.17764E+02 13280   0.152E+02    0.199E+01
DAV:   8    -0.189414884773E+03    0.70095E+01   -0.17523E+01 12080   0.127E+01    0.126E+01
DAV:   9    -0.188166779732E+03    0.12481E+01   -0.31299E+00 12960   0.633E+00    0.914E+00
DAV:  10    -0.187005838355E+03    0.11609E+01   -0.20693E+00 13560   0.742E+00    0.275E+00
DAV:  11    -0.186968845493E+03    0.36993E-01   -0.59559E-01 13240   0.250E+00    0.274E+00
DAV:  12    -0.187098143156E+03   -0.12930E+00   -0.87813E-01 12200   0.492E+00    0.482E+00
DAV:  13    -0.186883126658E+03    0.21502E+00   -0.49686E-01 12680   0.397E+00    0.209E+00
DAV:  14    -0.186858263311E+03    0.24863E-01   -0.12418E-01 13160   0.204E+00    0.164E+00
DAV:  15    -0.186839897476E+03    0.18366E-01   -0.66766E-02 12200   0.158E+00    0.876E-01
DAV:  16    -0.186832363694E+03    0.75338E-02   -0.11767E-02 12320   0.469E-01    0.452E-01
DAV:  17    -0.186830270514E+03    0.20932E-02   -0.79152E-03 12640   0.443E-01    0.224E-01
DAV:  18    -0.186830014344E+03    0.25617E-03   -0.22228E-03 11880   0.146E-01    0.167E-01
DAV:  19    -0.186829663849E+03    0.35050E-03   -0.96564E-04 10960   0.115E-01    0.487E-02
DAV:  20    -0.186830392232E+03   -0.72838E-03   -0.66787E-04  9360   0.579E-02    0.503E-02
DAV:  21    -0.186830986145E+03   -0.59391E-03   -0.27191E-04  7920   0.456E-02    0.455E-02
DAV:  22    -0.186832149445E+03   -0.11633E-02   -0.22823E-04  7480   0.641E-02    0.413E-02
DAV:  23    -0.186833384540E+03   -0.12351E-02   -0.15131E-04  7600   0.461E-02    0.119E-02
DAV:  24    -0.186833969756E+03   -0.58522E-03   -0.30815E-05  6520   0.144E-02    0.922E-03
DAV:  25    -0.186834331474E+03   -0.36172E-03   -0.16561E-05  5720   0.137E-02    0.554E-03
DAV:  26    -0.186834558177E+03   -0.22670E-03   -0.87469E-06  6760   0.743E-03    0.175E-03
DAV:  27    -0.186834661848E+03   -0.10367E-03   -0.38992E-06  7160   0.475E-03    0.171E-03
DAV:  28    -0.186834708292E+03   -0.46444E-04   -0.21317E-06  7400   0.378E-03
   1 F= -.18683471E+03 E0= -.18666217E+03  d E =-.186835E+03
       N       E                     dE             d eps       ncg     rms          rms(c)
DAV:   1    -0.187459307995E+03   -0.62465E+00   -0.27084E+02  8160   0.349E+01    0.462E+00
DAV:   2    -0.189360459319E+03   -0.19012E+01   -0.20169E+01 12280   0.153E+01    0.877E+00
DAV:   3    -0.189321644276E+03    0.38815E-01   -0.38975E+00 12440   0.120E+01    0.666E+00
DAV:   4    -0.188732050132E+03    0.58959E+00   -0.62905E-01 12560   0.461E+00    0.185E+00
DAV:   5    -0.188734350695E+03   -0.23006E-02   -0.29400E-01 10520   0.159E+00    0.235E+00
DAV:   6    -0.188691847991E+03    0.42503E-01   -0.35039E-01 12000   0.245E+00    0.235E+00
DAV:   7    -0.188675494143E+03    0.16354E-01   -0.20327E-01 12680   0.266E+00    0.216E+00
DAV:   8    -0.188640193720E+03    0.35300E-01   -0.90933E-02 12600   0.162E+00    0.646E-01
DAV:   9    -0.188634255443E+03    0.59383E-02   -0.11645E-02 10720   0.387E-01    0.216E-01
DAV:  10    -0.188634849840E+03   -0.59440E-03   -0.40227E-03 12880   0.302E-01    0.343E-01
DAV:  11    -0.188634232792E+03    0.61705E-03   -0.34644E-03 12920   0.344E-01    0.228E-01
DAV:  12    -0.188633815983E+03    0.41681E-03   -0.12531E-03 11760   0.164E-01    0.807E-02
DAV:  13    -0.188633861867E+03   -0.45885E-04   -0.20593E-04  7240   0.591E-02
   2 F= -.18863386E+03 E0= -.18849168E+03  d E =-.179915E+01
       N       E                     dE             d eps       ncg     rms          rms(c)
DAV:   1    -0.190545473844E+03   -0.19117E+01   -0.30740E+01  9240   0.141E+01    0.445E+00
DAV:   2    -0.190541834926E+03    0.36389E-02   -0.28282E+00 11400   0.970E+00    0.747E+00
DAV:   3    -0.190020568910E+03    0.52127E+00   -0.13360E+00 12320   0.863E+00    0.411E+00
DAV:   4    -0.189817852659E+03    0.20272E+00   -0.69360E-01 12880   0.402E+00    0.247E+00
DAV:   5    -0.189737257915E+03    0.80595E-01   -0.29834E-01 11360   0.198E+00    0.122E+00
DAV:   6    -0.189721242433E+03    0.16015E-01   -0.66164E-02 11920   0.141E+00    0.863E-01
DAV:   7    -0.189715301080E+03    0.59414E-02   -0.15585E-02 12360   0.716E-01    0.221E-01
DAV:   8    -0.189715201690E+03    0.99391E-04   -0.22746E-03 11000   0.176E-01    0.153E-01
DAV:   9    -0.189715252738E+03   -0.51049E-04   -0.99185E-04 10560   0.125E-01
   3 F= -.18971525E+03 E0= -.18959534E+03  d E =-.108139E+01
       N       E                     dE             d eps       ncg     rms          rms(c)
DAV:   1    -0.191297844359E+03   -0.15826E+01   -0.72373E+01  8160   0.195E+01    0.469E+00
DAV:   2    -0.191178728953E+03    0.11912E+00   -0.55273E+00 13400   0.849E+00    0.530E+00
DAV:   3    -0.191210986339E+03   -0.32257E-01   -0.16460E+00 12080   0.932E+00    0.674E+00
DAV:   4    -0.190875983100E+03    0.33500E+00   -0.16951E+00 11880   0.790E+00    0.360E+00
DAV:   5    -0.190847946173E+03    0.28037E-01   -0.61675E-01 12080   0.539E+00    0.351E+00
DAV:   6    -0.190691118567E+03    0.15683E+00   -0.24177E-01 12240   0.334E+00    0.880E-01
DAV:   7    -0.190685021113E+03    0.60975E-02   -0.41157E-02 11880   0.859E-01    0.494E-01
DAV:   8    -0.190683686609E+03    0.13345E-02   -0.11774E-02 11760   0.654E-01    0.530E-01
DAV:   9    -0.190681245249E+03    0.24414E-02   -0.42578E-03 11440   0.470E-01    0.153E-01
DAV:  10    -0.190681569424E+03   -0.32418E-03   -0.12159E-03 10320   0.137E-01    0.127E-01
DAV:  11    -0.190681377850E+03    0.19157E-03   -0.84492E-04 10400   0.107E-01    0.463E-02
DAV:  12    -0.190681383879E+03   -0.60290E-05   -0.15745E-04  7360   0.454E-02
   4 F= -.19068138E+03 E0= -.19058024E+03  d E =-.966131E+00
       N       E                     dE             d eps       ncg     rms          rms(c)
DAV:   1    -0.192027392043E+03   -0.13460E+01   -0.14707E+02  8160   0.271E+01    0.560E+00
DAV:   2    -0.191824168374E+03    0.20322E+00   -0.92322E+00 12000   0.858E+00    0.444E+00
DAV:   3    -0.192204665504E+03   -0.38050E+00   -0.23365E+00 12200   0.106E+01    0.903E+00
DAV:   4    -0.191550002671E+03    0.65466E+00   -0.22557E+00 12160   0.108E+01    0.343E+00
DAV:   5    -0.191378060204E+03    0.17194E+00   -0.45818E-01 12160   0.328E+00    0.158E+00
DAV:   6    -0.191371190136E+03    0.68701E-02   -0.19107E-01 12640   0.283E+00    0.184E+00
DAV:   7    -0.191345548272E+03    0.25642E-01   -0.10214E-01 11880   0.213E+00    0.683E-01
DAV:   8    -0.191338248044E+03    0.73002E-02   -0.11628E-02 11680   0.567E-01    0.220E-01
DAV:   9    -0.191338927890E+03   -0.67985E-03   -0.32658E-03 12800   0.396E-01    0.318E-01
DAV:  10    -0.191338436876E+03    0.49101E-03   -0.30470E-03 11560   0.338E-01    0.119E-01
DAV:  11    -0.191338254932E+03    0.18194E-03   -0.79160E-04 10640   0.120E-01    0.552E-02
DAV:  12    -0.191338226989E+03    0.27942E-04   -0.13095E-04  7200   0.442E-02
   5 F= -.19133823E+03 E0= -.19124387E+03  d E =-.656843E+00
       N       E                     dE             d eps       ncg     rms          rms(c)
DAV:   1    -0.191430119362E+03   -0.91864E-01   -0.86249E+00  8160   0.621E+00    0.747E-01
DAV:   2    -0.191486650846E+03   -0.56531E-01   -0.32622E-01 12960   0.244E+00    0.209E+00
DAV:   3    -0.191447141140E+03    0.39510E-01   -0.13547E-01 12040   0.239E+00    0.756E-01
DAV:   4    -0.191446462252E+03    0.67889E-03   -0.23093E-02 11680   0.103E+00    0.752E-01
DAV:   5    -0.191440704426E+03    0.57578E-02   -0.11603E-02 11520   0.833E-01    0.282E-01
DAV:   6    -0.191440016476E+03    0.68795E-03   -0.33349E-03 11000   0.287E-01    0.156E-01
DAV:   7    -0.191439718826E+03    0.29765E-03   -0.17088E-03 10440   0.158E-01    0.873E-02
DAV:   8    -0.191439681247E+03    0.37580E-04   -0.49758E-04  9800   0.140E-01
   6 F= -.19143968E+03 E0= -.19134412E+03  d E =-.101454E+00
       N       E                     dE             d eps       ncg     rms          rms(c)
DAV:   1    -0.191468971494E+03   -0.29253E-01   -0.71237E-01  8160   0.180E+00    0.230E-01
DAV:   2    -0.191474700626E+03   -0.57291E-02   -0.28606E-02 13440   0.887E-01    0.687E-01
DAV:   3    -0.191469877846E+03    0.48228E-02   -0.10991E-02 11960   0.724E-01    0.177E-01
DAV:   4    -0.191470240213E+03   -0.36237E-03   -0.21203E-03 10400   0.324E-01    0.263E-01
DAV:   5    -0.191469548487E+03    0.69173E-03   -0.12484E-03  9920   0.269E-01    0.771E-02
DAV:   6    -0.191469543818E+03    0.46692E-05   -0.31192E-04  7440   0.858E-02
   7 F= -.19146954E+03 E0= -.19137388E+03  d E =-.298626E-01
       N       E                     dE             d eps       ncg     rms          rms(c)
DAV:   1    -0.191392004115E+03    0.77544E-01   -0.52415E+00  8160   0.486E+00    0.570E-01
DAV:   2    -0.191424905759E+03   -0.32902E-01   -0.18478E-01 13440   0.208E+00    0.157E+00
DAV:   3    -0.191399355997E+03    0.25550E-01   -0.58193E-02 12480   0.175E+00    0.467E-01
DAV:   4    -0.191400003108E+03   -0.64711E-03   -0.11247E-02 10520   0.738E-01    0.565E-01
DAV:   5    -0.191396753138E+03    0.32500E-02   -0.70779E-03 10960   0.639E-01    0.229E-01
DAV:   6    -0.191396733931E+03    0.19206E-04   -0.29788E-03 11800   0.328E-01    0.226E-01
DAV:   7    -0.191396837581E+03   -0.10365E-03   -0.29581E-03 11760   0.383E-01    0.258E-01
DAV:   8    -0.191396092757E+03    0.74482E-03   -0.12067E-03  9840   0.228E-01    0.323E-02
DAV:   9    -0.191396105882E+03   -0.13126E-04   -0.73198E-05  6240   0.321E-02
   8 F= -.19139611E+03 E0= -.19130088E+03  d E =0.734379E-01
       N       E                     dE             d eps       ncg     rms          rms(c)
DAV:   1    -0.191413398346E+03   -0.17306E-01   -0.12177E+00  8160   0.241E+00    0.380E-01
DAV:   2    -0.191414902230E+03   -0.15039E-02   -0.53861E-02 11360   0.683E-01    0.395E-01
DAV:   3    -0.191416811066E+03   -0.19088E-02   -0.18743E-02 11800   0.865E-01    0.650E-01
DAV:   4    -0.191412538288E+03    0.42728E-02   -0.80416E-03 11360   0.611E-01    0.190E-01
DAV:   5    -0.191412937817E+03   -0.39953E-03   -0.29264E-03 11000   0.405E-01    0.301E-01
DAV:   6    -0.191411977325E+03    0.96049E-03   -0.20863E-03  9960   0.335E-01    0.825E-02
DAV:   7    -0.191411923880E+03    0.53445E-04   -0.40994E-04  8560   0.101E-01
   9 F= -.19141192E+03 E0= -.19131663E+03  d E =-.158180E-01
       N       E                     dE             d eps       ncg     rms          rms(c)
DAV:   1    -0.191487347814E+03   -0.75370E-01   -0.50724E+00  8160   0.483E+00    0.640E-01
DAV:   2    -0.191522169474E+03   -0.34822E-01   -0.19018E-01 13600   0.227E+00    0.180E+00
DAV:   3    -0.191491311575E+03    0.30858E-01   -0.80821E-02 12280   0.194E+00    0.523E-01
DAV:   4    -0.191493461951E+03   -0.21504E-02   -0.18706E-02 12240   0.942E-01    0.758E-01
DAV:   5    -0.191487863895E+03    0.55981E-02   -0.11972E-02 12000   0.811E-01    0.281E-01
DAV:   6    -0.191487259887E+03    0.60401E-03   -0.38844E-03 11280   0.332E-01    0.191E-01
DAV:   7    -0.191487414379E+03   -0.15449E-03   -0.27065E-03 11880   0.368E-01    0.254E-01
DAV:   8    -0.191486732914E+03    0.68146E-03   -0.12526E-03  9880   0.253E-01    0.494E-02
DAV:   9    -0.191486706420E+03    0.26494E-04   -0.87741E-05  5720   0.449E-02
  10 F= -.19148671E+03 E0= -.19139091E+03  d E =-.747825E-01
       N       E                     dE             d eps       ncg     rms          rms(c)
DAV:   1    -0.191543559482E+03   -0.56827E-01   -0.28584E+00  8160   0.359E+00    0.449E-01
DAV:   2    -0.191569120256E+03   -0.25561E-01   -0.11577E-01 13520   0.187E+00    0.151E+00
DAV:   3    -0.191547490246E+03    0.21630E-01   -0.52080E-02 12120   0.151E+00    0.381E-01
DAV:   4    -0.191548116186E+03   -0.62594E-03   -0.81357E-03 11240   0.642E-01    0.469E-01
DAV:   5    -0.191545826970E+03    0.22892E-02   -0.41280E-03 11120   0.482E-01    0.151E-01
DAV:   6    -0.191545718771E+03    0.10820E-03   -0.14180E-03 10400   0.159E-01    0.108E-01
DAV:   7    -0.191545634728E+03    0.84043E-04   -0.78579E-04 10840   0.158E-01
  11 F= -.19154563E+03 E0= -.19145044E+03  d E =-.589283E-01
       N       E                     dE             d eps       ncg     rms          rms(c)
DAV:   1    -0.191493856559E+03    0.51862E-01   -0.19440E+00  8160   0.297E+00    0.367E-01
DAV:   2    -0.191510765065E+03   -0.16909E-01   -0.82930E-02 13400   0.152E+00    0.112E+00
DAV:   3    -0.191496773487E+03    0.13992E-01   -0.26125E-02 12160   0.117E+00    0.264E-01
DAV:   4    -0.191497429142E+03   -0.65566E-03   -0.47175E-03 11080   0.476E-01    0.380E-01
DAV:   5    -0.191495947617E+03    0.14815E-02   -0.26874E-03 10680   0.394E-01    0.118E-01
DAV:   6    -0.191495923067E+03    0.24550E-04   -0.83500E-04 10400   0.138E-01
  12 F= -.19149592E+03 E0= -.19140022E+03  d E =0.497117E-01
       N       E                     dE             d eps       ncg     rms          rms(c)
DAV:   1    -0.191387382668E+03    0.10856E+00   -0.89864E+00  8160   0.639E+00    0.791E-01
DAV:   2    -0.191454715312E+03   -0.67333E-01   -0.36155E-01 13520   0.303E+00    0.214E+00
DAV:   3    -0.191399936340E+03    0.54779E-01   -0.10096E-01 12080   0.235E+00    0.558E-01
DAV:   4    -0.191402839400E+03   -0.29031E-02   -0.21922E-02 11520   0.981E-01    0.830E-01
DAV:   5    -0.191396125855E+03    0.67135E-02   -0.13418E-02 11320   0.858E-01    0.273E-01
DAV:   6    -0.191395803279E+03    0.32258E-03   -0.40251E-03 12080   0.306E-01    0.183E-01
DAV:   7    -0.191395287626E+03    0.51565E-03   -0.18346E-03 11640   0.193E-01    0.117E-01
DAV:   8    -0.191395209193E+03    0.78433E-04   -0.56300E-04  9080   0.171E-01
  13 F= -.19139521E+03 E0= -.19130026E+03  d E =0.100714E+00
       N       E                     dE             d eps       ncg     rms          rms(c)
DAV:   1    -0.191326295499E+03    0.68992E-01   -0.52444E+00  8160   0.487E+00    0.551E-01
DAV:   2    -0.191352116557E+03   -0.25821E-01   -0.16669E-01 13360   0.177E+00    0.127E+00
DAV:   3    -0.191334224090E+03    0.17892E-01   -0.47687E-02 11760   0.155E+00    0.539E-01
DAV:   4    -0.191333564175E+03    0.65991E-03   -0.12859E-02 11960   0.698E-01    0.498E-01
DAV:   5    -0.191331406435E+03    0.21577E-02   -0.62319E-03 11360   0.581E-01    0.268E-01
DAV:   6    -0.191330646307E+03    0.76013E-03   -0.24250E-03 11280   0.307E-01    0.120E-01
DAV:   7    -0.191330561858E+03    0.84449E-04   -0.92097E-04 10920   0.134E-01
  14 F= -.19133056E+03 E0= -.19123749E+03  d E =0.646473E-01
       N       E                     dE             d eps       ncg     rms          rms(c)
DAV:   1    -0.191345280472E+03   -0.14634E-01   -0.13743E+00  8160   0.250E+00    0.285E-01
DAV:   2    -0.191349945784E+03   -0.46653E-02   -0.56546E-02 12200   0.740E-01    0.370E-01
DAV:   3    -0.191350052480E+03   -0.10670E-03   -0.11423E-02 12680   0.711E-01    0.454E-01
DAV:   4    -0.191348144590E+03    0.19079E-02   -0.43919E-03 11240   0.463E-01    0.164E-01
DAV:   5    -0.191347958153E+03    0.18644E-03   -0.10842E-03  9760   0.228E-01    0.140E-01
DAV:   6    -0.191347950817E+03    0.73365E-05   -0.98438E-04 11520   0.230E-01
  15 F= -.19134795E+03 E0= -.19125419E+03  d E =-.173890E-01
       N       E                     dE             d eps       ncg     rms          rms(c)
DAV:   1    -0.191404408485E+03   -0.56450E-01   -0.38129E+00  8160   0.418E+00    0.548E-01
DAV:   2    -0.191437919454E+03   -0.33511E-01   -0.15661E-01 13600   0.216E+00    0.170E+00
DAV:   3    -0.191408998043E+03    0.28921E-01   -0.71397E-02 12280   0.180E+00    0.443E-01
DAV:   4    -0.191410058143E+03   -0.10601E-02   -0.12308E-02 11520   0.759E-01    0.592E-01
DAV:   5    -0.191406655446E+03    0.34027E-02   -0.69789E-03 11440   0.616E-01    0.210E-01
DAV:   6    -0.191406242707E+03    0.41274E-03   -0.21008E-03 10920   0.229E-01    0.128E-01
DAV:   7    -0.191406491481E+03   -0.24877E-03   -0.16783E-03 10520   0.272E-01    0.216E-01
DAV:   8    -0.191406009712E+03    0.48177E-03   -0.89506E-04  9080   0.225E-01    0.500E-02
DAV:   9    -0.191405985531E+03    0.24181E-04   -0.76932E-05  5720   0.475E-02
  16 F= -.19140599E+03 E0= -.19131062E+03  d E =-.580347E-01
       N       E                     dE             d eps       ncg     rms          rms(c)
DAV:   1    -0.191403719423E+03    0.22903E-02   -0.47918E-01  8160   0.148E+00    0.189E-01
DAV:   2    -0.191406503030E+03   -0.27836E-02   -0.19674E-02 13440   0.649E-01    0.429E-01
DAV:   3    -0.191404627690E+03    0.18753E-02   -0.59265E-03 11280   0.550E-01    0.194E-01
DAV:   4    -0.191404334056E+03    0.29363E-03   -0.13723E-03  9520   0.238E-01    0.129E-01
DAV:   5    -0.191404276319E+03    0.57737E-04   -0.73417E-04  9120   0.198E-01
  17 F= -.19140428E+03 E0= -.19130839E+03  d E =0.170921E-02
       N       E                     dE             d eps       ncg     rms          rms(c)
DAV:   1    -0.191286594431E+03    0.11774E+00   -0.25866E+01  8160   0.109E+01    0.119E+00
DAV:   2    -0.191386484491E+03   -0.99890E-01   -0.75596E-01 13400   0.323E+00    0.242E+00
DAV:   3    -0.191336426327E+03    0.50058E-01   -0.21408E-01 12280   0.333E+00    0.154E+00
DAV:   4    -0.191317042219E+03    0.19384E-01   -0.60417E-02 12600   0.160E+00    0.785E-01
DAV:   5    -0.191312984682E+03    0.40575E-02   -0.25776E-02 11600   0.111E+00    0.750E-01
DAV:   6    -0.191308567654E+03    0.44170E-02   -0.17545E-02 12120   0.950E-01    0.437E-01
DAV:   7    -0.191309924917E+03   -0.13573E-02   -0.11856E-02 11800   0.734E-01    0.568E-01
DAV:   8    -0.191306641452E+03    0.32835E-02   -0.71392E-03 10840   0.596E-01    0.143E-01
DAV:   9    -0.191306343313E+03    0.29814E-03   -0.67163E-04 10320   0.120E-01    0.357E-02
DAV:  10    -0.191306331256E+03    0.12057E-04   -0.16093E-04  8160   0.383E-02
  18 F= -.19130633E+03 E0= -.19121070E+03  d E =0.979451E-01
       N       E                     dE             d eps       ncg     rms          rms(c)
DAV:   1    -0.191349806455E+03   -0.43463E-01   -0.42683E+00  8160   0.437E+00    0.469E-01
DAV:   2    -0.191362007282E+03   -0.12201E-01   -0.12990E-01 12360   0.114E+00    0.745E-01
DAV:   3    -0.191359891750E+03    0.21155E-02   -0.35992E-02 12520   0.124E+00    0.718E-01
DAV:   4    -0.191355063019E+03    0.48287E-02   -0.10277E-02 12040   0.661E-01    0.260E-01
DAV:   5    -0.191354778908E+03    0.28411E-03   -0.32132E-03 11360   0.403E-01    0.283E-01
DAV:   6    -0.191354483740E+03    0.29517E-03   -0.33383E-03 11160   0.414E-01    0.225E-01
DAV:   7    -0.191354308725E+03    0.17501E-03   -0.19785E-03 11160   0.293E-01    0.198E-01
DAV:   8    -0.191353945872E+03    0.36285E-03   -0.88240E-04  8400   0.221E-01    0.631E-02
DAV:   9    -0.191353912707E+03    0.33165E-04   -0.10575E-04  5840   0.621E-02
  19 F= -.19135391E+03 E0= -.19125693E+03  d E =-.475815E-01
       N       E                     dE             d eps       ncg     rms          rms(c)
DAV:   1    -0.191372128139E+03   -0.18182E-01   -0.42572E-01  8160   0.142E+00    0.227E-01
DAV:   2    -0.191375173256E+03   -0.30451E-02   -0.18886E-02 12720   0.742E-01    0.554E-01
DAV:   3    -0.191371909496E+03    0.32638E-02   -0.74103E-03 11560   0.626E-01    0.153E-01
DAV:   4    -0.191372000779E+03   -0.91283E-04   -0.17345E-03 10920   0.261E-01    0.213E-01
DAV:   5    -0.191371638962E+03    0.36182E-03   -0.13909E-03 10120   0.279E-01    0.134E-01
DAV:   6    -0.191371462751E+03    0.17621E-03   -0.54537E-04  9000   0.142E-01    0.512E-02
DAV:   7    -0.191371441105E+03    0.21646E-04   -0.16826E-04  6000   0.735E-02
  20 F= -.19137144E+03 E0= -.19127386E+03  d E =-.175284E-01
       N       E                     dE             d eps       ncg     rms          rms(c)
DAV:   1    -0.191437519029E+03   -0.66056E-01   -0.57928E+00  8160   0.511E+00    0.581E-01
DAV:   2    -0.191466444474E+03   -0.28925E-01   -0.17487E-01 13600   0.203E+00    0.151E+00
DAV:   3    -0.191443705931E+03    0.22739E-01   -0.56190E-02 12200   0.169E+00    0.452E-01
DAV:   4    -0.191444524808E+03   -0.81888E-03   -0.12517E-02 10560   0.745E-01    0.577E-01
DAV:   5    -0.191441225260E+03    0.32995E-02   -0.84858E-03 11960   0.688E-01    0.272E-01
DAV:   6    -0.191440852473E+03    0.37279E-03   -0.36822E-03 11560   0.346E-01    0.209E-01
DAV:   7    -0.191441157531E+03   -0.30506E-03   -0.30743E-03 11560   0.373E-01    0.296E-01
DAV:   8    -0.191440291808E+03    0.86572E-03   -0.15114E-03  9720   0.269E-01    0.461E-02
DAV:   9    -0.191440285429E+03    0.63787E-05   -0.95240E-05  5800   0.427E-02
  21 F= -.19144029E+03 E0= -.19134193E+03  d E =-.688443E-01
       N       E                     dE             d eps       ncg     rms          rms(c)
DAV:   1    -0.191354223328E+03    0.86068E-01   -0.81172E+00  8160   0.602E+00    0.570E-01
DAV:   2    -0.191374516050E+03   -0.20293E-01   -0.18684E-01 12360   0.148E+00    0.102E+00
DAV:   3    -0.191365790651E+03    0.87254E-02   -0.39330E-02 11920   0.140E+00    0.645E-01
DAV:   4    -0.191363371506E+03    0.24191E-02   -0.12636E-02 12080   0.741E-01    0.448E-01
DAV:   5    -0.191361672524E+03    0.16990E-02   -0.65369E-03 11240   0.597E-01    0.308E-01
DAV:   6    -0.191361185298E+03    0.48723E-03   -0.40052E-03 10560   0.421E-01    0.197E-01
DAV:   7    -0.191360895746E+03    0.28955E-03   -0.19468E-03 11760   0.250E-01    0.178E-01
DAV:   8    -0.191360615107E+03    0.28064E-03   -0.76254E-04  8640   0.188E-01    0.640E-02
DAV:   9    -0.191360583625E+03    0.31482E-04   -0.11410E-04  5840   0.625E-02
  22 F= -.19136058E+03 E0= -.19126228E+03  d E =0.797018E-01
       N       E                     dE             d eps       ncg     rms          rms(c)
DAV:   1    -0.191356492589E+03    0.41225E-02   -0.70721E-01  8160   0.189E+00    0.362E-01
DAV:   2    -0.191357718454E+03   -0.12259E-02   -0.35814E-02 11480   0.849E-01    0.535E-01
DAV:   3    -0.191355733561E+03    0.19849E-02   -0.11296E-02 11360   0.811E-01    0.363E-01
DAV:   4    -0.191354305709E+03    0.14279E-02   -0.47776E-03 10880   0.463E-01    0.237E-01
DAV:   5    -0.191354772602E+03   -0.46689E-03   -0.42284E-03 11040   0.414E-01    0.351E-01
DAV:   6    -0.191353608520E+03    0.11641E-02   -0.29038E-03 10920   0.346E-01    0.941E-02
DAV:   7    -0.191353506723E+03    0.10180E-03   -0.40442E-04  7360   0.903E-02    0.327E-02
DAV:   8    -0.191353511551E+03   -0.48280E-05   -0.83713E-05  6840   0.576E-02
  23 F= -.19135351E+03 E0= -.19125539E+03  d E =0.707207E-02
       N       E                     dE             d eps       ncg     rms          rms(c)
DAV:   1    -0.191411461284E+03   -0.57955E-01   -0.47868E+00  8160   0.468E+00    0.580E-01
DAV:   2    -0.191433080019E+03   -0.21619E-01   -0.14987E-01 13600   0.186E+00    0.135E+00
DAV:   3    -0.191414840352E+03    0.18240E-01   -0.48590E-02 12240   0.158E+00    0.446E-01
DAV:   4    -0.191414992554E+03   -0.15220E-03   -0.11959E-02 12280   0.707E-01    0.552E-01
DAV:   5    -0.191412352101E+03    0.26405E-02   -0.87108E-03 11200   0.698E-01    0.316E-01
DAV:   6    -0.191411507417E+03    0.84468E-03   -0.38085E-03 11160   0.369E-01    0.157E-01
DAV:   7    -0.191411418471E+03    0.88946E-04   -0.17258E-03 10200   0.235E-01    0.183E-01
DAV:   8    -0.191411138971E+03    0.27950E-03   -0.85996E-04  8240   0.200E-01    0.738E-02
DAV:   9    -0.191411080389E+03    0.58582E-04   -0.12894E-04  5760   0.669E-02
  24 F= -.19141108E+03 E0= -.19131208E+03  d E =-.575688E-01
       N       E                     dE             d eps       ncg     rms          rms(c)
DAV:   1    -0.191443846961E+03   -0.32708E-01   -0.13014E+00  8160   0.244E+00    0.314E-01
DAV:   2    -0.191451897118E+03   -0.80502E-02   -0.46375E-02 13600   0.111E+00    0.840E-01
DAV:   3    -0.191444757525E+03    0.71396E-02   -0.16028E-02 11480   0.910E-01    0.227E-01
DAV:   4    -0.191445157126E+03   -0.39960E-03   -0.36485E-03 10800   0.410E-01    0.323E-01
DAV:   5    -0.191444125845E+03    0.10313E-02   -0.25846E-03 10640   0.382E-01    0.142E-01
DAV:   6    -0.191444025004E+03    0.10084E-03   -0.10544E-03  9640   0.173E-01    0.106E-01
DAV:   7    -0.191444031531E+03   -0.65270E-05   -0.71217E-04  8520   0.175E-01
  25 F= -.19144403E+03 E0= -.19134466E+03  d E =-.329511E-01
       N       E                     dE             d eps       ncg     rms          rms(c)
DAV:   1    -0.191433564749E+03    0.10460E-01   -0.13361E-01  8160   0.793E-01    0.114E-01
DAV:   2    -0.191435131225E+03   -0.15665E-02   -0.69818E-03 11560   0.440E-01    0.375E-01
DAV:   3    -0.191433712614E+03    0.14186E-02   -0.24781E-03 11280   0.365E-01    0.861E-02
DAV:   4    -0.191433780638E+03   -0.68023E-04   -0.55847E-04  8280   0.155E-01
  26 F= -.19143378E+03 E0= -.19133447E+03  d E =0.102509E-01
       N       E                     dE             d eps       ncg     rms          rms(c)
DAV:   1    -0.191360052666E+03    0.73660E-01   -0.87399E+00  8160   0.629E+00    0.896E-01
DAV:   2    -0.191442609479E+03   -0.82557E-01   -0.39926E-01 13600   0.358E+00    0.249E+00
DAV:   3    -0.191367359598E+03    0.75250E-01   -0.11179E-01 11960   0.263E+00    0.533E-01
DAV:   4    -0.191370403022E+03   -0.30434E-02   -0.26238E-02 11400   0.103E+00    0.887E-01
DAV:   5    -0.191364053061E+03    0.63500E-02   -0.22175E-02 11880   0.101E+00    0.421E-01
DAV:   6    -0.191362221623E+03    0.18314E-02   -0.72940E-03 10760   0.449E-01    0.242E-01
DAV:   7    -0.191363064193E+03   -0.84257E-03   -0.51454E-03 12400   0.519E-01    0.372E-01
DAV:   8    -0.191361600675E+03    0.14635E-02   -0.21586E-03  9840   0.350E-01    0.511E-02
DAV:   9    -0.191361602094E+03   -0.14183E-05   -0.15038E-04  5960   0.526E-02
  27 F= -.19136160E+03 E0= -.19126489E+03  d E =0.721785E-01
       N       E                     dE             d eps       ncg     rms          rms(c)
DAV:   1    -0.191340859207E+03    0.20741E-01   -0.68090E-01  8160   0.175E+00    0.209E-01
DAV:   2    -0.191345375719E+03   -0.45165E-02   -0.24709E-02 13360   0.747E-01    0.568E-01
DAV:   3    -0.191341920683E+03    0.34550E-02   -0.70454E-03 11400   0.629E-01    0.175E-01
DAV:   4    -0.191342018471E+03   -0.97789E-04   -0.17104E-03  9960   0.269E-01    0.206E-01
DAV:   5    -0.191341620533E+03    0.39794E-03   -0.10729E-03  9320   0.228E-01    0.870E-02
DAV:   6    -0.191341592974E+03    0.27559E-04   -0.37126E-04  7760   0.109E-01
  28 F= -.19134159E+03 E0= -.19124542E+03  d E =0.200091E-01
       N       E                     dE             d eps       ncg     rms          rms(c)
DAV:   1    -0.191342992549E+03   -0.13720E-02   -0.11752E+00  8160   0.234E+00    0.313E-01
DAV:   2    -0.191348063082E+03   -0.50705E-02   -0.47610E-02 12040   0.893E-01    0.600E-01
DAV:   3    -0.191345439649E+03    0.26234E-02   -0.13109E-02 12240   0.815E-01    0.380E-01
DAV:   4    -0.191344615944E+03    0.82370E-03   -0.41791E-03 11160   0.427E-01    0.266E-01
DAV:   5    -0.191344130847E+03    0.48510E-03   -0.29598E-03  9720   0.375E-01    0.190E-01
DAV:   6    -0.191343825211E+03    0.30564E-03   -0.11969E-03 10440   0.204E-01    0.736E-02
DAV:   7    -0.191343735269E+03    0.89942E-04   -0.30384E-04  7400   0.739E-02
  29 F= -.19134374E+03 E0= -.19124784E+03  d E =-.214229E-02
       N       E                     dE             d eps       ncg     rms          rms(c)
DAV:   1    -0.191306517449E+03    0.37308E-01   -0.32755E+00  8160   0.385E+00    0.455E-01
DAV:   2    -0.191326163852E+03   -0.19646E-01   -0.10680E-01 13120   0.151E+00    0.118E+00
DAV:   3    -0.191310800093E+03    0.15364E-01   -0.31542E-02 11120   0.134E+00    0.388E-01
DAV:   4    -0.191311040891E+03   -0.24080E-03   -0.76043E-03 11280   0.561E-01    0.427E-01
DAV:   5    -0.191309368477E+03    0.16724E-02   -0.50978E-03 10840   0.496E-01    0.206E-01
DAV:   6    -0.191309167192E+03    0.20129E-03   -0.19075E-03 10400   0.266E-01    0.172E-01
DAV:   7    -0.191309280299E+03   -0.11311E-03   -0.16699E-03 10320   0.301E-01    0.195E-01
DAV:   8    -0.191308857461E+03    0.42284E-03   -0.67236E-04  8440   0.192E-01    0.323E-02
DAV:   9    -0.191308851412E+03    0.60490E-05   -0.62977E-05  6080   0.354E-02
  30 F= -.19130885E+03 E0= -.19121374E+03  d E =0.348839E-01
       N       E                     dE             d eps       ncg     rms          rms(c)
DAV:   1    -0.191297914534E+03    0.10943E-01   -0.66823E+00  8160   0.554E+00    0.648E-01
DAV:   2    -0.191322725341E+03   -0.24811E-01   -0.19336E-01 13600   0.175E+00    0.150E+00
DAV:   3    -0.191306939298E+03    0.15786E-01   -0.78105E-02 12120   0.179E+00    0.750E-01
DAV:   4    -0.191301509823E+03    0.54295E-02   -0.13799E-02 12280   0.648E-01    0.293E-01
DAV:   5    -0.191300909129E+03    0.60069E-03   -0.63255E-03 11600   0.452E-01    0.327E-01
DAV:   6    -0.191300520302E+03    0.38883E-03   -0.49403E-03 10320   0.529E-01    0.280E-01
DAV:   7    -0.191299835718E+03    0.68458E-03   -0.21811E-03 11280   0.332E-01    0.138E-01
DAV:   8    -0.191299687194E+03    0.14852E-03   -0.67025E-04  9680   0.196E-01    0.924E-02
DAV:   9    -0.191299583403E+03    0.10379E-03   -0.16995E-04  7640   0.961E-02    0.220E-02
DAV:  10    -0.191299582598E+03    0.80480E-06   -0.45038E-05  6640   0.271E-02
  31 F= -.19129958E+03 E0= -.19120318E+03  d E =0.926881E-02
       N       E                     dE             d eps       ncg     rms          rms(c)
DAV:   1    -0.191301028755E+03   -0.14454E-02   -0.32816E+00  8160   0.385E+00    0.404E-01
DAV:   2    -0.191311806901E+03   -0.10778E-01   -0.79643E-02 13560   0.117E+00    0.891E-01
DAV:   3    -0.191305241523E+03    0.65654E-02   -0.26219E-02 12400   0.110E+00    0.455E-01
DAV:   4    -0.191304460642E+03    0.78088E-03   -0.70127E-03 11440   0.519E-01    0.343E-01
DAV:   5    -0.191303479342E+03    0.98130E-03   -0.41914E-03 12120   0.472E-01    0.225E-01
DAV:   6    -0.191303011483E+03    0.46786E-03   -0.15773E-03 11800   0.259E-01    0.854E-02
DAV:   7    -0.191302950068E+03    0.61415E-04   -0.42288E-04  9680   0.101E-01
  32 F= -.19130295E+03 E0= -.19120568E+03  d E =-.336747E-02
       N       E                     dE             d eps       ncg     rms          rms(c)
DAV:   1    -0.191347519982E+03   -0.44508E-01   -0.44790E+00  8160   0.452E+00    0.599E-01
DAV:   2    -0.191381936144E+03   -0.34416E-01   -0.17543E-01 13600   0.220E+00    0.170E+00
DAV:   3    -0.191352206574E+03    0.29730E-01   -0.68949E-02 12120   0.191E+00    0.465E-01
DAV:   4    -0.191352628238E+03   -0.42166E-03   -0.13056E-02 12240   0.776E-01    0.579E-01
DAV:   5    -0.191349689590E+03    0.29386E-02   -0.95288E-03 11720   0.697E-01    0.303E-01
DAV:   6    -0.191349102227E+03    0.58736E-03   -0.42999E-03 10440   0.379E-01    0.255E-01
DAV:   7    -0.191348977102E+03    0.12513E-03   -0.31051E-03 11440   0.393E-01    0.215E-01
DAV:   8    -0.191348470221E+03    0.50688E-03   -0.96994E-04  9760   0.210E-01    0.433E-02
DAV:   9    -0.191348443562E+03    0.26658E-04   -0.93027E-05  6280   0.412E-02
  33 F= -.19134844E+03 E0= -.19125032E+03  d E =-.454935E-01
       N       E                     dE             d eps       ncg     rms          rms(c)
DAV:   1    -0.191382625887E+03   -0.34156E-01   -0.22150E+00  8160   0.315E+00    0.361E-01
DAV:   2    -0.191392975940E+03   -0.10350E-01   -0.70004E-02 13600   0.126E+00    0.875E-01
DAV:   3    -0.191385367539E+03    0.76084E-02   -0.21372E-02 12360   0.105E+00    0.307E-01
DAV:   4    -0.191384995978E+03    0.37156E-03   -0.43048E-03 12120   0.426E-01    0.277E-01
DAV:   5    -0.191384406086E+03    0.58989E-03   -0.26026E-03 10880   0.387E-01    0.205E-01
DAV:   6    -0.191384103982E+03    0.30210E-03   -0.15486E-03  9840   0.255E-01    0.130E-01
DAV:   7    -0.191384273586E+03   -0.16960E-03   -0.13275E-03  9520   0.242E-01    0.184E-01
DAV:   8    -0.191383921966E+03    0.35162E-03   -0.60554E-04  8160   0.170E-01    0.318E-02
DAV:   9    -0.191383920620E+03    0.13468E-05   -0.50539E-05  5600   0.317E-02
  34 F= -.19138392E+03 E0= -.19128536E+03  d E =-.354771E-01
       N       E                     dE             d eps       ncg     rms          rms(c)
DAV:   1    -0.191374196991E+03    0.97250E-02   -0.15144E-01  8160   0.823E-01    0.868E-02
DAV:   2    -0.191374677712E+03   -0.48072E-03   -0.39677E-03 13600   0.280E-01    0.182E-01
DAV:   3    -0.191374338731E+03    0.33898E-03   -0.99459E-04 10040   0.229E-01    0.766E-02
DAV:   4    -0.191374318194E+03    0.20537E-04   -0.24122E-04  6320   0.106E-01
  35 F= -.19137432E+03 E0= -.19127585E+03  d E =0.960243E-02
       N       E                     dE             d eps       ncg     rms          rms(c)
DAV:   1    -0.191265987654E+03    0.10835E+00   -0.28567E+01  8160   0.113E+01    0.128E+00
DAV:   2    -0.191335196105E+03   -0.69208E-01   -0.76197E-01 13600   0.362E+00    0.206E+00
DAV:   3    -0.191295950973E+03    0.39245E-01   -0.16330E-01 12240   0.298E+00    0.125E+00
DAV:   4    -0.191285803261E+03    0.10148E-01   -0.66396E-02 13040   0.164E+00    0.962E-01
DAV:   5    -0.191280153325E+03    0.56499E-02   -0.36905E-02 11960   0.139E+00    0.827E-01
DAV:   6    -0.191274452732E+03    0.57006E-02   -0.20730E-02 12720   0.999E-01    0.401E-01
DAV:   7    -0.191274399359E+03    0.53373E-04   -0.10090E-02 11640   0.609E-01    0.442E-01
DAV:   8    -0.191272642079E+03    0.17573E-02   -0.48904E-03 11800   0.496E-01    0.166E-01
DAV:   9    -0.191272337919E+03    0.30416E-03   -0.72797E-04  9880   0.153E-01    0.489E-02
DAV:  10    -0.191272341999E+03   -0.40796E-05   -0.18321E-04  7640   0.495E-02
  36 F= -.19127234E+03 E0= -.19117610E+03  d E =0.101976E+00
       N       E                     dE             d eps       ncg     rms          rms(c)
DAV:   1    -0.191311529337E+03   -0.39191E-01   -0.38423E+00  8160   0.422E+00    0.612E-01
DAV:   2    -0.191334486216E+03   -0.22957E-01   -0.15742E-01 13600   0.198E+00    0.144E+00
DAV:   3    -0.191313866722E+03    0.20619E-01   -0.58063E-02 12240   0.175E+00    0.509E-01
DAV:   4    -0.191312768711E+03    0.10980E-02   -0.13797E-02 12280   0.758E-01    0.506E-01
DAV:   5    -0.191311030186E+03    0.17385E-02   -0.90833E-03 10560   0.717E-01    0.393E-01
DAV:   6    -0.191309394524E+03    0.16357E-02   -0.45598E-03 11840   0.435E-01    0.166E-01
DAV:   7    -0.191309829641E+03   -0.43512E-03   -0.28861E-03 10720   0.340E-01    0.272E-01
DAV:   8    -0.191309112387E+03    0.71725E-03   -0.14423E-03  9520   0.258E-01    0.572E-02
DAV:   9    -0.191309076044E+03    0.36343E-04   -0.10784E-04  5600   0.524E-02
  37 F= -.19130908E+03 E0= -.19121071E+03  d E =-.367340E-01
       N       E                     dE             d eps       ncg     rms          rms(c)
DAV:   1    -0.191338330313E+03   -0.29218E-01   -0.27980E+00  8160   0.355E+00    0.436E-01
DAV:   2    -0.191354451268E+03   -0.16121E-01   -0.10700E-01 13600   0.154E+00    0.107E+00
DAV:   3    -0.191342885682E+03    0.11566E-01   -0.31989E-02 12360   0.129E+00    0.381E-01
DAV:   4    -0.191342084642E+03    0.80104E-03   -0.63725E-03 12000   0.517E-01    0.325E-01
DAV:   5    -0.191341335092E+03    0.74955E-03   -0.37040E-03 10520   0.468E-01    0.250E-01
DAV:   6    -0.191340663610E+03    0.67148E-03   -0.18801E-03 10720   0.282E-01    0.888E-02
DAV:   7    -0.191340685142E+03   -0.21531E-04   -0.72767E-04 10000   0.131E-01
  38 F= -.19134069E+03 E0= -.19124129E+03  d E =-.316091E-01
       N       E                     dE             d eps       ncg     rms          rms(c)
DAV:   1    -0.191361689875E+03   -0.21026E-01   -0.10669E+00  8160   0.219E+00    0.246E-01
DAV:   2    -0.191367697781E+03   -0.60079E-02   -0.33351E-02 12600   0.830E-01    0.690E-01
DAV:   3    -0.191363132784E+03    0.45650E-02   -0.11687E-02 11040   0.758E-01    0.235E-01
DAV:   4    -0.191363062356E+03    0.70427E-04   -0.27057E-03 11040   0.316E-01    0.222E-01
DAV:   5    -0.191362699305E+03    0.36305E-03   -0.16775E-03 10200   0.273E-01    0.147E-01
DAV:   6    -0.191362532282E+03    0.16702E-03   -0.75354E-04  8600   0.169E-01    0.927E-02
DAV:   7    -0.191362606341E+03   -0.74059E-04   -0.53753E-04  8560   0.178E-01
  39 F= -.19136261E+03 E0= -.19126251E+03  d E =-.219212E-01
       N       E                     dE             d eps       ncg     rms          rms(c)
DAV:   1    -0.191317003735E+03    0.45529E-01   -0.47718E+00  8160   0.461E+00    0.493E-01
DAV:   2    -0.191333566667E+03   -0.16563E-01   -0.13035E-01 13360   0.158E+00    0.102E+00
DAV:   3    -0.191322717506E+03    0.10849E-01   -0.30402E-02 11640   0.128E+00    0.448E-01
DAV:   4    -0.191322093032E+03    0.62447E-03   -0.93267E-03 11840   0.620E-01    0.428E-01
DAV:   5    -0.191320782809E+03    0.13102E-02   -0.63116E-03 11480   0.561E-01    0.292E-01
DAV:   6    -0.191320126770E+03    0.65604E-03   -0.33224E-03 10200   0.337E-01    0.179E-01
DAV:   7    -0.191320439301E+03   -0.31253E-03   -0.23423E-03 10560   0.335E-01    0.246E-01
DAV:   8    -0.191319804791E+03    0.63451E-03   -0.10387E-03  9440   0.236E-01    0.381E-02
DAV:   9    -0.191319803610E+03    0.11805E-05   -0.75427E-05  5920   0.386E-02
  40 F= -.19131980E+03 E0= -.19122045E+03  d E =0.428027E-01
       N       E                     dE             d eps       ncg     rms          rms(c)
DAV:   1    -0.191318290409E+03    0.15144E-02   -0.25478E-01  8160   0.107E+00    0.137E-01
DAV:   2    -0.191319158033E+03   -0.86762E-03   -0.71782E-03 13600   0.386E-01    0.291E-01
DAV:   3    -0.191318424876E+03    0.73316E-03   -0.26784E-03 11440   0.359E-01    0.141E-01
DAV:   4    -0.191318343052E+03    0.81824E-04   -0.86130E-04  8800   0.183E-01
  41 F= -.19131834E+03 E0= -.19121829E+03  d E =0.146056E-02
       N       E                     dE             d eps       ncg     rms          rms(c)
DAV:   1    -0.191337145546E+03   -0.18721E-01   -0.32751E+00  8160   0.386E+00    0.537E-01
DAV:   2    -0.191356487399E+03   -0.19342E-01   -0.13122E-01 13520   0.170E+00    0.128E+00
DAV:   3    -0.191341720228E+03    0.14767E-01   -0.53785E-02 12280   0.160E+00    0.581E-01
DAV:   4    -0.191338948994E+03    0.27712E-02   -0.12540E-02 11440   0.665E-01    0.369E-01
DAV:   5    -0.191339079785E+03   -0.13079E-03   -0.83865E-03 11240   0.623E-01    0.453E-01
DAV:   6    -0.191337176495E+03    0.19033E-02   -0.50767E-03 11320   0.451E-01    0.180E-01
DAV:   7    -0.191337493478E+03   -0.31698E-03   -0.23424E-03 11160   0.346E-01    0.230E-01
DAV:   8    -0.191336906027E+03    0.58745E-03   -0.97402E-04  9440   0.224E-01    0.356E-02
DAV:   9    -0.191336897090E+03    0.89369E-05   -0.72604E-05  6080   0.388E-02
  42 F= -.19133690E+03 E0= -.19123491E+03  d E =-.185540E-01
       N       E                     dE             d eps       ncg     rms          rms(c)
DAV:   1    -0.191350828614E+03   -0.13923E-01   -0.31303E+00  8160   0.372E+00    0.410E-01
DAV:   2    -0.191368323679E+03   -0.17495E-01   -0.93783E-02 13480   0.146E+00    0.115E+00
DAV:   3    -0.191355431264E+03    0.12892E-01   -0.35366E-02 12400   0.134E+00    0.401E-01
DAV:   4    -0.191354354534E+03    0.10767E-02   -0.61778E-03 10360   0.408E-01    0.270E-01
DAV:   5    -0.191354442381E+03   -0.87847E-04   -0.46164E-03 12040   0.432E-01    0.328E-01
DAV:   6    -0.191353471095E+03    0.97129E-03   -0.24368E-03  9600   0.311E-01    0.909E-02
DAV:   7    -0.191353503466E+03   -0.32371E-04   -0.50463E-04 10280   0.984E-02
  43 F= -.19135350E+03 E0= -.19125070E+03  d E =-.166064E-01
       N       E                     dE             d eps       ncg     rms          rms(c)
DAV:   1    -0.191358242411E+03   -0.47713E-02   -0.83381E-01  8160   0.192E+00    0.198E-01
DAV:   2    -0.191360330217E+03   -0.20878E-02   -0.19241E-02 13440   0.606E-01    0.369E-01
DAV:   3    -0.191359084303E+03    0.12459E-02   -0.42298E-03 11480   0.492E-01    0.188E-01
DAV:   4    -0.191359028101E+03    0.56202E-04   -0.17259E-03  9600   0.264E-01    0.206E-01
DAV:   5    -0.191358739850E+03    0.28825E-03   -0.15038E-03  9600   0.240E-01    0.124E-01
DAV:   6    -0.191358637606E+03    0.10224E-03   -0.55840E-04  8400   0.132E-01    0.619E-02
DAV:   7    -0.191358639939E+03   -0.23331E-05   -0.27103E-04  7640   0.117E-01
  44 F= -.19135864E+03 E0= -.19125567E+03  d E =-.513647E-02
       N       E                     dE             d eps       ncg     rms          rms(c)
DAV:   1    -0.191372554053E+03   -0.13916E-01   -0.11781E+00  8160   0.230E+00    0.261E-01
DAV:   2    -0.191377987986E+03   -0.54339E-02   -0.36029E-02 13120   0.850E-01    0.622E-01
DAV:   3    -0.191374274616E+03    0.37134E-02   -0.12197E-02 12200   0.786E-01    0.278E-01
DAV:   4    -0.191373575893E+03    0.69872E-03   -0.24352E-03 10760   0.302E-01    0.136E-01
DAV:   5    -0.191373433061E+03    0.14283E-03   -0.89488E-04 10280   0.189E-01    0.130E-01
DAV:   6    -0.191373340069E+03    0.92992E-04   -0.75459E-04  9320   0.193E-01
  45 F= -.19137334E+03 E0= -.19127009E+03  d E =-.147001E-01
       N       E                     dE             d eps       ncg     rms          rms(c)
DAV:   1    -0.191370679692E+03    0.27534E-02   -0.62693E-02  8160   0.552E-01    0.147E-01
DAV:   2    -0.191375931633E+03   -0.52519E-02   -0.12813E-02 12200   0.715E-01    0.742E-01
DAV:   3    -0.191370496454E+03    0.54352E-02   -0.90660E-03 10600   0.634E-01    0.728E-02
DAV:   4    -0.191370553278E+03   -0.56824E-04   -0.37320E-04  8160   0.110E-01
  46 F= -.19137055E+03 E0= -.19126726E+03  d E =0.278679E-02
       N       E                     dE             d eps       ncg     rms          rms(c)
DAV:   1    -0.191376857134E+03   -0.63607E-02   -0.73823E-01  8160   0.182E+00    0.241E-01
DAV:   2    -0.191379653783E+03   -0.27966E-02   -0.23384E-02 13520   0.710E-01    0.528E-01
DAV:   3    -0.191377187236E+03    0.24665E-02   -0.83370E-03 11360   0.601E-01    0.236E-01
DAV:   4    -0.191377242604E+03   -0.55369E-04   -0.32876E-03 10800   0.357E-01    0.269E-01
DAV:   5    -0.191376699850E+03    0.54275E-03   -0.21925E-03  9680   0.329E-01    0.154E-01
DAV:   6    -0.191376536658E+03    0.16319E-03   -0.89440E-04  9840   0.185E-01    0.104E-01
DAV:   7    -0.191376482975E+03    0.53683E-04   -0.42794E-04  8360   0.158E-01
  47 F= -.19137648E+03 E0= -.19127358E+03  d E =-.592970E-02
       N       E                     dE             d eps       ncg     rms          rms(c)
DAV:   1    -0.191384427819E+03   -0.78912E-02   -0.14143E+00  8160   0.252E+00    0.316E-01
DAV:   2    -0.191390768640E+03   -0.63408E-02   -0.41404E-02 13320   0.100E+00    0.795E-01
DAV:   3    -0.191385048228E+03    0.57204E-02   -0.17699E-02 11760   0.906E-01    0.295E-01
DAV:   4    -0.191384830972E+03    0.21726E-03   -0.45622E-03 11240   0.400E-01    0.296E-01
DAV:   5    -0.191384478796E+03    0.35218E-03   -0.38766E-03 11240   0.414E-01    0.260E-01
DAV:   6    -0.191383884500E+03    0.59430E-03   -0.18583E-03  9640   0.267E-01    0.116E-01
DAV:   7    -0.191383885275E+03   -0.77586E-06   -0.71747E-04  8680   0.197E-01
  48 F= -.19138389E+03 E0= -.19128048E+03  d E =-.740230E-02
       N       E                     dE             d eps       ncg     rms          rms(c)
DAV:   1    -0.191408242884E+03   -0.24358E-01   -0.45306E+00  8160   0.454E+00    0.491E-01
DAV:   2    -0.191421206308E+03   -0.12963E-01   -0.11861E-01 13040   0.140E+00    0.958E-01
DAV:   3    -0.191413816216E+03    0.73901E-02   -0.34666E-02 12400   0.130E+00    0.529E-01
DAV:   4    -0.191411538945E+03    0.22773E-02   -0.88356E-03 12240   0.601E-01    0.300E-01
DAV:   5    -0.191410997666E+03    0.54128E-03   -0.46975E-03 11400   0.462E-01    0.319E-01
DAV:   6    -0.191410398976E+03    0.59869E-03   -0.36915E-03 11640   0.421E-01    0.212E-01
DAV:   7    -0.191410545086E+03   -0.14611E-03   -0.26723E-03  9720   0.320E-01    0.239E-01
DAV:   8    -0.191409958567E+03    0.58652E-03   -0.11739E-03  8840   0.232E-01    0.499E-02
DAV:   9    -0.191409939114E+03    0.19453E-04   -0.10184E-04  6040   0.519E-02
  49 F= -.19140994E+03 E0= -.19130661E+03  d E =-.260538E-01
       N       E                     dE             d eps       ncg     rms          rms(c)
DAV:   1    -0.191405593064E+03    0.43655E-02   -0.10344E+00  8160   0.212E+00    0.189E-01
DAV:   2    -0.191407569751E+03   -0.19767E-02   -0.20460E-02 12320   0.512E-01    0.342E-01
DAV:   3    -0.191407014729E+03    0.55502E-03   -0.55548E-03 11920   0.476E-01    0.269E-01
DAV:   4    -0.191406491327E+03    0.52340E-03   -0.17188E-03  9520   0.238E-01    0.132E-01
DAV:   5    -0.191406484606E+03    0.67212E-05   -0.90820E-04  9120   0.226E-01
  50 F= -.19140648E+03 E0= -.19130280E+03  d E =0.345451E-02
       N       E                     dE             d eps       ncg     rms          rms(c)
DAV:   1    -0.191410820619E+03   -0.43293E-02   -0.13321E-01  8160   0.790E-01    0.110E-01
DAV:   2    -0.191411923973E+03   -0.11034E-02   -0.49668E-03 13600   0.353E-01    0.298E-01
DAV:   3    -0.191410948412E+03    0.97556E-03   -0.24118E-03 10160   0.346E-01    0.114E-01
DAV:   4    -0.191410870875E+03    0.77537E-04   -0.45729E-04  8240   0.128E-01
  51 F= -.19141087E+03 E0= -.19130750E+03  d E =-.438627E-02
       N       E                     dE             d eps       ncg     rms          rms(c)
DAV:   1    -0.191415604482E+03   -0.46561E-02   -0.14219E+00  8160   0.249E+00    0.273E-01
DAV:   2    -0.191425000013E+03   -0.93955E-02   -0.39649E-02 12120   0.106E+00    0.959E-01
DAV:   3    -0.191416542447E+03    0.84576E-02   -0.18364E-02 10840   0.919E-01    0.204E-01
DAV:   4    -0.191416875152E+03   -0.33270E-03   -0.32112E-03 10440   0.334E-01    0.281E-01
DAV:   5    -0.191416247942E+03    0.62721E-03   -0.24605E-03  9720   0.316E-01    0.148E-01
DAV:   6    -0.191416104255E+03    0.14369E-03   -0.86865E-04  9480   0.179E-01    0.100E-01
DAV:   7    -0.191416112725E+03   -0.84697E-05   -0.47248E-04  9520   0.173E-01
  52 F= -.19141611E+03 E0= -.19131267E+03  d E =-.524185E-02
       N       E                     dE             d eps       ncg     rms          rms(c)
DAV:   1    -0.191421503803E+03   -0.53995E-02   -0.35835E-01  8160   0.126E+00    0.119E-01
DAV:   2    -0.191422161221E+03   -0.65742E-03   -0.73527E-03 12520   0.286E-01    0.185E-01
DAV:   3    -0.191422022711E+03    0.13851E-03   -0.17531E-03 11120   0.293E-01    0.161E-01
DAV:   4    -0.191421863802E+03    0.15891E-03   -0.67431E-04  8160   0.171E-01    0.979E-02
DAV:   5    -0.191421821150E+03    0.42652E-04   -0.38950E-04  7120   0.135E-01
  53 F= -.19142182E+03 E0= -.19131856E+03  d E =-.570842E-02
       N       E                     dE             d eps       ncg     rms          rms(c)
DAV:   1    -0.191433101329E+03   -0.11238E-01   -0.13784E+00  8160   0.248E+00    0.222E-01
DAV:   2    -0.191435082342E+03   -0.19810E-02   -0.28770E-02 12320   0.513E-01    0.218E-01
DAV:   3    -0.191435536180E+03   -0.45384E-03   -0.46137E-03 12160   0.436E-01    0.341E-01
DAV:   4    -0.191434673457E+03    0.86272E-03   -0.32525E-03 10240   0.377E-01    0.175E-01
DAV:   5    -0.191434501890E+03    0.17157E-03   -0.13530E-03  9920   0.215E-01    0.142E-01
DAV:   6    -0.191434470839E+03    0.31052E-04   -0.10008E-03  9600   0.205E-01    0.118E-01
DAV:   7    -0.191434372859E+03    0.97980E-04   -0.42457E-04  8320   0.136E-01
  54 F= -.19143437E+03 E0= -.19133186E+03  d E =-.125517E-01
       N       E                     dE             d eps       ncg     rms          rms(c)
DAV:   1    -0.191440192315E+03   -0.57215E-02   -0.21579E+00  8160   0.306E+00    0.278E-01
DAV:   2    -0.191443538449E+03   -0.33461E-02   -0.38006E-02 12360   0.736E-01    0.443E-01
DAV:   3    -0.191442398414E+03    0.11400E-02   -0.82783E-03 12360   0.647E-01    0.305E-01
DAV:   4    -0.191441617613E+03    0.78080E-03   -0.24583E-03 10560   0.346E-01    0.178E-01
DAV:   5    -0.191441570327E+03    0.47286E-04   -0.16879E-03 10080   0.321E-01    0.183E-01
DAV:   6    -0.191441416111E+03    0.15422E-03   -0.12705E-03  9960   0.234E-01    0.127E-01
DAV:   7    -0.191441322973E+03    0.93138E-04   -0.71648E-04  8200   0.168E-01
  55 F= -.19144132E+03 E0= -.19133883E+03  d E =-.695011E-02
       N       E                     dE             d eps       ncg     rms          rms(c)
DAV:   1    -0.191464485933E+03   -0.23070E-01   -0.16529E+00  8160   0.278E+00    0.321E-01
DAV:   2    -0.191467722059E+03   -0.32361E-02   -0.45778E-02 12840   0.759E-01    0.489E-01
DAV:   3    -0.191467115077E+03    0.60698E-03   -0.13261E-02 11640   0.775E-01    0.449E-01
DAV:   4    -0.191465428747E+03    0.16863E-02   -0.54974E-03 11520   0.474E-01    0.241E-01
DAV:   5    -0.191465371311E+03    0.57436E-04   -0.35466E-03  9800   0.379E-01    0.262E-01
DAV:   6    -0.191464787720E+03    0.58359E-03   -0.20523E-03 10160   0.279E-01    0.111E-01
DAV:   7    -0.191464775668E+03    0.12052E-04   -0.63644E-04  9480   0.185E-01
  56 F= -.19146478E+03 E0= -.19136338E+03  d E =-.234527E-01
       N       E                     dE             d eps       ncg     rms          rms(c)
DAV:   1    -0.191474878150E+03   -0.10090E-01   -0.54879E-01  8160   0.158E+00    0.164E-01
DAV:   2    -0.191476297365E+03   -0.14192E-02   -0.13743E-02 12840   0.417E-01    0.289E-01
DAV:   3    -0.191475745472E+03    0.55189E-03   -0.39238E-03 12000   0.405E-01    0.209E-01
DAV:   4    -0.191475597823E+03    0.14765E-03   -0.15975E-03  9680   0.246E-01    0.165E-01
DAV:   5    -0.191475366308E+03    0.23152E-03   -0.72079E-04  8400   0.202E-01    0.840E-02
DAV:   6    -0.191475327175E+03    0.39132E-04   -0.25019E-04  7440   0.969E-02
  57 F= -.19147533E+03 E0= -.19137458E+03  d E =-.105515E-01
       N       E                     dE             d eps       ncg     rms          rms(c)
DAV:   1    -0.191492161042E+03   -0.16795E-01   -0.14187E+00  8160   0.252E+00    0.245E-01
DAV:   2    -0.191496626086E+03   -0.44650E-02   -0.33271E-02 12840   0.765E-01    0.549E-01
DAV:   3    -0.191493907762E+03    0.27183E-02   -0.90731E-03 12240   0.691E-01    0.243E-01
DAV:   4    -0.191493810877E+03    0.96885E-04   -0.21171E-03 10120   0.305E-01    0.233E-01
DAV:   5    -0.191493391436E+03    0.41944E-03   -0.16258E-03  9920   0.293E-01    0.137E-01
DAV:   6    -0.191493436150E+03   -0.44714E-04   -0.10104E-03 10480   0.192E-01    0.132E-01
DAV:   7    -0.191493305270E+03    0.13088E-03   -0.61962E-04  8480   0.174E-01    0.781E-02
DAV:   8    -0.191493225156E+03    0.80114E-04   -0.13424E-04  5480   0.819E-02
  58 F= -.19149323E+03 E0= -.19139393E+03  d E =-.178980E-01
       N       E                     dE             d eps       ncg     rms          rms(c)
DAV:   1    -0.191494320647E+03   -0.10154E-02   -0.22588E+00  8160   0.315E+00    0.297E-01
DAV:   2    -0.191498166916E+03   -0.38463E-02   -0.44217E-02 12280   0.687E-01    0.452E-01
DAV:   3    -0.191497426034E+03    0.74088E-03   -0.11622E-02 12560   0.703E-01    0.418E-01
DAV:   4    -0.191496159152E+03    0.12669E-02   -0.46233E-03 11360   0.404E-01    0.211E-01
DAV:   5    -0.191496106661E+03    0.52491E-04   -0.26755E-03 10080   0.346E-01    0.233E-01
DAV:   6    -0.191495767296E+03    0.33936E-03   -0.16279E-03 10080   0.277E-01    0.119E-01
DAV:   7    -0.191495619494E+03    0.14780E-03   -0.48960E-04  8680   0.142E-01    0.622E-02
DAV:   8    -0.191495586097E+03    0.33397E-04   -0.13594E-04  7960   0.964E-02
  59 F= -.19149559E+03 E0= -.19139639E+03  d E =-.236094E-02
       N       E                     dE             d eps       ncg     rms          rms(c)
DAV:   1    -0.191531948141E+03   -0.36329E-01   -0.29745E+00  8160   0.372E+00    0.416E-01
DAV:   2    -0.191542939586E+03   -0.10991E-01   -0.87792E-02 12280   0.118E+00    0.937E-01
DAV:   3    -0.191536044129E+03    0.68955E-02   -0.29079E-02 12280   0.112E+00    0.456E-01
DAV:   4    -0.191534048121E+03    0.19960E-02   -0.51748E-03 12160   0.408E-01    0.196E-01
DAV:   5    -0.191534128738E+03   -0.80617E-04   -0.29316E-03 11840   0.385E-01    0.254E-01
DAV:   6    -0.191533640435E+03    0.48830E-03   -0.23801E-03 11080   0.341E-01    0.138E-01
DAV:   7    -0.191533519665E+03    0.12077E-03   -0.88376E-04  9480   0.201E-01    0.110E-01
DAV:   8    -0.191533391484E+03    0.12818E-03   -0.28554E-04  8240   0.137E-01    0.385E-02
DAV:   9    -0.191533375907E+03    0.15578E-04   -0.42325E-05  6680   0.387E-02
  60 F= -.19153338E+03 E0= -.19143664E+03  d E =-.377898E-01
       N       E                     dE             d eps       ncg     rms          rms(c)
DAV:   1    -0.191460085747E+03    0.73306E-01   -0.10241E+01  8160   0.686E+00    0.773E-01
DAV:   2    -0.191514751061E+03   -0.54665E-01   -0.34008E-01 12160   0.249E+00    0.230E+00
DAV:   3    -0.191474973969E+03    0.39777E-01   -0.15766E-01 12160   0.231E+00    0.752E-01
DAV:   4    -0.191472209284E+03    0.27647E-02   -0.18956E-02 11440   0.867E-01    0.609E-01
DAV:   5    -0.191468646840E+03    0.35624E-02   -0.10454E-02 11480   0.833E-01    0.346E-01
DAV:   6    -0.191468336520E+03    0.31032E-03   -0.57633E-03 12320   0.494E-01    0.300E-01
DAV:   7    -0.191467926252E+03    0.41027E-03   -0.43110E-03 11240   0.472E-01    0.254E-01
DAV:   8    -0.191467151902E+03    0.77435E-03   -0.13761E-03 10280   0.256E-01    0.449E-02
DAV:   9    -0.191467151248E+03    0.65444E-06   -0.13268E-04  6320   0.447E-02
  61 F= -.19146715E+03 E0= -.19136591E+03  d E =0.662247E-01
       N       E                     dE             d eps       ncg     rms          rms(c)
DAV:   1    -0.191411230934E+03    0.55921E-01   -0.10902E+01  8160   0.708E+00    0.776E-01
DAV:   2    -0.191468168191E+03   -0.56937E-01   -0.34804E-01 12840   0.252E+00    0.233E+00
DAV:   3    -0.191427809411E+03    0.40359E-01   -0.14907E-01 12160   0.230E+00    0.794E-01
DAV:   4    -0.191427894362E+03   -0.84951E-04   -0.24833E-02 11200   0.108E+00    0.799E-01
DAV:   5    -0.191420658767E+03    0.72356E-02   -0.12437E-02 10520   0.909E-01    0.280E-01
DAV:   6    -0.191421423202E+03   -0.76444E-03   -0.61625E-03 11760   0.488E-01    0.377E-01
DAV:   7    -0.191420474600E+03    0.94860E-03   -0.53205E-03 10640   0.534E-01    0.260E-01
DAV:   8    -0.191419642790E+03    0.83181E-03   -0.14350E-03 10400   0.248E-01    0.503E-02
DAV:   9    -0.191419635961E+03    0.68295E-05   -0.15982E-04  6480   0.488E-02
  62 F= -.19141964E+03 E0= -.19131607E+03  d E =0.475153E-01
       N       E                     dE             d eps       ncg     rms          rms(c)
DAV:   1    -0.191427003209E+03   -0.73604E-02   -0.13673E+00  8160   0.251E+00    0.273E-01
DAV:   2    -0.191429909468E+03   -0.29063E-02   -0.38638E-02 12880   0.668E-01    0.354E-01
DAV:   3    -0.191429858911E+03    0.50556E-04   -0.73353E-03 12200   0.632E-01    0.390E-01
DAV:   4    -0.191428343664E+03    0.15152E-02   -0.33931E-03 11080   0.416E-01    0.139E-01
DAV:   5    -0.191428120009E+03    0.22366E-03   -0.10051E-03  9920   0.139E-01    0.774E-02
DAV:   6    -0.191428134714E+03   -0.14705E-04   -0.60765E-04 11520   0.110E-01
  63 F= -.19142813E+03 E0= -.19132499E+03  d E =-.849875E-02
       N       E                     dE             d eps       ncg     rms          rms(c)
DAV:   1    -0.191440214646E+03   -0.12095E-01   -0.17408E+00  8160   0.283E+00    0.293E-01
DAV:   2    -0.191442898718E+03   -0.26841E-02   -0.42996E-02 12360   0.647E-01    0.321E-01
DAV:   3    -0.191443784942E+03   -0.88622E-03   -0.86692E-03 12400   0.680E-01    0.456E-01
DAV:   4    -0.191441541375E+03    0.22436E-02   -0.38655E-03 11200   0.456E-01    0.119E-01
DAV:   5    -0.191441472393E+03    0.68981E-04   -0.11177E-03  9760   0.158E-01    0.122E-01
DAV:   6    -0.191441695893E+03   -0.22350E-03   -0.14986E-03 10800   0.246E-01    0.209E-01
DAV:   7    -0.191441292761E+03    0.40313E-03   -0.81359E-04  8440   0.178E-01    0.397E-02
DAV:   8    -0.191441299530E+03   -0.67692E-05   -0.79686E-05  5680   0.592E-02
  64 F= -.19144130E+03 E0= -.19133847E+03  d E =-.131648E-01
       N       E                     dE             d eps       ncg     rms          rms(c)
DAV:   1    -0.191402316041E+03    0.38977E-01   -0.82157E+00  8160   0.615E+00    0.645E-01
DAV:   2    -0.191426982478E+03   -0.24666E-01   -0.22095E-01 13320   0.175E+00    0.136E+00
DAV:   3    -0.191415872332E+03    0.11110E-01   -0.72021E-02 12240   0.167E+00    0.822E-01
DAV:   4    -0.191411956487E+03    0.39158E-02   -0.18152E-02 11800   0.842E-01    0.549E-01
DAV:   5    -0.191409152725E+03    0.28038E-02   -0.85321E-03 10640   0.733E-01    0.315E-01
DAV:   6    -0.191408888783E+03    0.26394E-03   -0.45378E-03 12560   0.441E-01    0.266E-01
DAV:   7    -0.191408665907E+03    0.22288E-03   -0.34734E-03 11160   0.430E-01    0.248E-01
DAV:   8    -0.191407937720E+03    0.72819E-03   -0.11787E-03  9840   0.247E-01    0.375E-02
DAV:   9    -0.191407938466E+03   -0.74549E-06   -0.10295E-04  6560   0.396E-02
  65 F= -.19140794E+03 E0= -.19130478E+03  d E =0.333611E-01
       N       E                     dE             d eps       ncg     rms          rms(c)
DAV:   1    -0.191408921244E+03   -0.98352E-03   -0.37989E+00  8160   0.421E+00    0.448E-01
DAV:   2    -0.191415904389E+03   -0.69831E-02   -0.93075E-02 11880   0.102E+00    0.573E-01
DAV:   3    -0.191415706539E+03    0.19785E-03   -0.19574E-02 12240   0.105E+00    0.596E-01
DAV:   4    -0.191413043967E+03    0.26626E-02   -0.94812E-03 12200   0.669E-01    0.409E-01
DAV:   5    -0.191411843583E+03    0.12004E-02   -0.53403E-03 10760   0.514E-01    0.262E-01
DAV:   6    -0.191411942918E+03   -0.99335E-04   -0.32341E-03 10920   0.355E-01    0.254E-01
DAV:   7    -0.191411451614E+03    0.49130E-03   -0.21161E-03  9640   0.331E-01    0.162E-01
DAV:   8    -0.191411137079E+03    0.31453E-03   -0.49828E-04  8760   0.147E-01    0.210E-02
DAV:   9    -0.191411147520E+03   -0.10441E-04   -0.61669E-05  6800   0.269E-02
  66 F= -.19141115E+03 E0= -.19130888E+03  d E =-.320905E-02
       N       E                     dE             d eps       ncg     rms          rms(c)
DAV:   1    -0.191426037205E+03   -0.14900E-01   -0.26991E+00  8160   0.351E+00    0.349E-01
DAV:   2    -0.191430225535E+03   -0.41883E-02   -0.63076E-02 12520   0.754E-01    0.371E-01
DAV:   3    -0.191431650688E+03   -0.14252E-02   -0.13331E-02 11800   0.790E-01    0.562E-01
DAV:   4    -0.191428762319E+03    0.28884E-02   -0.66118E-03 11480   0.573E-01    0.226E-01
DAV:   5    -0.191428728394E+03    0.33924E-04   -0.29895E-03 10440   0.339E-01    0.274E-01
DAV:   6    -0.191428318950E+03    0.40944E-03   -0.24790E-03  9960   0.325E-01    0.155E-01
DAV:   7    -0.191428074871E+03    0.24408E-03   -0.61667E-04  9200   0.133E-01    0.425E-02
DAV:   8    -0.191428043380E+03    0.31491E-04   -0.88959E-05  6760   0.432E-02
  67 F= -.19142804E+03 E0= -.19132561E+03  d E =-.168959E-01
       N       E                     dE             d eps       ncg     rms          rms(c)
DAV:   1    -0.191403466546E+03    0.24608E-01   -0.13558E+01  8160   0.793E+00    0.817E-01
DAV:   2    -0.191421527226E+03   -0.18061E-01   -0.31897E-01 12400   0.165E+00    0.745E-01
DAV:   3    -0.191435255460E+03   -0.13728E-01   -0.69281E-02 12200   0.180E+00    0.149E+00
DAV:   4    -0.191415414549E+03    0.19841E-01   -0.44935E-02 11960   0.145E+00    0.490E-01
DAV:   5    -0.191414829502E+03    0.58505E-03   -0.12456E-02 11440   0.763E-01    0.536E-01
DAV:   6    -0.191413757532E+03    0.10720E-02   -0.10933E-02 12720   0.770E-01    0.396E-01
DAV:   7    -0.191412352396E+03    0.14051E-02   -0.45478E-03 11120   0.439E-01    0.228E-01
DAV:   8    -0.191411820221E+03    0.53217E-03   -0.13668E-03 10200   0.273E-01    0.764E-02
DAV:   9    -0.191411766868E+03    0.53354E-04   -0.21236E-04  7440   0.851E-02
  68 F= -.19141177E+03 E0= -.19131080E+03  d E =0.162765E-01
       N       E                     dE             d eps       ncg     rms          rms(c)
DAV:   1    -0.191412383105E+03   -0.56288E-03   -0.11253E-02  8200   0.233E-01    0.329E-02
DAV:   2    -0.191412429858E+03   -0.46753E-04   -0.43095E-04 11400   0.713E-02
  69 F= -.19141243E+03 E0= -.19131158E+03  d E =-.662991E-03
       N       E                     dE             d eps       ncg     rms          rms(c)
DAV:   1    -0.191434903264E+03   -0.22520E-01   -0.20209E+00  8160   0.309E+00    0.374E-01
DAV:   2    -0.191440964399E+03   -0.60611E-02   -0.69133E-02 12640   0.909E-01    0.630E-01
DAV:   3    -0.191439515898E+03    0.14485E-02   -0.20189E-02 12360   0.935E-01    0.553E-01
DAV:   4    -0.191436886056E+03    0.26298E-02   -0.67203E-03 11600   0.514E-01    0.201E-01
DAV:   5    -0.191436468638E+03    0.41742E-03   -0.20098E-03 11320   0.274E-01    0.175E-01
DAV:   6    -0.191436429729E+03    0.38909E-04   -0.17529E-03 12360   0.317E-01    0.165E-01
DAV:   7    -0.191436109088E+03    0.32064E-03   -0.68306E-04  9440   0.177E-01    0.589E-02
DAV:   8    -0.191436096996E+03    0.12092E-04   -0.17476E-04  6480   0.101E-01
  70 F= -.19143610E+03 E0= -.19133605E+03  d E =-.236671E-01
       N       E                     dE             d eps       ncg     rms          rms(c)
DAV:   1    -0.191430616321E+03    0.54928E-02   -0.90285E-02  8160   0.643E-01    0.646E-02
DAV:   2    -0.191430981857E+03   -0.36554E-03   -0.27455E-03 13320   0.198E-01    0.158E-01
DAV:   3    -0.191430766146E+03    0.21571E-03   -0.76033E-04  8400   0.182E-01    0.727E-02
DAV:   4    -0.191430732816E+03    0.33331E-04   -0.14741E-04  5520   0.782E-02
  71 F= -.19143073E+03 E0= -.19133041E+03  d E =0.536418E-02
       N       E                     dE             d eps       ncg     rms          rms(c)
DAV:   1    -0.191420569044E+03    0.10197E-01   -0.72409E-01  8160   0.183E+00    0.276E-01
DAV:   2    -0.191426264738E+03   -0.56957E-02   -0.31133E-02 13080   0.976E-01    0.731E-01
DAV:   3    -0.191420678341E+03    0.55864E-02   -0.11608E-02 11640   0.815E-01    0.199E-01
DAV:   4    -0.191420580143E+03    0.98198E-04   -0.22129E-03 10920   0.304E-01    0.212E-01
DAV:   5    -0.191420333132E+03    0.24701E-03   -0.16422E-03  9760   0.303E-01    0.180E-01
DAV:   6    -0.191420132014E+03    0.20112E-03   -0.11363E-03  9680   0.225E-01    0.124E-01
DAV:   7    -0.191420054508E+03    0.77505E-04   -0.59804E-04  8200   0.174E-01
  72 F= -.19142005E+03 E0= -.19131961E+03  d E =0.106783E-01
       N       E                     dE             d eps       ncg     rms          rms(c)
DAV:   1    -0.191448501836E+03   -0.28370E-01   -0.30292E+00  8160   0.373E+00    0.420E-01
DAV:   2    -0.191456624626E+03   -0.81228E-02   -0.92791E-02 13040   0.111E+00    0.717E-01
DAV:   3    -0.191454136751E+03    0.24879E-02   -0.25411E-02 11680   0.106E+00    0.556E-01
DAV:   4    -0.191451473339E+03    0.26634E-02   -0.83478E-03 12360   0.604E-01    0.300E-01
DAV:   5    -0.191451145502E+03    0.32784E-03   -0.43567E-03 10280   0.456E-01    0.303E-01
DAV:   6    -0.191450424655E+03    0.72085E-03   -0.28348E-03 11360   0.360E-01    0.153E-01
DAV:   7    -0.191450414126E+03    0.10529E-04   -0.12009E-03  9680   0.249E-01    0.151E-01
DAV:   8    -0.191450149587E+03    0.26454E-03   -0.50872E-04  9040   0.180E-01    0.424E-02
DAV:   9    -0.191450124496E+03    0.25092E-04   -0.64945E-05  6160   0.454E-02
  73 F= -.19145012E+03 E0= -.19135049E+03  d E =-.300700E-01
       N       E                     dE             d eps       ncg     rms          rms(c)
DAV:   1    -0.191457936819E+03   -0.77872E-02   -0.18440E-01  8160   0.935E-01    0.130E-01
DAV:   2    -0.191458708899E+03   -0.77208E-03   -0.73598E-03 12720   0.352E-01    0.266E-01
DAV:   3    -0.191458218669E+03    0.49023E-03   -0.25563E-03 11240   0.349E-01    0.164E-01
DAV:   4    -0.191458001845E+03    0.21682E-03   -0.71020E-04  8320   0.174E-01    0.866E-02
DAV:   5    -0.191457971173E+03    0.30672E-04   -0.33461E-04  8280   0.145E-01
  74 F= -.19145797E+03 E0= -.19135848E+03  d E =-.784668E-02
       N       E                     dE             d eps       ncg     rms          rms(c)
DAV:   1    -0.191429686987E+03    0.28315E-01   -0.50770E+00  8160   0.500E+00    0.851E-01
DAV:   2    -0.191444220946E+03   -0.14534E-01   -0.22931E-01 12640   0.195E+00    0.148E+00
DAV:   3    -0.191432747216E+03    0.11474E-01   -0.97309E-02 12400   0.211E+00    0.115E+00
DAV:   4    -0.191421329654E+03    0.11418E-01   -0.36942E-02 11720   0.123E+00    0.568E-01
DAV:   5    -0.191420362670E+03    0.96698E-03   -0.18636E-02 11360   0.961E-01    0.581E-01
DAV:   6    -0.191416629887E+03    0.37328E-02   -0.97228E-03 11440   0.681E-01    0.221E-01
DAV:   7    -0.191416383492E+03    0.24640E-03   -0.25041E-03 11480   0.330E-01    0.194E-01
DAV:   8    -0.191416076131E+03    0.30736E-03   -0.11663E-03 10240   0.262E-01    0.920E-02
DAV:   9    -0.191415978172E+03    0.97959E-04   -0.19011E-04  6760   0.921E-02
  75 F= -.19141598E+03 E0= -.19131629E+03  d E =0.419930E-01
       N       E                     dE             d eps       ncg     rms          rms(c)
DAV:   1    -0.191406880990E+03    0.91951E-02   -0.30236E-01  8160   0.118E+00    0.136E-01
DAV:   2    -0.191408227497E+03   -0.13465E-02   -0.10364E-02 12640   0.389E-01    0.316E-01
DAV:   3    -0.191407467293E+03    0.76020E-03   -0.33220E-03 10960   0.375E-01    0.160E-01
DAV:   4    -0.191407289451E+03    0.17784E-03   -0.68721E-04  8440   0.156E-01    0.831E-02
DAV:   5    -0.191407245657E+03    0.43794E-04   -0.29721E-04  7720   0.119E-01
  76 F= -.19140725E+03 E0= -.19130728E+03  d E =0.873251E-02
       N       E                     dE             d eps       ncg     rms          rms(c)
DAV:   1    -0.191336177639E+03    0.71112E-01   -0.19504E+01  8160   0.944E+00    0.104E+00
DAV:   2    -0.191432019569E+03   -0.95842E-01   -0.66289E-01 13160   0.316E+00    0.293E+00
DAV:   3    -0.191376511938E+03    0.55508E-01   -0.25532E-01 12080   0.310E+00    0.118E+00
DAV:   4    -0.191363677906E+03    0.12834E-01   -0.38897E-02 11240   0.106E+00    0.611E-01
DAV:   5    -0.191361719167E+03    0.19587E-02   -0.16970E-02 11720   0.964E-01    0.634E-01
DAV:   6    -0.191358938818E+03    0.27803E-02   -0.15002E-02 11120   0.874E-01    0.375E-01
DAV:   7    -0.191358068610E+03    0.87021E-03   -0.56445E-03 12440   0.451E-01    0.250E-01
DAV:   8    -0.191357332421E+03    0.73619E-03   -0.19613E-03 12400   0.340E-01    0.122E-01
DAV:   9    -0.191357164576E+03    0.16784E-03   -0.42719E-04  8800   0.130E-01    0.413E-02
DAV:  10    -0.191357148608E+03    0.15968E-04   -0.13110E-04  7440   0.432E-02
  77 F= -.19135715E+03 E0= -.19125604E+03  d E =0.500970E-01
       N       E                     dE             d eps       ncg     rms          rms(c)
DAV:   1    -0.191366717799E+03   -0.95532E-02   -0.17578E+00  8160   0.286E+00    0.415E-01
DAV:   2    -0.191380514457E+03   -0.13797E-01   -0.68264E-02 13320   0.143E+00    0.119E+00
DAV:   3    -0.191366716623E+03    0.13798E-01   -0.30775E-02 11960   0.130E+00    0.303E-01
DAV:   4    -0.191366528921E+03    0.18770E-03   -0.59266E-03 11280   0.412E-01    0.364E-01
DAV:   5    -0.191365964373E+03    0.56455E-03   -0.59173E-03 10680   0.501E-01    0.302E-01
DAV:   6    -0.191365038341E+03    0.92603E-03   -0.22079E-03 10840   0.268E-01    0.552E-02
DAV:   7    -0.191365037217E+03    0.11246E-05   -0.36354E-04  8760   0.855E-02
  78 F= -.19136504E+03 E0= -.19126376E+03  d E =-.788861E-02
       N       E                     dE             d eps       ncg     rms          rms(c)
DAV:   1    -0.191381375985E+03   -0.16338E-01   -0.20631E+00  8160   0.310E+00    0.424E-01
DAV:   2    -0.191389781920E+03   -0.84059E-02   -0.88905E-02 12840   0.109E+00    0.763E-01
DAV:   3    -0.191386499415E+03    0.32825E-02   -0.28064E-02 12320   0.109E+00    0.606E-01
DAV:   4    -0.191383962049E+03    0.25374E-02   -0.11128E-02 12120   0.653E-01    0.327E-01
DAV:   5    -0.191383192534E+03    0.76951E-03   -0.46557E-03 11560   0.447E-01    0.279E-01
DAV:   6    -0.191382494072E+03    0.69846E-03   -0.26128E-03 12080   0.350E-01    0.143E-01
DAV:   7    -0.191382571816E+03   -0.77744E-04   -0.11238E-03  9840   0.232E-01    0.156E-01
DAV:   8    -0.191382302888E+03    0.26893E-03   -0.60617E-04  9200   0.193E-01    0.550E-02
DAV:   9    -0.191382268950E+03    0.33938E-04   -0.79287E-05  6320   0.575E-02
  79 F= -.19138227E+03 E0= -.19128091E+03  d E =-.172317E-01
       N       E                     dE             d eps       ncg     rms          rms(c)
DAV:   1    -0.191390024421E+03   -0.77215E-02   -0.48473E-01  8160   0.149E+00    0.160E-01
DAV:   2    -0.191391325180E+03   -0.13008E-02   -0.13254E-02 13480   0.406E-01    0.253E-01
DAV:   3    -0.191390846546E+03    0.47863E-03   -0.30684E-03 11480   0.405E-01    0.189E-01
DAV:   4    -0.191390592984E+03    0.25356E-03   -0.97799E-04  9680   0.223E-01    0.111E-01
DAV:   5    -0.191390527947E+03    0.65037E-04   -0.55233E-04  8840   0.166E-01
  80 F= -.19139053E+03 E0= -.19128967E+03  d E =-.825900E-02
       N       E                     dE             d eps       ncg     rms          rms(c)
DAV:   1    -0.191390585223E+03    0.77610E-05   -0.16461E-01  8160   0.874E-01    0.867E-02
DAV:   2    -0.191391201248E+03   -0.61603E-03   -0.46352E-03 13600   0.234E-01    0.201E-01
DAV:   3    -0.191390873861E+03    0.32739E-03   -0.12926E-03  9840   0.238E-01    0.103E-01
DAV:   4    -0.191390823217E+03    0.50643E-04   -0.31528E-04  7600   0.106E-01
  81 F= -.19139082E+03 E0= -.19128975E+03  d E =-.295271E-03
       N       E                     dE             d eps       ncg     rms          rms(c)
DAV:   1    -0.191403457302E+03   -0.12583E-01   -0.10838E+00  8160   0.224E+00    0.251E-01
DAV:   2    -0.191405754294E+03   -0.22970E-02   -0.28094E-02 13400   0.636E-01    0.388E-01
DAV:   3    -0.191404819688E+03    0.93461E-03   -0.66897E-03 11360   0.594E-01    0.289E-01
DAV:   4    -0.191404210371E+03    0.60932E-03   -0.25658E-03 11560   0.348E-01    0.184E-01
DAV:   5    -0.191404053414E+03    0.15696E-03   -0.17645E-03  9560   0.286E-01    0.186E-01
DAV:   6    -0.191403821433E+03    0.23198E-03   -0.11907E-03  9640   0.225E-01    0.112E-01
DAV:   7    -0.191403817590E+03    0.38436E-05   -0.53520E-04  8520   0.164E-01
  82 F= -.19140382E+03 E0= -.19130335E+03  d E =-.129944E-01
       N       E                     dE             d eps       ncg     rms          rms(c)
DAV:   1    -0.191414973648E+03   -0.11152E-01   -0.66364E-01  8160   0.178E+00    0.226E-01
DAV:   2    -0.191416613017E+03   -0.16394E-02   -0.21979E-02 12280   0.448E-01    0.293E-01
DAV:   3    -0.191416491812E+03    0.12121E-03   -0.60344E-03 12200   0.489E-01    0.346E-01
DAV:   4    -0.191415713527E+03    0.77828E-03   -0.32633E-03 10800   0.377E-01    0.180E-01
DAV:   5    -0.191415361624E+03    0.35190E-03   -0.10899E-03  9800   0.211E-01    0.112E-01
DAV:   6    -0.191415323112E+03    0.38513E-04   -0.55004E-04  9120   0.181E-01
  83 F= -.19141532E+03 E0= -.19131529E+03  d E =-.115055E-01
       N       E                     dE             d eps       ncg     rms          rms(c)
DAV:   1    -0.191407344950E+03    0.80167E-02   -0.10493E+00  8160   0.227E+00    0.353E-01
DAV:   2    -0.191407508461E+03   -0.16351E-03   -0.37687E-02 11360   0.553E-01    0.307E-01
DAV:   3    -0.191408966267E+03   -0.14578E-02   -0.12437E-02 12240   0.688E-01    0.578E-01
DAV:   4    -0.191406177816E+03    0.27885E-02   -0.78960E-03 11160   0.618E-01    0.234E-01
DAV:   5    -0.191405499966E+03    0.67785E-03   -0.22943E-03 11040   0.238E-01    0.112E-01
DAV:   6    -0.191405533950E+03   -0.33984E-04   -0.11700E-03 10680   0.216E-01    0.146E-01
DAV:   7    -0.191405330504E+03    0.20345E-03   -0.53732E-04  8200   0.179E-01    0.521E-02
DAV:   8    -0.191405312766E+03    0.17738E-04   -0.71951E-05  5600   0.532E-02
  84 F= -.19140531E+03 E0= -.19130563E+03  d E =0.100103E-01
       N       E                     dE             d eps       ncg     rms          rms(c)
DAV:   1    -0.191377237634E+03    0.28093E-01   -0.51547E+00  8160   0.492E+00    0.657E-01
DAV:   2    -0.191388000072E+03   -0.10762E-01   -0.17126E-01 12440   0.132E+00    0.871E-01
DAV:   3    -0.191389810308E+03   -0.18102E-02   -0.61177E-02 12200   0.154E+00    0.109E+00
DAV:   4    -0.191380141368E+03    0.96689E-02   -0.27963E-02 12080   0.107E+00    0.440E-01
DAV:   5    -0.191377971552E+03    0.21698E-02   -0.89613E-03 10720   0.598E-01    0.345E-01
DAV:   6    -0.191377307127E+03    0.66442E-03   -0.47836E-03 12120   0.521E-01    0.238E-01
DAV:   7    -0.191376713157E+03    0.59397E-03   -0.19723E-03 11720   0.279E-01    0.101E-01
DAV:   8    -0.191376642756E+03    0.70401E-04   -0.51801E-04  8720   0.155E-01
  85 F= -.19137664E+03 E0= -.19127588E+03  d E =0.286700E-01
       N       E                     dE             d eps       ncg     rms          rms(c)
DAV:   1    -0.191453611593E+03   -0.76898E-01   -0.26710E+01  8160   0.115E+01    0.145E+00
DAV:   2    -0.191496912927E+03   -0.43301E-01   -0.87839E-01 12000   0.283E+00    0.146E+00
DAV:   3    -0.191497205461E+03   -0.29253E-03   -0.20278E-01 12440   0.288E+00    0.175E+00
DAV:   4    -0.191472234380E+03    0.24971E-01   -0.93652E-02 12280   0.238E+00    0.113E+00
DAV:   5    -0.191456397233E+03    0.15837E-01   -0.40957E-02 12240   0.122E+00    0.608E-01
DAV:   6    -0.191459402066E+03   -0.30048E-02   -0.27081E-02 12720   0.121E+00    0.838E-01
DAV:   7    -0.191452907589E+03    0.64945E-02   -0.15372E-02 11720   0.884E-01    0.305E-01
DAV:   8    -0.191452052002E+03    0.85559E-03   -0.40132E-03 11200   0.445E-01    0.207E-01
DAV:   9    -0.191451600381E+03    0.45162E-03   -0.11883E-03 10760   0.252E-01    0.748E-02
DAV:  10    -0.191451534306E+03    0.66076E-04   -0.24463E-04  6800   0.732E-02
  86 F= -.19145153E+03 E0= -.19135317E+03  d E =-.748915E-01
       N       E                     dE             d eps       ncg     rms          rms(c)
DAV:   1    -0.191453921433E+03   -0.23211E-02   -0.93196E-01  8160   0.207E+00    0.227E-01
DAV:   2    -0.191456629480E+03   -0.27080E-02   -0.25865E-02 13440   0.592E-01    0.440E-01
DAV:   3    -0.191455414726E+03    0.12148E-02   -0.76416E-03 12120   0.602E-01    0.296E-01
DAV:   4    -0.191454628085E+03    0.78664E-03   -0.20198E-03 10880   0.278E-01    0.109E-01
DAV:   5    -0.191454468765E+03    0.15932E-03   -0.76619E-04 10320   0.147E-01    0.819E-02
DAV:   6    -0.191454525606E+03   -0.56841E-04   -0.50532E-04 10480   0.173E-01
  87 F= -.19145453E+03 E0= -.19135716E+03  d E =-.299130E-02
       N       E                     dE             d eps       ncg     rms          rms(c)
DAV:   1    -0.191460514399E+03   -0.60456E-02   -0.65699E+00  8160   0.554E+00    0.619E-01
DAV:   2    -0.191479979676E+03   -0.19465E-01   -0.19518E-01 12600   0.155E+00    0.103E+00
DAV:   3    -0.191472834882E+03    0.71448E-02   -0.48442E-02 12360   0.154E+00    0.795E-01
DAV:   4    -0.191468622099E+03    0.42128E-02   -0.18694E-02 12120   0.922E-01    0.465E-01
DAV:   5    -0.191466732595E+03    0.18895E-02   -0.77635E-03 10600   0.667E-01    0.340E-01
DAV:   6    -0.191465728122E+03    0.10045E-02   -0.38617E-03 12800   0.444E-01    0.175E-01
DAV:   7    -0.191465464581E+03    0.26354E-03   -0.16932E-03 11320   0.223E-01    0.121E-01
DAV:   8    -0.191465307806E+03    0.15677E-03   -0.52347E-04  9520   0.177E-01    0.738E-02
DAV:   9    -0.191465251890E+03    0.55916E-04   -0.14458E-04  6360   0.908E-02
  88 F= -.19146525E+03 E0= -.19136670E+03  d E =-.107263E-01
       N       E                     dE             d eps       ncg     rms          rms(c)
DAV:   1    -0.191483093530E+03   -0.17786E-01   -0.14596E+00  8160   0.260E+00    0.293E-01
DAV:   2    -0.191485861090E+03   -0.27676E-02   -0.45634E-02 13600   0.713E-01    0.316E-01
DAV:   3    -0.191485708350E+03    0.15274E-03   -0.64031E-03 12600   0.597E-01    0.325E-01
DAV:   4    -0.191484750973E+03    0.95738E-03   -0.31611E-03 11320   0.429E-01    0.213E-01
DAV:   5    -0.191484451301E+03    0.29967E-03   -0.19694E-03 10880   0.288E-01    0.174E-01
DAV:   6    -0.191484387829E+03    0.63472E-04   -0.14359E-03  9920   0.281E-01    0.149E-01
DAV:   7    -0.191484150055E+03    0.23777E-03   -0.55012E-04  8360   0.158E-01    0.689E-02
DAV:   8    -0.191484117906E+03    0.32150E-04   -0.16086E-04  6440   0.981E-02
  89 F= -.19148412E+03 E0= -.19138632E+03  d E =-.188660E-01
       N       E                     dE             d eps       ncg     rms          rms(c)
DAV:   1    -0.191492726182E+03   -0.85761E-02   -0.25515E-01  8160   0.107E+00    0.107E-01
DAV:   2    -0.191493157605E+03   -0.43142E-03   -0.63216E-03 12880   0.260E-01    0.110E-01
DAV:   3    -0.191493166661E+03   -0.90558E-05   -0.82468E-04 11160   0.215E-01
  90 F= -.19149317E+03 E0= -.19139582E+03  d E =-.904876E-02
       N       E                     dE             d eps       ncg     rms          rms(c)
DAV:   1    -0.191507487216E+03   -0.14330E-01   -0.75624E-01  8160   0.185E+00    0.199E-01
DAV:   2    -0.191508557535E+03   -0.10703E-02   -0.18019E-02 12720   0.390E-01    0.172E-01
DAV:   3    -0.191508367934E+03    0.18960E-03   -0.24598E-03 12200   0.240E-01    0.172E-01
DAV:   4    -0.191508381340E+03   -0.13406E-04   -0.15462E-03 10200   0.294E-01    0.208E-01
DAV:   5    -0.191508009270E+03    0.37207E-03   -0.10536E-03  9680   0.232E-01    0.862E-02
DAV:   6    -0.191508051719E+03   -0.42449E-04   -0.41961E-04  8880   0.144E-01
  91 F= -.19150805E+03 E0= -.19141163E+03  d E =-.148851E-01
       N       E                     dE             d eps       ncg     rms          rms(c)
DAV:   1    -0.191512094522E+03   -0.40853E-02   -0.53484E-02  8160   0.519E-01    0.107E-01
DAV:   2    -0.191512091731E+03    0.27911E-05   -0.23280E-03 11640   0.231E-01    0.144E-01
DAV:   3    -0.191511898410E+03    0.19332E-03   -0.93421E-04 10320   0.237E-01    0.963E-02
DAV:   4    -0.191511809413E+03    0.88997E-04   -0.37548E-04  8960   0.140E-01
  92 F= -.19151181E+03 E0= -.19141541E+03  d E =-.375769E-02
       N       E                     dE             d eps       ncg     rms          rms(c)
DAV:   1    -0.191546698907E+03   -0.34800E-01   -0.31904E+00  8160   0.381E+00    0.409E-01
DAV:   2    -0.191550475850E+03   -0.37769E-02   -0.76550E-02 13200   0.888E-01    0.415E-01
DAV:   3    -0.191550990519E+03   -0.51467E-03   -0.12917E-02 12200   0.841E-01    0.495E-01
DAV:   4    -0.191548629325E+03    0.23612E-02   -0.68989E-03 11040   0.628E-01    0.298E-01
DAV:   5    -0.191548204676E+03    0.42465E-03   -0.39451E-03 11680   0.451E-01    0.267E-01
DAV:   6    -0.191547856578E+03    0.34810E-03   -0.23999E-03 11400   0.369E-01    0.171E-01
DAV:   7    -0.191547492729E+03    0.36385E-03   -0.86591E-04 10080   0.178E-01    0.795E-02
DAV:   8    -0.191547447617E+03    0.45112E-04   -0.23694E-04  8360   0.118E-01
  93 F= -.19154745E+03 E0= -.19145232E+03  d E =-.356382E-01
       N       E                     dE             d eps       ncg     rms          rms(c)
DAV:   1    -0.191555786323E+03   -0.82936E-02   -0.15001E-01  8160   0.827E-01    0.978E-02
DAV:   2    -0.191555986920E+03   -0.20060E-03   -0.43360E-03 12800   0.217E-01    0.955E-02
DAV:   3    -0.191556022231E+03   -0.35311E-04   -0.62982E-04  9440   0.199E-01
  94 F= -.19155602E+03 E0= -.19146120E+03  d E =-.857461E-02
       N       E                     dE             d eps       ncg     rms          rms(c)
DAV:   1    -0.191592289236E+03   -0.36302E-01   -0.28892E+00  8160   0.359E+00    0.348E-01
DAV:   2    -0.191596557638E+03   -0.42684E-02   -0.62991E-02 12080   0.833E-01    0.377E-01
DAV:   3    -0.191597072388E+03   -0.51475E-03   -0.11331E-02 12440   0.775E-01    0.479E-01
DAV:   4    -0.191594887520E+03    0.21849E-02   -0.46781E-03 12040   0.541E-01    0.200E-01
DAV:   5    -0.191594857338E+03    0.30182E-04   -0.24189E-03 11480   0.341E-01    0.224E-01
DAV:   6    -0.191594631943E+03    0.22539E-03   -0.20305E-03 11240   0.350E-01    0.160E-01
DAV:   7    -0.191594373242E+03    0.25870E-03   -0.74305E-04  9920   0.181E-01    0.721E-02
DAV:   8    -0.191594317737E+03    0.55505E-04   -0.14790E-04  6880   0.947E-02
  95 F= -.19159432E+03 E0= -.19150156E+03  d E =-.382955E-01
       N       E                     dE             d eps       ncg     rms          rms(c)
DAV:   1    -0.191594690253E+03   -0.31701E-03   -0.19993E-03  8880   0.123E-01    0.246E-02
DAV:   2    -0.191594738729E+03   -0.48476E-04   -0.17957E-04  8160   0.874E-02
  96 F= -.19159474E+03 E0= -.19150210E+03  d E =-.420992E-03
       N       E                     dE             d eps       ncg     rms          rms(c)
DAV:   1    -0.191638508514E+03   -0.43818E-01   -0.38566E+00  8160   0.415E+00    0.414E-01
DAV:   2    -0.191647468351E+03   -0.89598E-02   -0.94212E-02 12440   0.121E+00    0.704E-01
DAV:   3    -0.191643188458E+03    0.42799E-02   -0.17318E-02 12400   0.101E+00    0.372E-01
DAV:   4    -0.191642044781E+03    0.11437E-02   -0.49185E-03 11440   0.487E-01    0.266E-01
DAV:   5    -0.191641505017E+03    0.53976E-03   -0.34073E-03 12440   0.424E-01    0.236E-01
DAV:   6    -0.191641437045E+03    0.67972E-04   -0.23427E-03 11560   0.368E-01    0.198E-01
DAV:   7    -0.191641030286E+03    0.40676E-03   -0.12064E-03 10000   0.233E-01    0.113E-01
DAV:   8    -0.191640898132E+03    0.13215E-03   -0.29305E-04  8240   0.135E-01    0.297E-02
DAV:   9    -0.191640890305E+03    0.78269E-05   -0.41555E-05  6880   0.366E-02
  97 F= -.19164089E+03 E0= -.19154967E+03  d E =-.461516E-01
       N       E                     dE             d eps       ncg     rms          rms(c)
DAV:   1    -0.191664513681E+03   -0.23616E-01   -0.10024E+00  8160   0.211E+00    0.192E-01
DAV:   2    -0.191665965215E+03   -0.14515E-02   -0.22935E-02 11520   0.422E-01    0.138E-01
DAV:   3    -0.191666252461E+03   -0.28725E-03   -0.22856E-03 12160   0.315E-01    0.229E-01
DAV:   4    -0.191665751579E+03    0.50088E-03   -0.14023E-03 10400   0.302E-01    0.117E-01
DAV:   5    -0.191665674169E+03    0.77410E-04   -0.61407E-04  8880   0.150E-01
  98 F= -.19166567E+03 E0= -.19157534E+03  d E =-.247839E-01
       N       E                     dE             d eps       ncg     rms          rms(c)
DAV:   1    -0.191687048570E+03   -0.21297E-01   -0.82985E-01  8160   0.193E+00    0.201E-01
DAV:   2    -0.191689654101E+03   -0.26055E-02   -0.22146E-02 11680   0.565E-01    0.378E-01
DAV:   3    -0.191688338869E+03    0.13152E-02   -0.47188E-03 12480   0.547E-01    0.190E-01
DAV:   4    -0.191688106365E+03    0.23250E-03   -0.90245E-04 10000   0.219E-01    0.135E-01
DAV:   5    -0.191687996203E+03    0.11016E-03   -0.67590E-04  9560   0.220E-01    0.102E-01
DAV:   6    -0.191688007694E+03   -0.11491E-04   -0.45715E-04  8880   0.147E-01
  99 F= -.19168801E+03 E0= -.19159863E+03  d E =-.223335E-01
       N       E                     dE             d eps       ncg     rms          rms(c)
DAV:   1    -0.191739246557E+03   -0.51250E-01   -0.69137E+00  8160   0.554E+00    0.505E-01
DAV:   2    -0.191753146584E+03   -0.13900E-01   -0.17312E-01 10880   0.137E+00    0.605E-01
DAV:   3    -0.191753327868E+03   -0.18128E-03   -0.24381E-02 12560   0.123E+00    0.641E-01
DAV:   4    -0.191748530937E+03    0.47969E-02   -0.74186E-03 11800   0.714E-01    0.217E-01
DAV:   5    -0.191748938749E+03   -0.40781E-03   -0.35971E-03 11800   0.442E-01    0.305E-01
DAV:   6    -0.191748520730E+03    0.41802E-03   -0.35793E-03 12120   0.472E-01    0.223E-01
DAV:   7    -0.191747941954E+03    0.57878E-03   -0.13322E-03 10080   0.240E-01    0.918E-02
DAV:   8    -0.191747867361E+03    0.74593E-04   -0.26311E-04  8280   0.123E-01
 100 F= -.19174787E+03 E0= -.19166072E+03  d E =-.598597E-01
