<?xml version="1.0" encoding="ISO-8859-1"?>
<modeling>
 <generator>
  <i name="program" type="string">vasp </i>
  <i name="version" type="string">5.4.1  </i>
  <i name="subversion" type="string">05Feb16 (build Jul 05 2020 17:13:04) complex                          parallel </i>
  <i name="platform" type="string">IFC91_ompi </i>
  <i name="date" type="string">2024 04 23 </i>
  <i name="time" type="string">21:06:55 </i>
 </generator>
 <incar>
  <i type="int" name="ISTART">     0</i>
  <i type="string" name="PREC">normal</i>
  <i type="string" name="ALGO"> Normal</i>
  <i type="int" name="ISPIN">     1</i>
  <i type="int" name="ICHARG">     2</i>
  <i type="int" name="IBRION">     1</i>
  <i type="int" name="NSW">   100</i>
  <i type="int" name="ISIF">     3</i>
  <i type="int" name="ISYM">     0</i>
  <i name="SYMPREC">      0.00000001</i>
  <i name="POTIM">      0.50000000</i>
  <i type="logical" name="LREAL"> F  </i>
  <i type="logical" name="LPLANE"> F  </i>
  <i type="int" name="ISMEAR">     0</i>
  <i type="logical" name="LWAVE"> F  </i>
  <i type="logical" name="LCHARG"> F  </i>
  <v type="int" name="KPOINT_BSE">    -1     0     0     0</v>
 </incar>
 <kpoints>
  <generation param="Gamma">
   <v type="int" name="divisions">       8        8        1 </v>
   <v name="usershift">      0.00000000       0.00000000       0.00000000 </v>
   <v name="genvec1">      0.12500000       0.00000000       0.00000000 </v>
   <v name="genvec2">     -0.00000000       0.12500000       0.00000000 </v>
   <v name="genvec3">      0.00000000       0.00000000       1.00000000 </v>
   <v name="shift">      0.00000000       0.00000000       0.00000000 </v>
  </generation>
  <varray name="kpointlist" >
   <v>       0.00000000       0.00000000       0.00000000 </v>
   <v>       0.12500000       0.00000000       0.00000000 </v>
   <v>       0.25000000       0.00000000       0.00000000 </v>
   <v>       0.37500000       0.00000000       0.00000000 </v>
   <v>       0.50000000       0.00000000       0.00000000 </v>
   <v>       0.00000000       0.12500000       0.00000000 </v>
   <v>       0.12500000       0.12500000       0.00000000 </v>
   <v>       0.25000000       0.12500000       0.00000000 </v>
   <v>       0.37500000       0.12500000       0.00000000 </v>
   <v>       0.50000000       0.12500000       0.00000000 </v>
   <v>      -0.37500000       0.12500000       0.00000000 </v>
   <v>      -0.25000000       0.12500000       0.00000000 </v>
   <v>      -0.12500000       0.12500000       0.00000000 </v>
   <v>       0.00000000       0.25000000       0.00000000 </v>
   <v>       0.12500000       0.25000000       0.00000000 </v>
   <v>       0.25000000       0.25000000       0.00000000 </v>
   <v>       0.37500000       0.25000000       0.00000000 </v>
   <v>       0.50000000       0.25000000       0.00000000 </v>
   <v>      -0.37500000       0.25000000       0.00000000 </v>
   <v>      -0.25000000       0.25000000       0.00000000 </v>
   <v>      -0.12500000       0.25000000       0.00000000 </v>
   <v>      -0.00000000       0.37500000       0.00000000 </v>
   <v>       0.12500000       0.37500000       0.00000000 </v>
   <v>       0.25000000       0.37500000       0.00000000 </v>
   <v>       0.37500000       0.37500000       0.00000000 </v>
   <v>       0.50000000       0.37500000       0.00000000 </v>
   <v>      -0.37500000       0.37500000       0.00000000 </v>
   <v>      -0.25000000       0.37500000       0.00000000 </v>
   <v>      -0.12500000       0.37500000       0.00000000 </v>
   <v>       0.00000000       0.50000000       0.00000000 </v>
   <v>       0.12500000       0.50000000       0.00000000 </v>
   <v>       0.25000000       0.50000000       0.00000000 </v>
   <v>       0.37500000       0.50000000       0.00000000 </v>
   <v>       0.50000000       0.50000000       0.00000000 </v>
  </varray>
  <varray name="weights" >
   <v>       0.01562500 </v>
   <v>       0.03125000 </v>
   <v>       0.03125000 </v>
   <v>       0.03125000 </v>
   <v>       0.01562500 </v>
   <v>       0.03125000 </v>
   <v>       0.03125000 </v>
   <v>       0.03125000 </v>
   <v>       0.03125000 </v>
   <v>       0.03125000 </v>
   <v>       0.03125000 </v>
   <v>       0.03125000 </v>
   <v>       0.03125000 </v>
   <v>       0.03125000 </v>
   <v>       0.03125000 </v>
   <v>       0.03125000 </v>
   <v>       0.03125000 </v>
   <v>       0.03125000 </v>
   <v>       0.03125000 </v>
   <v>       0.03125000 </v>
   <v>       0.03125000 </v>
   <v>       0.03125000 </v>
   <v>       0.03125000 </v>
   <v>       0.03125000 </v>
   <v>       0.03125000 </v>
   <v>       0.03125000 </v>
   <v>       0.03125000 </v>
   <v>       0.03125000 </v>
   <v>       0.03125000 </v>
   <v>       0.01562500 </v>
   <v>       0.03125000 </v>
   <v>       0.03125000 </v>
   <v>       0.03125000 </v>
   <v>       0.01562500 </v>
  </varray>
 </kpoints>
 <parameters>
  <separator name="general" >
   <i type="string" name="SYSTEM">unknown system</i>
   <i type="logical" name="LCOMPAT"> F  </i>
  </separator>
  <separator name="electronic" >
   <i type="string" name="PREC">normal</i>
   <i name="ENMAX">    280.00000000</i>
   <i name="ENAUG">    373.43800000</i>
   <i name="EDIFF">      0.00010000</i>
   <i type="int" name="IALGO">    38</i>
   <i type="int" name="IWAVPR">    11</i>
   <i type="int" name="NBANDS">   120</i>
   <i name="NELECT">    159.00000000</i>
   <i type="int" name="TURBO">     0</i>
   <i type="int" name="IRESTART">     0</i>
   <i type="int" name="NREBOOT">     0</i>
   <i type="int" name="NMIN">     0</i>
   <i name="EREF">      0.00000000</i>
   <separator name="electronic smearing" >
    <i type="int" name="ISMEAR">     0</i>
    <i name="SIGMA">      0.20000000</i>
    <i name="KSPACING">      0.50000000</i>
    <i type="logical" name="KGAMMA"> T  </i>
   </separator>
   <separator name="electronic projectors" >
    <i type="logical" name="LREAL"> F  </i>
    <v name="ROPT">      0.00000000      0.00000000      0.00000000      0.00000000</v>
    <i type="int" name="LMAXPAW">  -100</i>
    <i type="int" name="LMAXMIX">     2</i>
    <i type="logical" name="NLSPLINE"> F  </i>
   </separator>
   <separator name="electronic startup" >
    <i type="int" name="ISTART">     0</i>
    <i type="int" name="ICHARG">     2</i>
    <i type="int" name="INIWAV">     1</i>
   </separator>
   <separator name="electronic spin" >
    <i type="int" name="ISPIN">     1</i>
    <i type="logical" name="LNONCOLLINEAR"> F  </i>
    <v name="MAGMOM">      1.00000000      1.00000000      1.00000000      1.00000000      1.00000000      1.00000000      1.00000000      1.00000000      1.00000000      1.00000000      1.00000000      1.00000000      1.00000000      1.00000000      1.00000000      1.00000000      1.00000000      1.00000000      1.00000000      1.00000000
      1.00000000      1.00000000      1.00000000      1.00000000      1.00000000      1.00000000      1.00000000</v>
    <i name="NUPDOWN">     -1.00000000</i>
    <i type="logical" name="LSORBIT"> F  </i>
    <v name="SAXIS">      0.00000000      0.00000000      1.00000000</v>
    <i type="logical" name="LSPIRAL"> F  </i>
    <v name="QSPIRAL">      0.00000000      0.00000000      0.00000000</v>
    <i type="logical" name="LZEROZ"> F  </i>
   </separator>
   <separator name="electronic exchange-correlation" >
    <i type="logical" name="LASPH"> F  </i>
    <i type="logical" name="LMETAGGA"> F  </i>
   </separator>
   <separator name="electronic convergence" >
    <i type="int" name="NELM">    60</i>
    <i type="int" name="NELMDL">    -5</i>
    <i type="int" name="NELMIN">     2</i>
    <i name="ENINI">    280.00000000</i>
    <separator name="electronic convergence detail" >
     <i type="logical" name="LDIAG"> T  </i>
     <i type="logical" name="LSUBROT"> F  </i>
     <i name="WEIMIN">      0.00100000</i>
     <i name="EBREAK">      0.00000021</i>
     <i name="DEPER">      0.30000000</i>
     <i type="int" name="NRMM">     4</i>
     <i name="TIME">      0.40000000</i>
    </separator>
   </separator>
   <separator name="electronic mixer" >
    <i name="AMIX">      0.40000000</i>
    <i name="BMIX">      1.00000000</i>
    <i name="AMIN">      0.10000000</i>
    <i name="AMIX_MAG">      1.60000000</i>
    <i name="BMIX_MAG">      1.00000000</i>
    <separator name="electronic mixer details" >
     <i type="int" name="IMIX">     4</i>
     <i type="logical" name="MIXFIRST"> F  </i>
     <i type="int" name="MAXMIX">   -45</i>
     <i name="WC">    100.00000000</i>
     <i type="int" name="INIMIX">     1</i>
     <i type="int" name="MIXPRE">     1</i>
     <i type="int" name="MREMOVE">     5</i>
    </separator>
   </separator>
   <separator name="electronic dipolcorrection" >
    <i type="logical" name="LDIPOL"> F  </i>
    <i type="logical" name="LMONO"> F  </i>
    <i type="int" name="IDIPOL">     0</i>
    <i name="EPSILON">      1.00000000</i>
    <v name="DIPOL">   -100.00000000   -100.00000000   -100.00000000</v>
    <i name="EFIELD">      0.00000000</i>
   </separator>
  </separator>
  <separator name="grids" >
   <i type="int" name="NGX">    42</i>
   <i type="int" name="NGY">    42</i>
   <i type="int" name="NGZ">   126</i>
   <i type="int" name="NGXF">    84</i>
   <i type="int" name="NGYF">    84</i>
   <i type="int" name="NGZF">   252</i>
   <i type="logical" name="ADDGRID"> F  </i>
  </separator>
  <separator name="ionic" >
   <i type="int" name="NSW">   100</i>
   <i type="int" name="IBRION">     1</i>
   <i type="int" name="ISIF">     3</i>
   <i name="PSTRESS">      0.00000000</i>
   <i name="EDIFFG">      0.00100000</i>
   <i type="int" name="NFREE">     0</i>
   <i name="POTIM">      0.50000000</i>
   <i name="SMASS">     -3.00000000</i>
   <i name="SCALEE">      1.00000000</i>
  </separator>
  <separator name="ionic md" >
   <i name="TEBEG">      0.00010000</i>
   <i name="TEEND">      0.00010000</i>
   <i type="int" name="NBLOCK">     1</i>
   <i type="int" name="KBLOCK">   100</i>
   <i type="int" name="NPACO">   256</i>
   <i name="APACO">     16.00000000</i>
  </separator>
  <separator name="symmetry" >
   <i type="int" name="ISYM">     0</i>
   <i name="SYMPREC">      0.00000001</i>
  </separator>
  <separator name="dos" >
   <i type="logical" name="LORBIT"> F  </i>
   <v name="RWIGS">     -1.00000000     -1.00000000     -1.00000000     -1.00000000</v>
   <i type="int" name="NEDOS">   301</i>
   <i name="EMIN">     10.00000000</i>
   <i name="EMAX">    -10.00000000</i>
   <i name="EFERMI">      0.00000000</i>
  </separator>
  <separator name="writing" >
   <i type="int" name="NWRITE">     2</i>
   <i type="logical" name="LWAVE"> F  </i>
   <i type="logical" name="LCHARG"> F  </i>
   <i type="logical" name="LPARD"> F  </i>
   <i type="logical" name="LVTOT"> F  </i>
   <i type="logical" name="LVHAR"> F  </i>
   <i type="logical" name="LELF"> F  </i>
   <i type="logical" name="LOPTICS"> F  </i>
   <v name="STM">      0.00000000      0.00000000      0.00000000      0.00000000      0.00000000      0.00000000      0.00000000</v>
  </separator>
  <separator name="performance" >
   <i type="int" name="NPAR">    40</i>
   <i type="int" name="NSIM">     4</i>
   <i type="int" name="NBLK">    -1</i>
   <i type="logical" name="LPLANE"> F  </i>
   <i type="logical" name="LSCALAPACK"> T  </i>
   <i type="logical" name="LSCAAWARE"> F  </i>
   <i type="logical" name="LSCALU"> F  </i>
   <i type="logical" name="LASYNC"> F  </i>
   <i type="logical" name="LORBITALREAL"> F  </i>
  </separator>
  <separator name="miscellaneous" >
   <i type="int" name="IDIOT">     3</i>
   <i type="logical" name="LMUSIC"> F  </i>
   <v name="POMASS">     50.94100000     95.94000000    183.85000000     32.06600000</v>
   <v name="DARWINR">      0.00000000      0.00000000      0.00000000      0.00000000</v>
   <v name="DARWINV">      1.00000000      1.00000000      1.00000000      1.00000000</v>
   <i type="logical" name="LCORR"> T  </i>
  </separator>
  <i type="logical" name="GGA_COMPAT"> T  </i>
  <i type="logical" name="LBERRY"> F  </i>
  <i type="int" name="ICORELEVEL">     0</i>
  <i type="logical" name="LDAU"> F  </i>
  <i type="int" name="I_CONSTRAINED_M">     0</i>
  <separator name="electronic exchange-correlation" >
   <i type="string" name="GGA">--</i>
   <i type="int" name="VOSKOWN">     0</i>
   <i type="logical" name="LHFCALC"> F  </i>
   <i type="string" name="PRECFOCK"></i>
   <i type="logical" name="LSYMGRAD"> F  </i>
   <i type="logical" name="LHFONE"> F  </i>
   <i type="logical" name="LRHFCALC"> F  </i>
   <i type="logical" name="LTHOMAS"> F  </i>
   <i type="logical" name="LMODELHF"> F  </i>
   <i name="ENCUT4O">     -1.00000000</i>
   <i type="int" name="EXXOEP">     0</i>
   <i type="int" name="FOURORBIT">     0</i>
   <i name="AEXX">      0.00000000</i>
   <i name="HFALPHA">      0.00000000</i>
   <i name="MCALPHA">      0.00000000</i>
   <i name="ALDAX">      1.00000000</i>
   <i name="AGGAX">      1.00000000</i>
   <i name="ALDAC">      1.00000000</i>
   <i name="AGGAC">      1.00000000</i>
   <i type="int" name="NKREDX">     1</i>
   <i type="int" name="NKREDY">     1</i>
   <i type="int" name="NKREDZ">     1</i>
   <i type="logical" name="SHIFTRED"> F  </i>
   <i type="logical" name="ODDONLY"> F  </i>
   <i type="logical" name="EVENONLY"> F  </i>
   <i type="int" name="LMAXFOCK">     0</i>
   <i type="int" name="NMAXFOCKAE">     0</i>
   <i type="logical" name="LFOCKAEDFT"> F  </i>
   <i name="HFSCREEN">      0.00000000</i>
   <i name="HFSCREENC">      0.00000000</i>
   <i type="int" name="NBANDSGWLOW">     0</i>
  </separator>
  <separator name="vdW DFT" >
   <i type="logical" name="LUSE_VDW"> F  </i>
   <i name="Zab_VDW">     -0.84910000</i>
   <i name="PARAM1">      0.12340000</i>
   <i name="PARAM2">      1.00000000</i>
   <i name="PARAM3">      0.00000000</i>
  </separator>
  <separator name="model GW" >
   <i type="int" name="MODEL_GW">     0</i>
   <i name="MODEL_EPS0">     58.26239943</i>
   <i name="MODEL_ALPHA">      1.00000000</i>
  </separator>
  <separator name="linear response parameters" >
   <i type="logical" name="LEPSILON"> F  </i>
   <i type="logical" name="LRPA"> F  </i>
   <i type="logical" name="LNABLA"> F  </i>
   <i type="logical" name="LVEL"> F  </i>
   <i type="int" name="KINTER">     0</i>
   <i name="CSHIFT">      0.10000000</i>
   <i name="OMEGAMAX">     -1.00000000</i>
   <i name="DEG_THRESHOLD">      0.00200000</i>
  </separator>
  <separator name="orbital magnetization" >
   <i type="logical" name="NUCIND"> F  </i>
   <v name="MAGPOS">      0.00000000      0.00000000      0.00000000</v>
   <i type="logical" name="LNICSALL"> T  </i>
   <i type="logical" name="ORBITALMAG"> F  </i>
   <i type="logical" name="LMAGBLOCH"> F  </i>
   <i type="logical" name="LCHIMAG"> F  </i>
   <i type="logical" name="LGAUGE"> T  </i>
   <i type="int" name="MAGATOM">     0</i>
   <v name="MAGDIPOL">      0.00000000      0.00000000      0.00000000</v>
   <v name="AVECCONST">      0.00000000      0.00000000      0.00000000</v>
  </separator>
  <separator name="response functions" >
   <i type="logical" name="LADDER"> F  </i>
   <i type="logical" name="LFXC"> F  </i>
   <i type="logical" name="LHARTREE"> T  </i>
   <i type="int" name="IBSE">     0</i>
   <v type="int" name="KPOINT">    -1     0     0     0</v>
   <i type="logical" name="LTCTE"> F  </i>
   <i type="logical" name="LTETE"> F  </i>
   <i type="logical" name="LTRIPLET"> F  </i>
   <i type="logical" name="LFXCEPS"> F  </i>
   <i type="logical" name="LFXHEG"> F  </i>
   <i type="int" name="NATURALO">     0</i>
   <i type="logical" name="L2ORDER"> F  </i>
   <i type="logical" name="LUSEW"> F  </i>
   <i name="ENCUTGW">     -2.00000000</i>
   <i name="ENCUTGWSOFT">     -2.00000000</i>
   <i name="ENCUTLF">     -1.00000000</i>
   <i type="int" name="LMAXMP2">    -1</i>
   <i name="SCISSOR">      0.00000000</i>
   <i type="int" name="NOMEGA">     0</i>
   <i type="int" name="NOMEGAR">     0</i>
   <i type="int" name="NBANDSGW">    -1</i>
   <i type="int" name="NBANDSO">    -1</i>
   <i type="int" name="NBANDSV">    -1</i>
   <i type="int" name="NELM">     1</i>
   <i type="int" name="NELMHF">     1</i>
   <i type="int" name="DIM">     3</i>
   <i type="int" name="ANTIRES">     0</i>
   <i name="OMEGAMAX">    -30.00000000</i>
   <i name="OMEGAMIN">    -30.00000000</i>
   <i name="OMEGATL">   -200.00000000</i>
   <i type="int" name="OMEGAGRID">     0</i>
   <i name="CSHIFT">     -0.10000000</i>
   <i type="logical" name="SELFENERGY"> F  </i>
   <i type="logical" name="LSPECTRAL"> F  </i>
   <i type="logical" name="LSPECTRALGW"> F  </i>
   <i type="logical" name="LSINGLES"> F  </i>
   <i type="logical" name="LFERMIGW"> F  </i>
   <i type="logical" name="ODDONLYGW"> F  </i>
   <i type="logical" name="EVENONLYGW"> F  </i>
   <i type="int" name="NKREDLFX">     1</i>
   <i type="int" name="NKREDLFY">     1</i>
   <i type="int" name="NKREDLFZ">     1</i>
   <i type="int" name="MAXMEM">  1800</i>
   <i type="int" name="TELESCOPE">     0</i>
   <i type="int" name="TAUPAR">     1</i>
   <i type="int" name="OMEGAPAR">    -1</i>
   <i name="LAMBDA">      1.00000000</i>
  </separator>
  <separator name="External order field" >
   <i name="OFIELD_KAPPA">      0.00000000</i>
   <v name="OFIELD_K">      0.00000000      0.00000000      0.00000000</v>
   <i name="OFIELD_Q6_NEAR">      0.00000000</i>
   <i name="OFIELD_Q6_FAR">      0.00000000</i>
   <i name="OFIELD_A">      0.00000000</i>
  </separator>
 </parameters>
 <atominfo>
  <atoms>      27 </atoms>
  <types>       4 </types>
  <array name="atoms" >
   <dimension dim="1">ion</dimension>
   <field type="string">element</field>
   <field type="int">atomtype</field>
   <set>
    <rc><c>V </c><c>   1</c></rc>
    <rc><c>V </c><c>   1</c></rc>
    <rc><c>V </c><c>   1</c></rc>
    <rc><c>Mo</c><c>   2</c></rc>
    <rc><c>Mo</c><c>   2</c></rc>
    <rc><c>Mo</c><c>   2</c></rc>
    <rc><c>W </c><c>   3</c></rc>
    <rc><c>W </c><c>   3</c></rc>
    <rc><c>W </c><c>   3</c></rc>
    <rc><c>S </c><c>   4</c></rc>
    <rc><c>S </c><c>   4</c></rc>
    <rc><c>S </c><c>   4</c></rc>
    <rc><c>S </c><c>   4</c></rc>
    <rc><c>S </c><c>   4</c></rc>
    <rc><c>S </c><c>   4</c></rc>
    <rc><c>S </c><c>   4</c></rc>
    <rc><c>S </c><c>   4</c></rc>
    <rc><c>S </c><c>   4</c></rc>
    <rc><c>S </c><c>   4</c></rc>
    <rc><c>S </c><c>   4</c></rc>
    <rc><c>S </c><c>   4</c></rc>
    <rc><c>S </c><c>   4</c></rc>
    <rc><c>S </c><c>   4</c></rc>
    <rc><c>S </c><c>   4</c></rc>
    <rc><c>S </c><c>   4</c></rc>
    <rc><c>S </c><c>   4</c></rc>
    <rc><c>S </c><c>   4</c></rc>
   </set>
  </array>
  <array name="atomtypes" >
   <dimension dim="1">type</dimension>
   <field type="int">atomspertype</field>
   <field type="string">element</field>
   <field>mass</field>
   <field>valence</field>
   <field type="string">pseudopotential</field>
   <set>
    <rc><c>   3</c><c>V </c><c>     50.94100000</c><c>      5.00000000</c><c> PAW_PBE V 08Apr2002                    </c></rc>
    <rc><c>   3</c><c>Mo</c><c>     95.94000000</c><c>      6.00000000</c><c> PAW_PBE Mo 08Apr2002                   </c></rc>
    <rc><c>   3</c><c>W </c><c>    183.85000000</c><c>      6.00000000</c><c> PAW_PBE W 08Apr2002                    </c></rc>
    <rc><c>  18</c><c>S </c><c>     32.06600000</c><c>      6.00000000</c><c>  PAW_PBE S 17Jan2003                   </c></rc>
   </set>
  </array>
 </atominfo>
 <structure name="initialpos" >
  <crystal>
   <varray name="basis" >
    <v>       8.66999996       5.03999989       0.00000000 </v>
    <v>      -8.66999982       5.04000013       0.00000000 </v>
    <v>       0.00000000       0.00000000      30.00000000 </v>
   </varray>
   <i name="volume">   2621.80797419 </i>
   <varray name="rec_basis" >
    <v>       0.05767013       0.09920635       0.00000000 </v>
    <v>      -0.05767013       0.09920635       0.00000000 </v>
    <v>       0.00000000       0.00000000       0.03333333 </v>
   </varray>
  </crystal>
  <varray name="positions" >
   <v>       0.66666669       0.33333334       0.00000000 </v>
   <v>       0.00000000       0.00000000       0.00000000 </v>
   <v>       0.00000000       0.66666669       0.00000000 </v>
   <v>       0.33333334       0.33333334       0.00000000 </v>
   <v>       0.66666669       0.66666669       0.00000000 </v>
   <v>       0.33333334       0.00000000       0.00000000 </v>
   <v>       1.00000000       0.33333334       0.00000000 </v>
   <v>       0.33333334       0.66666669       0.00000000 </v>
   <v>       0.66666669       0.00000000       0.00000000 </v>
   <v>       0.11068511       0.22244981       0.95539999 </v>
   <v>       0.22244981       0.11068511       0.04460000 </v>
   <v>       0.11068511       0.55578315       0.95539999 </v>
   <v>       0.22244981       0.44401845       0.04460000 </v>
   <v>       0.11068511       0.88911647       0.95539999 </v>
   <v>       0.22244981       0.77735180       0.04460000 </v>
   <v>       0.44401845       0.22244981       0.95539999 </v>
   <v>       0.55578315       0.11068511       0.04460000 </v>
   <v>       0.44401845       0.55578315       0.95539999 </v>
   <v>       0.55578315       0.44401845       0.04460000 </v>
   <v>       0.44401845       0.88911647       0.95539999 </v>
   <v>       0.55578315       0.77735180       0.04460000 </v>
   <v>       0.77735180       0.22244981       0.95539999 </v>
   <v>       0.88911647       0.11068511       0.04460000 </v>
   <v>       0.77735180       0.55578315       0.95539999 </v>
   <v>       0.88911647       0.44401845       0.04460000 </v>
   <v>       0.77735180       0.88911647       0.95539999 </v>
   <v>       0.88911647       0.77735180       0.04460000 </v>
  </varray>
 </structure>
 <calculation>
  <scstep>
   <time name="dav">   21.62   21.68</time>
   <time name="total">   21.67   21.73</time>
   <energy>
    <i name="alphaZ">     81.65567618 </i>
    <i name="ewald">  41890.23009672 </i>
    <i name="hartreedc"> -47722.87397965 </i>
    <i name="XCdc">   -242.92731908 </i>
    <i name="pawpsdc">   3467.42045192 </i>
    <i name="pawaedc">  -2871.19716117 </i>
    <i name="eentropy">     -0.53799058 </i>
    <i name="bandstr">   -237.41770749 </i>
    <i name="atom">   6761.44252427 </i>
    <i name="e_fr_energy">   1125.79459111 </i>
    <i name="e_wo_entrp">   1126.33258169 </i>
    <i name="e_0_energy">   1126.06358640 </i>
   </energy>
  </scstep>
  <scstep>
   <time name="dav">   27.79   27.86</time>
   <time name="total">   27.79   27.86</time>
   <energy>
    <i name="e_fr_energy">     -1.93292908 </i>
    <i name="e_wo_entrp">     -1.74472353 </i>
    <i name="e_0_energy">     -1.83882631 </i>
   </energy>
  </scstep>
  <scstep>
   <time name="dav">   27.37   27.44</time>
   <time name="total">   27.38   27.45</time>
   <energy>
    <i name="e_fr_energy">   -199.56139185 </i>
    <i name="e_wo_entrp">   -199.29149875 </i>
    <i name="e_0_energy">   -199.42644530 </i>
   </energy>
  </scstep>
  <scstep>
   <time name="dav">   30.00   30.08</time>
   <time name="total">   30.00   30.08</time>
   <energy>
    <i name="e_fr_energy">   -208.99796434 </i>
    <i name="e_wo_entrp">   -208.69360932 </i>
    <i name="e_0_energy">   -208.84578683 </i>
   </energy>
  </scstep>
  <scstep>
   <time name="dav">   28.70   28.77</time>
   <time name="total">   29.16   29.24</time>
   <energy>
    <i name="e_fr_energy">   -209.32720562 </i>
    <i name="e_wo_entrp">   -209.02544912 </i>
    <i name="e_0_energy">   -209.17632737 </i>
   </energy>
  </scstep>
  <scstep>
   <time name="dav">   30.35   30.42</time>
   <time name="total">   30.85   30.93</time>
   <energy>
    <i name="e_fr_energy">   -237.15776340 </i>
    <i name="e_wo_entrp">   -236.87842128 </i>
    <i name="e_0_energy">   -237.01809234 </i>
   </energy>
  </scstep>
  <scstep>
   <time name="dav">   32.29   32.37</time>
   <time name="total">   32.80   32.88</time>
   <energy>
    <i name="e_fr_energy">   -196.42442859 </i>
    <i name="e_wo_entrp">   -196.11067569 </i>
    <i name="e_0_energy">   -196.26755214 </i>
   </energy>
  </scstep>
  <scstep>
   <time name="dav">   29.79   29.86</time>
   <time name="total">   30.30   30.38</time>
   <energy>
    <i name="e_fr_energy">   -189.41488477 </i>
    <i name="e_wo_entrp">   -189.12208849 </i>
    <i name="e_0_energy">   -189.26848663 </i>
   </energy>
  </scstep>
  <scstep>
   <time name="dav">   31.62   31.70</time>
   <time name="total">   32.14   32.22</time>
   <energy>
    <i name="e_fr_energy">   -188.16677973 </i>
    <i name="e_wo_entrp">   -187.83088989 </i>
    <i name="e_0_energy">   -187.99883481 </i>
   </energy>
  </scstep>
  <scstep>
   <time name="dav">   32.86   32.94</time>
   <time name="total">   33.39   33.48</time>
   <energy>
    <i name="e_fr_energy">   -187.00583836 </i>
    <i name="e_wo_entrp">   -186.65859848 </i>
    <i name="e_0_energy">   -186.83221842 </i>
   </energy>
  </scstep>
  <scstep>
   <time name="dav">   32.23   32.31</time>
   <time name="total">   32.77   32.86</time>
   <energy>
    <i name="e_fr_energy">   -186.96884549 </i>
    <i name="e_wo_entrp">   -186.61852080 </i>
    <i name="e_0_energy">   -186.79368315 </i>
   </energy>
  </scstep>
  <scstep>
   <time name="dav">   30.05   30.13</time>
   <time name="total">   30.59   30.67</time>
   <energy>
    <i name="e_fr_energy">   -187.09814316 </i>
    <i name="e_wo_entrp">   -186.75879063 </i>
    <i name="e_0_energy">   -186.92846689 </i>
   </energy>
  </scstep>
  <scstep>
   <time name="dav">   31.04   31.11</time>
   <time name="total">   31.57   31.66</time>
   <energy>
    <i name="e_fr_energy">   -186.88312666 </i>
    <i name="e_wo_entrp">   -186.54640389 </i>
    <i name="e_0_energy">   -186.71476527 </i>
   </energy>
  </scstep>
  <scstep>
   <time name="dav">   32.00   32.08</time>
   <time name="total">   32.53   32.62</time>
   <energy>
    <i name="e_fr_energy">   -186.85826331 </i>
    <i name="e_wo_entrp">   -186.51330219 </i>
    <i name="e_0_energy">   -186.68578275 </i>
   </energy>
  </scstep>
  <scstep>
   <time name="dav">   30.02   30.10</time>
   <time name="total">   30.56   30.64</time>
   <energy>
    <i name="e_fr_energy">   -186.83989748 </i>
    <i name="e_wo_entrp">   -186.49293527 </i>
    <i name="e_0_energy">   -186.66641637 </i>
   </energy>
  </scstep>
  <scstep>
   <time name="dav">   30.23   30.31</time>
   <time name="total">   30.77   30.85</time>
   <energy>
    <i name="e_fr_energy">   -186.83236369 </i>
    <i name="e_wo_entrp">   -186.48561993 </i>
    <i name="e_0_energy">   -186.65899181 </i>
   </energy>
  </scstep>
  <scstep>
   <time name="dav">   30.85   30.93</time>
   <time name="total">   31.39   31.48</time>
   <energy>
    <i name="e_fr_energy">   -186.83027051 </i>
    <i name="e_wo_entrp">   -186.48547163 </i>
    <i name="e_0_energy">   -186.65787107 </i>
   </energy>
  </scstep>
  <scstep>
   <time name="dav">   29.37   29.44</time>
   <time name="total">   29.91   29.99</time>
   <energy>
    <i name="e_fr_energy">   -186.83001434 </i>
    <i name="e_wo_entrp">   -186.48487428 </i>
    <i name="e_0_energy">   -186.65744431 </i>
   </energy>
  </scstep>
  <scstep>
   <time name="dav">   27.38   27.45</time>
   <time name="total">   27.92   27.99</time>
   <energy>
    <i name="e_fr_energy">   -186.82966385 </i>
    <i name="e_wo_entrp">   -186.48433790 </i>
    <i name="e_0_energy">   -186.65700088 </i>
   </energy>
  </scstep>
  <scstep>
   <time name="dav">   24.03   24.09</time>
   <time name="total">   24.57   24.64</time>
   <energy>
    <i name="e_fr_energy">   -186.83039223 </i>
    <i name="e_wo_entrp">   -186.48522565 </i>
    <i name="e_0_energy">   -186.65780894 </i>
   </energy>
  </scstep>
  <scstep>
   <time name="dav">   21.24   21.29</time>
   <time name="total">   21.78   21.84</time>
   <energy>
    <i name="e_fr_energy">   -186.83098614 </i>
    <i name="e_wo_entrp">   -186.48599624 </i>
    <i name="e_0_energy">   -186.65849119 </i>
   </energy>
  </scstep>
  <scstep>
   <time name="dav">   20.25   20.30</time>
   <time name="total">   20.79   20.85</time>
   <energy>
    <i name="e_fr_energy">   -186.83214944 </i>
    <i name="e_wo_entrp">   -186.48699246 </i>
    <i name="e_0_energy">   -186.65957095 </i>
   </energy>
  </scstep>
  <scstep>
   <time name="dav">   20.50   20.55</time>
   <time name="total">   21.04   21.10</time>
   <energy>
    <i name="e_fr_energy">   -186.83338454 </i>
    <i name="e_wo_entrp">   -186.48834376 </i>
    <i name="e_0_energy">   -186.66086415 </i>
   </energy>
  </scstep>
  <scstep>
   <time name="dav">   18.36   18.41</time>
   <time name="total">   18.90   18.95</time>
   <energy>
    <i name="e_fr_energy">   -186.83396976 </i>
    <i name="e_wo_entrp">   -186.48891332 </i>
    <i name="e_0_energy">   -186.66144154 </i>
   </energy>
  </scstep>
  <scstep>
   <time name="dav">   16.72   16.76</time>
   <time name="total">   17.26   17.31</time>
   <energy>
    <i name="e_fr_energy">   -186.83433147 </i>
    <i name="e_wo_entrp">   -186.48922747 </i>
    <i name="e_0_energy">   -186.66177947 </i>
   </energy>
  </scstep>
  <scstep>
   <time name="dav">   18.85   18.90</time>
   <time name="total">   19.39   19.44</time>
   <energy>
    <i name="e_fr_energy">   -186.83455818 </i>
    <i name="e_wo_entrp">   -186.48947095 </i>
    <i name="e_0_energy">   -186.66201456 </i>
   </energy>
  </scstep>
  <scstep>
   <time name="dav">   19.74   19.79</time>
   <time name="total">   20.28   20.34</time>
   <energy>
    <i name="e_fr_energy">   -186.83466185 </i>
    <i name="e_wo_entrp">   -186.48957475 </i>
    <i name="e_0_energy">   -186.66211830 </i>
   </energy>
  </scstep>
  <scstep>
   <time name="dav">   20.27   20.32</time>
   <time name="total">   20.30   20.36</time>
   <energy>
    <i name="alphaZ">     81.65567618 </i>
    <i name="ewald">  41890.23009672 </i>
    <i name="hartreedc"> -47832.88118021 </i>
    <i name="XCdc">   -231.61041199 </i>
    <i name="pawpsdc">   4192.01992897 </i>
    <i name="pawaedc">  -3610.02401742 </i>
    <i name="eentropy">     -0.34508428 </i>
    <i name="bandstr">  -1437.32224053 </i>
    <i name="atom">   6761.44252427 </i>
    <i name="e_fr_energy">   -186.83470829 </i>
    <i name="e_wo_entrp">   -186.48962401 </i>
    <i name="e_0_energy">   -186.66216615 </i>
   </energy>
  </scstep>
  <structure>
   <crystal>
    <varray name="basis" >
     <v>       8.66999996       5.03999989       0.00000000 </v>
     <v>      -8.66999982       5.04000013       0.00000000 </v>
     <v>       0.00000000       0.00000000      30.00000000 </v>
    </varray>
    <i name="volume">   2621.80797419 </i>
    <varray name="rec_basis" >
     <v>       0.05767013       0.09920635       0.00000000 </v>
     <v>      -0.05767013       0.09920635       0.00000000 </v>
     <v>       0.00000000       0.00000000       0.03333333 </v>
    </varray>
   </crystal>
   <varray name="positions" >
    <v>       0.66666669       0.33333334       0.00000000 </v>
    <v>       0.00000000       0.00000000       0.00000000 </v>
    <v>       0.00000000       0.66666669       0.00000000 </v>
    <v>       0.33333334       0.33333334       0.00000000 </v>
    <v>       0.66666669       0.66666669       0.00000000 </v>
    <v>       0.33333334       0.00000000       0.00000000 </v>
    <v>       1.00000000       0.33333334       0.00000000 </v>
    <v>       0.33333334       0.66666669       0.00000000 </v>
    <v>       0.66666669       0.00000000       0.00000000 </v>
    <v>       0.11068511       0.22244981       0.95539999 </v>
    <v>       0.22244981       0.11068511       0.04460000 </v>
    <v>       0.11068511       0.55578315       0.95539999 </v>
    <v>       0.22244981       0.44401845       0.04460000 </v>
    <v>       0.11068511       0.88911647       0.95539999 </v>
    <v>       0.22244981       0.77735180       0.04460000 </v>
    <v>       0.44401845       0.22244981       0.95539999 </v>
    <v>       0.55578315       0.11068511       0.04460000 </v>
    <v>       0.44401845       0.55578315       0.95539999 </v>
    <v>       0.55578315       0.44401845       0.04460000 </v>
    <v>       0.44401845       0.88911647       0.95539999 </v>
    <v>       0.55578315       0.77735180       0.04460000 </v>
    <v>       0.77735180       0.22244981       0.95539999 </v>
    <v>       0.88911647       0.11068511       0.04460000 </v>
    <v>       0.77735180       0.55578315       0.95539999 </v>
    <v>       0.88911647       0.44401845       0.04460000 </v>
    <v>       0.77735180       0.88911647       0.95539999 </v>
    <v>       0.88911647       0.77735180       0.04460000 </v>
   </varray>
  </structure>
  <varray name="forces" >
   <v>      -0.44566271      -0.15846331       0.09315038 </v>
   <v>       0.29853228       0.09089926      -0.10698163 </v>
   <v>      -0.29406025       0.05941974       0.01633369 </v>
   <v>       0.27981941       0.12093018      -0.10483414 </v>
   <v>       0.06255715      -0.24525773      -0.02669983 </v>
   <v>      -0.27894765       0.13431598       0.01189669 </v>
   <v>       0.19669558       0.12927971       0.03031226 </v>
   <v>       0.24305915       0.14414749       0.02963481 </v>
   <v>       0.00728820      -0.28697667       0.09939403 </v>
   <v>       0.37066604      -0.71406707      -2.18158864 </v>
   <v>      -0.51905194      -0.69869783       2.14835941 </v>
   <v>      -0.59391909       0.01082395      -2.12081777 </v>
   <v>      -0.29726398       0.01569704       2.87693022 </v>
   <v>      -0.35388999      -0.66994356      -1.45102562 </v>
   <v>      -0.36039587      -0.69478605       2.11434753 </v>
   <v>       0.50597932       0.68719288      -2.18309289 </v>
   <v>      -0.36186075       0.72953861       2.17785693 </v>
   <v>      -0.04925277      -0.02368348      -2.91408059 </v>
   <v>       0.78067082       0.01498708       2.14938651 </v>
   <v>       0.26063793      -0.02581748      -2.90223043 </v>
   <v>      -0.29458223       0.00882287       2.94517459 </v>
   <v>      -0.59891557       0.00982039      -2.07549013 </v>
   <v>       0.58115884      -0.00701128       2.10310858 </v>
   <v>       0.89102856       0.00092407      -1.46080635 </v>
   <v>      -0.73946852      -0.01958339       1.45618783 </v>
   <v>       0.38256212       0.72407445      -2.14492348 </v>
   <v>       0.32661593       0.66341415       1.42049803 </v>
  </varray>
  <varray name="stress" >
   <v>       7.20074728       0.08296399      -1.38626723 </v>
   <v>       0.08296399       4.52972575       0.01075456 </v>
   <v>      -1.38626714       0.01075459      30.32967528 </v>
  </varray>
  <energy>
   <i name="e_fr_energy">   -186.83470829 </i>
   <i name="e_wo_entrp">   -186.66216615 </i>
   <i name="e_0_energy">     -0.34508428 </i>
  </energy>
  <time name="totalsc">  800.11  802.27</time>
 </calculation>
 <calculation>
  <scstep>
   <time name="dav">   21.59   21.64</time>
   <time name="total">   22.13   22.19</time>
   <energy>
    <i name="alphaZ">     78.92661945 </i>
    <i name="ewald">  39381.93273969 </i>
    <i name="hartreedc"> -45339.42815252 </i>
    <i name="XCdc">   -239.06651769 </i>
    <i name="pawpsdc">   4192.01869351 </i>
    <i name="pawaedc">  -3610.02276962 </i>
    <i name="eentropy">     -0.28630456 </i>
    <i name="bandstr">  -1412.97614053 </i>
    <i name="atom">   6761.44252427 </i>
    <i name="e_fr_energy">   -187.45930799 </i>
    <i name="e_wo_entrp">   -187.17300344 </i>
    <i name="e_0_energy">   -187.31615572 </i>
   </energy>
  </scstep>
  <scstep>
   <time name="dav">   30.27   30.34</time>
   <time name="total">   30.80   30.89</time>
   <energy>
    <i name="e_fr_energy">   -189.36045932 </i>
    <i name="e_wo_entrp">   -189.04011610 </i>
    <i name="e_0_energy">   -189.20028771 </i>
   </energy>
  </scstep>
  <scstep>
   <time name="dav">   30.41   30.49</time>
   <time name="total">   30.96   31.04</time>
   <energy>
    <i name="e_fr_energy">   -189.32164428 </i>
    <i name="e_wo_entrp">   -189.04228434 </i>
    <i name="e_0_energy">   -189.18196431 </i>
   </energy>
  </scstep>
  <scstep>
   <time name="dav">   30.66   30.74</time>
   <time name="total">   31.21   31.30</time>
   <energy>
    <i name="e_fr_energy">   -188.73205013 </i>
    <i name="e_wo_entrp">   -188.44564896 </i>
    <i name="e_0_energy">   -188.58884954 </i>
   </energy>
  </scstep>
  <scstep>
   <time name="dav">   26.47   26.53</time>
   <time name="total">   27.01   27.08</time>
   <energy>
    <i name="e_fr_energy">   -188.73435069 </i>
    <i name="e_wo_entrp">   -188.44802151 </i>
    <i name="e_0_energy">   -188.59118610 </i>
   </energy>
  </scstep>
  <scstep>
   <time name="dav">   29.52   29.59</time>
   <time name="total">   30.06   30.14</time>
   <energy>
    <i name="e_fr_energy">   -188.69184799 </i>
    <i name="e_wo_entrp">   -188.40269176 </i>
    <i name="e_0_energy">   -188.54726988 </i>
   </energy>
  </scstep>
  <scstep>
   <time name="dav">   30.93   31.00</time>
   <time name="total">   31.47   31.56</time>
   <energy>
    <i name="e_fr_energy">   -188.67549414 </i>
    <i name="e_wo_entrp">   -188.38949919 </i>
    <i name="e_0_energy">   -188.53249667 </i>
   </energy>
  </scstep>
  <scstep>
   <time name="dav">   30.83   30.90</time>
   <time name="total">   31.38   31.46</time>
   <energy>
    <i name="e_fr_energy">   -188.64019372 </i>
    <i name="e_wo_entrp">   -188.35465373 </i>
    <i name="e_0_energy">   -188.49742373 </i>
   </energy>
  </scstep>
  <scstep>
   <time name="dav">   26.89   26.95</time>
   <time name="total">   27.43   27.51</time>
   <energy>
    <i name="e_fr_energy">   -188.63425544 </i>
    <i name="e_wo_entrp">   -188.34936744 </i>
    <i name="e_0_energy">   -188.49181144 </i>
   </energy>
  </scstep>
  <scstep>
   <time name="dav">   31.43   31.51</time>
   <time name="total">   31.98   32.06</time>
   <energy>
    <i name="e_fr_energy">   -188.63484984 </i>
    <i name="e_wo_entrp">   -188.34970510 </i>
    <i name="e_0_energy">   -188.49227747 </i>
   </energy>
  </scstep>
  <scstep>
   <time name="dav">   31.46   31.53</time>
   <time name="total">   32.00   32.09</time>
   <energy>
    <i name="e_fr_energy">   -188.63423279 </i>
    <i name="e_wo_entrp">   -188.34977783 </i>
    <i name="e_0_energy">   -188.49200531 </i>
   </energy>
  </scstep>
  <scstep>
   <time name="dav">   29.06   29.13</time>
   <time name="total">   29.61   29.69</time>
   <energy>
    <i name="e_fr_energy">   -188.63381598 </i>
    <i name="e_wo_entrp">   -188.34961072 </i>
    <i name="e_0_energy">   -188.49171335 </i>
   </energy>
  </scstep>
  <scstep>
   <time name="dav">   19.90   19.94</time>
   <time name="total">   19.93   19.99</time>
   <energy>
    <i name="alphaZ">     78.92661945 </i>
    <i name="ewald">  39381.93273969 </i>
    <i name="hartreedc"> -45350.17217212 </i>
    <i name="XCdc">   -237.98205875 </i>
    <i name="pawpsdc">   3950.22165824 </i>
    <i name="pawaedc">  -3364.72286764 </i>
    <i name="eentropy">     -0.28437083 </i>
    <i name="bandstr">  -1407.99593418 </i>
    <i name="atom">   6761.44252427 </i>
    <i name="e_fr_energy">   -188.63386187 </i>
    <i name="e_wo_entrp">   -188.34949103 </i>
    <i name="e_0_energy">   -188.49167645 </i>
   </energy>
  </scstep>
  <structure>
   <crystal>
    <varray name="basis" >
     <v>       8.85376101       5.10885439       0.00000000 </v>
     <v>      -8.85131570       5.10464837       0.00000000 </v>
     <v>       0.00000000       0.00000000      30.00000000 </v>
    </varray>
    <i name="volume">   2712.46259412 </i>
    <varray name="rec_basis" >
     <v>       0.05645772       0.09789609       0.00000000 </v>
     <v>      -0.05650424       0.09792313       0.00000000 </v>
     <v>       0.00000000       0.00000000       0.03333333 </v>
    </varray>
   </crystal>
   <varray name="positions" >
    <v>       0.66466838       0.33381485       0.00014979 </v>
    <v>       0.00126561      -0.00039552      -0.00017204 </v>
    <v>      -0.00053374       0.66776919       0.00002627 </v>
    <v>       0.33469061       0.33313361      -0.00016858 </v>
    <v>       0.66566693       0.66531884      -0.00004294 </v>
    <v>       0.33320010       0.00141891       0.00001913 </v>
    <v>       1.00116597       0.33340483       0.00004874 </v>
    <v>       0.33469946       0.66668034       0.00004766 </v>
    <v>       0.66531350      -0.00139374       0.00015983 </v>
    <v>       0.10829885       0.21800105       0.95189180 </v>
    <v>       0.21766177       0.10878524       0.04805475 </v>
    <v>       0.10908454       0.55748733       0.95198953 </v>
    <v>       0.22169790       0.44492062       0.04922636 </v>
    <v>       0.10649420       0.88689471       0.95306661 </v>
    <v>       0.21812190       0.77502925       0.04800006 </v>
    <v>       0.44871506       0.22433098       0.95188938 </v>
    <v>       0.55826795       0.11518342       0.04810219 </v>
    <v>       0.44376808       0.55580683       0.95071389 </v>
    <v>       0.55802683       0.44191823       0.04805640 </v>
    <v>       0.44462003       0.88826777       0.95073295 </v>
    <v>       0.55500580       0.77821360       0.04933610 </v>
    <v>       0.77573252       0.22416309       0.95206242 </v>
    <v>       0.89069979       0.10903468       0.04798198 </v>
    <v>       0.77983520       0.55330859       0.95305088 </v>
    <v>       0.88696542       0.44598205       0.04694168 </v>
    <v>       0.78188155       0.89151752       0.95195076 </v>
    <v>       0.89320025       0.77961818       0.04688429 </v>
   </varray>
  </structure>
  <varray name="forces" >
   <v>      -0.35709790      -0.18307490       0.01889676 </v>
   <v>       0.20075212       0.14127786      -0.02792375 </v>
   <v>      -0.17990797       0.05502389       0.07795346 </v>
   <v>       0.08376556       0.14701745      -0.02579056 </v>
   <v>      -0.28274230      -0.36022764      -0.06871335 </v>
   <v>      -0.11978652       0.20608855       0.07232382 </v>
   <v>       0.23903771       0.19823615      -0.01413684 </v>
   <v>       0.34033261       0.23972700       0.00194023 </v>
   <v>       0.00458037      -0.43965516      -0.06757979 </v>
   <v>      -0.09596024      -0.05565077      -0.01513257 </v>
   <v>      -0.03319347      -0.06985869       0.04298943 </v>
   <v>       0.08867834      -0.00205632       0.12798009 </v>
   <v>      -0.09033272       0.00268147       0.01169478 </v>
   <v>      -0.02568969      -0.04234511      -0.03474202 </v>
   <v>       0.09769643      -0.05466957      -0.13990948 </v>
   <v>       0.03085169       0.07880209      -0.15924649 </v>
   <v>       0.09780464       0.07357598       0.00813624 </v>
   <v>      -0.13180557      -0.01676095      -0.17521475 </v>
   <v>       0.07834439      -0.00122481       0.17825255 </v>
   <v>       0.10698950      -0.00135407       0.00629428 </v>
   <v>      -0.10965418       0.00010860       0.15555965 </v>
   <v>       0.08650401       0.00871163       0.25656822 </v>
   <v>      -0.07290268      -0.00796187      -0.12353613 </v>
   <v>       0.03823519      -0.00094260       0.08209629 </v>
   <v>       0.10568131      -0.00421215      -0.21107593 </v>
   <v>      -0.11136612       0.05549159       0.10721685 </v>
   <v>       0.01118547       0.03325235      -0.08490102 </v>
  </varray>
  <varray name="stress" >
   <v>     -19.89816505      -0.01749829       0.07413289 </v>
   <v>      -0.01749844     -19.50886461      -0.05019976 </v>
   <v>       0.07413283      -0.05019964      -1.73364265 </v>
  </varray>
  <energy>
   <i name="e_fr_energy">   -188.63386187 </i>
   <i name="e_wo_entrp">   -188.49167645 </i>
   <i name="e_0_energy">     -0.28437083 </i>
  </energy>
  <time name="totalsc">  418.01  419.13</time>
 </calculation>
 <calculation>
  <scstep>
   <time name="dav">   23.79   23.85</time>
   <time name="total">   24.33   24.39</time>
   <energy>
    <i name="alphaZ">     82.34455526 </i>
    <i name="ewald">  41301.66009768 </i>
    <i name="hartreedc"> -47300.37737723 </i>
    <i name="XCdc">   -233.86710418 </i>
    <i name="pawpsdc">   3949.54520324 </i>
    <i name="pawaedc">  -3364.04054269 </i>
    <i name="eentropy">     -0.23676295 </i>
    <i name="bandstr">  -1387.01606724 </i>
    <i name="atom">   6761.44252427 </i>
    <i name="e_fr_energy">   -190.54547384 </i>
    <i name="e_wo_entrp">   -190.30871089 </i>
    <i name="e_0_energy">   -190.42709237 </i>
   </energy>
  </scstep>
  <scstep>
   <time name="dav">   28.30   28.37</time>
   <time name="total">   28.82   28.90</time>
   <energy>
    <i name="e_fr_energy">   -190.54183493 </i>
    <i name="e_wo_entrp">   -190.30224570 </i>
    <i name="e_0_energy">   -190.42204031 </i>
   </energy>
  </scstep>
  <scstep>
   <time name="dav">   30.18   30.25</time>
   <time name="total">   30.70   30.79</time>
   <energy>
    <i name="e_fr_energy">   -190.02056891 </i>
    <i name="e_wo_entrp">   -189.77214170 </i>
    <i name="e_0_energy">   -189.89635530 </i>
   </energy>
  </scstep>
  <scstep>
   <time name="dav">   31.39   31.47</time>
   <time name="total">   31.93   32.01</time>
   <energy>
    <i name="e_fr_energy">   -189.81785266 </i>
    <i name="e_wo_entrp">   -189.58020439 </i>
    <i name="e_0_energy">   -189.69902852 </i>
   </energy>
  </scstep>
  <scstep>
   <time name="dav">   28.16   28.22</time>
   <time name="total">   28.69   28.77</time>
   <energy>
    <i name="e_fr_energy">   -189.73725791 </i>
    <i name="e_wo_entrp">   -189.49521062 </i>
    <i name="e_0_energy">   -189.61623427 </i>
   </energy>
  </scstep>
  <scstep>
   <time name="dav">   29.40   29.47</time>
   <time name="total">   29.93   30.01</time>
   <energy>
    <i name="e_fr_energy">   -189.72124243 </i>
    <i name="e_wo_entrp">   -189.48225976 </i>
    <i name="e_0_energy">   -189.60175110 </i>
   </energy>
  </scstep>
  <scstep>
   <time name="dav">   30.23   30.30</time>
   <time name="total">   30.76   30.84</time>
   <energy>
    <i name="e_fr_energy">   -189.71530108 </i>
    <i name="e_wo_entrp">   -189.47535686 </i>
    <i name="e_0_energy">   -189.59532897 </i>
   </energy>
  </scstep>
  <scstep>
   <time name="dav">   27.43   27.49</time>
   <time name="total">   27.96   28.04</time>
   <energy>
    <i name="e_fr_energy">   -189.71520169 </i>
    <i name="e_wo_entrp">   -189.47569553 </i>
    <i name="e_0_energy">   -189.59544861 </i>
   </energy>
  </scstep>
  <scstep>
   <time name="dav">   26.52   26.59</time>
   <time name="total">   26.56   26.63</time>
   <energy>
    <i name="alphaZ">     82.34455526 </i>
    <i name="ewald">  41301.66009768 </i>
    <i name="hartreedc"> -47272.77189001 </i>
    <i name="XCdc">   -235.25825041 </i>
    <i name="pawpsdc">   4029.45153419 </i>
    <i name="pawaedc">  -3445.06257096 </i>
    <i name="eentropy">     -0.23983219 </i>
    <i name="bandstr">  -1411.28142057 </i>
    <i name="atom">   6761.44252427 </i>
    <i name="e_fr_energy">   -189.71525274 </i>
    <i name="e_wo_entrp">   -189.47542054 </i>
    <i name="e_0_energy">   -189.59533664 </i>
   </energy>
  </scstep>
  <structure>
   <crystal>
    <varray name="basis" >
     <v>       8.66613439       5.00259596       0.00000000 </v>
     <v>      -8.66393112       4.99880707       0.00000000 </v>
     <v>       0.00000000       0.00000000      30.00000000 </v>
    </varray>
    <i name="volume">   2599.87442105 </i>
    <varray name="rec_basis" >
     <v>       0.05768133       0.09997326       0.00000000 </v>
     <v>      -0.05772505       0.09999869       0.00000000 </v>
     <v>       0.00000000       0.00000000       0.03333333 </v>
    </varray>
   </crystal>
   <varray name="positions" >
    <v>       0.66402187       0.33385305       0.00016049 </v>
    <v>       0.00169281      -0.00035323      -0.00018784 </v>
    <v>      -0.00061473       0.66803324       0.00007038 </v>
    <v>       0.33501523       0.33329766      -0.00018318 </v>
    <v>       0.66479727       0.66499123      -0.00008182 </v>
    <v>       0.33342779       0.00187641       0.00006006 </v>
    <v>       1.00172452       0.33350508       0.00004075 </v>
    <v>       0.33542406       0.66675240       0.00004875 </v>
    <v>       0.66458722      -0.00212901       0.00012159 </v>
    <v>       0.10811439       0.21800058       0.95188324 </v>
    <v>       0.21751386       0.10870095       0.04807908 </v>
    <v>       0.10916611       0.55739885       0.95206195 </v>
    <v>       0.22161578       0.44501172       0.04923297 </v>
    <v>       0.10639920       0.88684896       0.95304695 </v>
    <v>       0.21812468       0.77484465       0.04792088 </v>
    <v>       0.44887559       0.22443239       0.95179927 </v>
    <v>       0.55848397       0.11521191       0.04810679 </v>
    <v>       0.44361389       0.55590540       0.95061474 </v>
    <v>       0.55809988       0.44184104       0.04815727 </v>
    <v>       0.44472032       0.88816289       0.95073651 </v>
    <v>       0.55490089       0.77831896       0.04942413 </v>
    <v>       0.77582991       0.22409459       0.95220760 </v>
    <v>       0.89061668       0.10909137       0.04791208 </v>
    <v>       0.77987028       0.55327035       0.95309734 </v>
    <v>       0.88705971       0.44587367       0.04682223 </v>
    <v>       0.78186703       0.89171660       0.95201143 </v>
    <v>       0.89326623       0.77966273       0.04683624 </v>
   </varray>
  </structure>
  <varray name="forces" >
   <v>      -0.33080371      -0.21028373      -0.00526570 </v>
   <v>       0.15288743       0.16385499      -0.00010841 </v>
   <v>      -0.12832558       0.05490100       0.07553288 </v>
   <v>       0.02075235       0.15986640      -0.00006670 </v>
   <v>      -0.39965202      -0.39253708      -0.05472723 </v>
   <v>      -0.05400116       0.22674250       0.06836707 </v>
   <v>       0.25094343       0.21841983      -0.01988042 </v>
   <v>       0.38039977       0.27627289       0.00200603 </v>
   <v>       0.00951912      -0.50258816      -0.08381184 </v>
   <v>       0.03423265      -0.10761690      -0.53078410 </v>
   <v>      -0.07428089      -0.12228266       0.53088562 </v>
   <v>      -0.05713857       0.01211610      -0.37034125 </v>
   <v>      -0.00770509       0.01183373       0.57057004 </v>
   <v>      -0.04478087      -0.09658788      -0.49385114 </v>
   <v>      -0.00978835      -0.11031313       0.33700400 </v>
   <v>       0.07534519       0.14474557      -0.65981510 </v>
   <v>      -0.01795837       0.14107275       0.51617798 </v>
   <v>      -0.04950945      -0.02149409      -0.74848414 </v>
   <v>       0.14034172       0.00301360       0.67830954 </v>
   <v>       0.01669675      -0.01251995      -0.55528930 </v>
   <v>      -0.02151557      -0.00213293       0.74625512 </v>
   <v>      -0.05702027       0.01090111      -0.22075551 </v>
   <v>       0.07070383      -0.01692484       0.36943748 </v>
   <v>       0.10814737      -0.00241890      -0.35804122 </v>
   <v>      -0.04937679      -0.00786442       0.24267644 </v>
   <v>       0.00976200       0.10687717      -0.38715909 </v>
   <v>       0.03212507       0.07494701       0.35115894 </v>
  </varray>
  <varray name="stress" >
   <v>     -10.18982948      -0.01508245       0.02721848 </v>
   <v>      -0.01508222      -9.96660970      -0.05998096 </v>
   <v>       0.02721850      -0.05998066       6.58070396 </v>
  </varray>
  <energy>
   <i name="e_fr_energy">   -189.71525274 </i>
   <i name="e_wo_entrp">   -189.59533664 </i>
   <i name="e_0_energy">     -0.23983219 </i>
  </energy>
  <time name="totalsc">  301.92  302.73</time>
 </calculation>
 <calculation>
  <scstep>
   <time name="dav">   21.58   21.63</time>
   <time name="total">   22.10   22.15</time>
   <energy>
    <i name="alphaZ">     85.87695158 </i>
    <i name="ewald">  42860.29919221 </i>
    <i name="hartreedc"> -48876.88133446 </i>
    <i name="XCdc">   -232.91809460 </i>
    <i name="pawpsdc">   4035.55676158 </i>
    <i name="pawaedc">  -3451.22854235 </i>
    <i name="eentropy">     -0.19599264 </i>
    <i name="bandstr">  -1373.24930996 </i>
    <i name="atom">   6761.44252427 </i>
    <i name="e_fr_energy">   -191.29784436 </i>
    <i name="e_wo_entrp">   -191.10185172 </i>
    <i name="e_0_energy">   -191.19984804 </i>
   </energy>
  </scstep>
  <scstep>
   <time name="dav">   32.52   32.60</time>
   <time name="total">   33.04   33.12</time>
   <energy>
    <i name="e_fr_energy">   -191.17872895 </i>
    <i name="e_wo_entrp">   -190.97601530 </i>
    <i name="e_0_energy">   -191.07737213 </i>
   </energy>
  </scstep>
  <scstep>
   <time name="dav">   29.65   29.72</time>
   <time name="total">   30.16   30.25</time>
   <energy>
    <i name="e_fr_energy">   -191.21098634 </i>
    <i name="e_wo_entrp">   -190.99546881 </i>
    <i name="e_0_energy">   -191.10322758 </i>
   </energy>
  </scstep>
  <scstep>
   <time name="dav">   29.27   29.34</time>
   <time name="total">   29.79   29.87</time>
   <energy>
    <i name="e_fr_energy">   -190.87598310 </i>
    <i name="e_wo_entrp">   -190.67125705 </i>
    <i name="e_0_energy">   -190.77362008 </i>
   </energy>
  </scstep>
  <scstep>
   <time name="dav">   29.64   29.71</time>
   <time name="total">   30.16   30.24</time>
   <energy>
    <i name="e_fr_energy">   -190.84794617 </i>
    <i name="e_wo_entrp">   -190.65040096 </i>
    <i name="e_0_energy">   -190.74917357 </i>
   </energy>
  </scstep>
  <scstep>
   <time name="dav">   29.96   30.03</time>
   <time name="total">   30.48   30.56</time>
   <energy>
    <i name="e_fr_energy">   -190.69111857 </i>
    <i name="e_wo_entrp">   -190.48743138 </i>
    <i name="e_0_energy">   -190.58927497 </i>
   </energy>
  </scstep>
  <scstep>
   <time name="dav">   29.26   29.33</time>
   <time name="total">   29.78   29.86</time>
   <energy>
    <i name="e_fr_energy">   -190.68502111 </i>
    <i name="e_wo_entrp">   -190.48279204 </i>
    <i name="e_0_energy">   -190.58390658 </i>
   </energy>
  </scstep>
  <scstep>
   <time name="dav">   29.07   29.14</time>
   <time name="total">   29.59   29.67</time>
   <energy>
    <i name="e_fr_energy">   -190.68368661 </i>
    <i name="e_wo_entrp">   -190.48189211 </i>
    <i name="e_0_energy">   -190.58278936 </i>
   </energy>
  </scstep>
  <scstep>
   <time name="dav">   28.38   28.45</time>
   <time name="total">   28.90   28.97</time>
   <energy>
    <i name="e_fr_energy">   -190.68124525 </i>
    <i name="e_wo_entrp">   -190.47895671 </i>
    <i name="e_0_energy">   -190.58010098 </i>
   </energy>
  </scstep>
  <scstep>
   <time name="dav">   26.07   26.13</time>
   <time name="total">   26.58   26.66</time>
   <energy>
    <i name="e_fr_energy">   -190.68156942 </i>
    <i name="e_wo_entrp">   -190.47907764 </i>
    <i name="e_0_energy">   -190.58032353 </i>
   </energy>
  </scstep>
  <scstep>
   <time name="dav">   26.20   26.26</time>
   <time name="total">   26.72   26.79</time>
   <energy>
    <i name="e_fr_energy">   -190.68137785 </i>
    <i name="e_wo_entrp">   -190.47915219 </i>
    <i name="e_0_energy">   -190.58026502 </i>
   </energy>
  </scstep>
  <scstep>
   <time name="dav">   20.16   20.21</time>
   <time name="total">   20.20   20.26</time>
   <energy>
    <i name="alphaZ">     85.87695158 </i>
    <i name="ewald">  42860.29919221 </i>
    <i name="hartreedc"> -48848.40974656 </i>
    <i name="XCdc">   -234.27487817 </i>
    <i name="pawpsdc">   4063.92760756 </i>
    <i name="pawaedc">  -3479.80516634 </i>
    <i name="eentropy">     -0.20229268 </i>
    <i name="bandstr">  -1399.53557575 </i>
    <i name="atom">   6761.44252427 </i>
    <i name="e_fr_energy">   -190.68138388 </i>
    <i name="e_wo_entrp">   -190.47909120 </i>
    <i name="e_0_energy">   -190.58023754 </i>
   </energy>
  </scstep>
  <structure>
   <crystal>
    <varray name="basis" >
     <v>       8.48350676       4.89950510       0.00000000 </v>
     <v>      -8.48185267       4.89666523       0.00000000 </v>
     <v>       0.00000000       0.00000000      30.00000000 </v>
    </varray>
    <i name="volume">   2492.93319099 </i>
    <varray name="rec_basis" >
     <v>       0.05892655       0.10207076       0.00000000 </v>
     <v>      -0.05896073       0.10209066       0.00000000 </v>
     <v>       0.00000000       0.00000000       0.03333333 </v>
    </varray>
   </crystal>
   <varray name="positions" >
    <v>       0.66147378       0.33362496       0.00012880 </v>
    <v>       0.00326212       0.00024794      -0.00016416 </v>
    <v>      -0.00066016       0.66876750       0.00022500 </v>
    <v>       0.33603438       0.33435018      -0.00016121 </v>
    <v>       0.66063480       0.66406431      -0.00018334 </v>
    <v>       0.33480305       0.00345176       0.00019849 </v>
    <v>       1.00407232       0.33400030      -0.00000543 </v>
    <v>       0.33868602       0.66714189       0.00005297 </v>
    <v>       0.66131598      -0.00548442      -0.00006623 </v>
    <v>       0.10762133       0.21688019       0.95033901 </v>
    <v>       0.21628536       0.10813008       0.04959967 </v>
    <v>       0.10885878       0.55793014       0.95086547 </v>
    <v>       0.22180548       0.44501669       0.05089688 </v>
    <v>       0.10546621       0.88629584       0.95162793 </v>
    <v>       0.21710010       0.77420376       0.04902981 </v>
    <v>       0.45028799       0.22516957       0.95000031 </v>
    <v>       0.55930612       0.11650152       0.04961418 </v>
    <v>       0.44340752       0.55581810       0.94856936 </v>
    <v>       0.55872797       0.44127174       0.04999416 </v>
    <v>       0.44454264       0.88812711       0.94910198 </v>
    <v>       0.55493219       0.77824952       0.05147985 </v>
    <v>       0.77548847       0.22458424       0.95133950 </v>
    <v>       0.89095289       0.10849710       0.04910209 </v>
    <v>       0.78034478       0.55275767       0.95197637 </v>
    <v>       0.88659667       0.44621988       0.04771557 </v>
    <v>       0.78287906       0.89230539       0.95078345 </v>
    <v>       0.89398861       0.78009151       0.04793943 </v>
   </varray>
  </structure>
  <varray name="forces" >
   <v>      -0.30999497      -0.20529359      -0.05479134 </v>
   <v>       0.11194584       0.24224345       0.04968863 </v>
   <v>      -0.09286499       0.02854534       0.04561796 </v>
   <v>      -0.05683886       0.13124307       0.02655221 </v>
   <v>      -0.48071142      -0.38677292      -0.00894238 </v>
   <v>      -0.06081756       0.22977686       0.02986734 </v>
   <v>       0.27997506       0.28538570      -0.02742244 </v>
   <v>       0.44468955       0.29495322      -0.00357248 </v>
   <v>       0.04557554      -0.60044384      -0.04804114 </v>
   <v>       0.10517230      -0.00836498      -0.40540492 </v>
   <v>      -0.02149346      -0.00809058       0.36001557 </v>
   <v>      -0.00865745       0.05746127      -0.21964897 </v>
   <v>       0.05256270       0.04972216       0.40869095 </v>
   <v>       0.00087017       0.00070106      -0.37039787 </v>
   <v>       0.01544760      -0.00501325       0.19167827 </v>
   <v>       0.00281535       0.05896998      -0.46294341 </v>
   <v>      -0.00791256       0.06665968       0.38410849 </v>
   <v>       0.01933236      -0.05117178      -0.61577020 </v>
   <v>       0.01036955      -0.00136314       0.48787691 </v>
   <v>      -0.04784989      -0.05666813      -0.41274939 </v>
   <v>       0.02276866      -0.00765439       0.62813531 </v>
   <v>      -0.00827292      -0.00949355      -0.03012648 </v>
   <v>       0.03927456      -0.03844610       0.15698867 </v>
   <v>      -0.02991379      -0.01836437      -0.24756493 </v>
   <v>      -0.02567679      -0.01434020       0.17696333 </v>
   <v>       0.04297196      -0.00280549      -0.25438910 </v>
   <v>      -0.04276654      -0.03137548       0.21558140 </v>
  </varray>
  <varray name="stress" >
   <v>      -5.76541312       0.07927734      -0.03069240 </v>
   <v>       0.07927734      -5.65640530       0.04661016 </v>
   <v>      -0.03069227       0.04661011       4.59619247 </v>
  </varray>
  <energy>
   <i name="e_fr_energy">   -190.68138388 </i>
   <i name="e_wo_entrp">   -190.58023754 </i>
   <i name="e_0_energy">     -0.20229268 </i>
  </energy>
  <time name="totalsc">  379.77  380.78</time>
 </calculation>
 <calculation>
  <scstep>
   <time name="dav">   21.58   21.63</time>
   <time name="total">   22.09   22.14</time>
   <energy>
    <i name="alphaZ">     90.16668105 </i>
    <i name="ewald">  44658.46791310 </i>
    <i name="hartreedc"> -50701.36005681 </i>
    <i name="XCdc">   -231.88103356 </i>
    <i name="pawpsdc">   4063.90570746 </i>
    <i name="pawaedc">  -3479.77870014 </i>
    <i name="eentropy">     -0.18047086 </i>
    <i name="bandstr">  -1352.80995657 </i>
    <i name="atom">   6761.44252427 </i>
    <i name="e_fr_energy">   -192.02739204 </i>
    <i name="e_wo_entrp">   -191.84692119 </i>
    <i name="e_0_energy">   -191.93715661 </i>
   </energy>
  </scstep>
  <scstep>
   <time name="dav">   29.47   29.54</time>
   <time name="total">   29.98   30.06</time>
   <energy>
    <i name="e_fr_energy">   -191.82416837 </i>
    <i name="e_wo_entrp">   -191.63174423 </i>
    <i name="e_0_energy">   -191.72795630 </i>
   </energy>
  </scstep>
  <scstep>
   <time name="dav">   29.96   30.04</time>
   <time name="total">   30.47   30.55</time>
   <energy>
    <i name="e_fr_energy">   -192.20466550 </i>
    <i name="e_wo_entrp">   -192.00370792 </i>
    <i name="e_0_energy">   -192.10418671 </i>
   </energy>
  </scstep>
  <scstep>
   <time name="dav">   29.80   29.87</time>
   <time name="total">   30.31   30.39</time>
   <energy>
    <i name="e_fr_energy">   -191.55000267 </i>
    <i name="e_wo_entrp">   -191.36270636 </i>
    <i name="e_0_energy">   -191.45635451 </i>
   </energy>
  </scstep>
  <scstep>
   <time name="dav">   29.82   29.89</time>
   <time name="total">   30.32   30.41</time>
   <energy>
    <i name="e_fr_energy">   -191.37806020 </i>
    <i name="e_wo_entrp">   -191.19129271 </i>
    <i name="e_0_energy">   -191.28467646 </i>
   </energy>
  </scstep>
  <scstep>
   <time name="dav">   30.83   30.90</time>
   <time name="total">   31.34   31.42</time>
   <energy>
    <i name="e_fr_energy">   -191.37119014 </i>
    <i name="e_wo_entrp">   -191.17745762 </i>
    <i name="e_0_energy">   -191.27432388 </i>
   </energy>
  </scstep>
  <scstep>
   <time name="dav">   29.27   29.34</time>
   <time name="total">   29.78   29.86</time>
   <energy>
    <i name="e_fr_energy">   -191.34554827 </i>
    <i name="e_wo_entrp">   -191.15835882 </i>
    <i name="e_0_energy">   -191.25195355 </i>
   </energy>
  </scstep>
  <scstep>
   <time name="dav">   28.86   28.93</time>
   <time name="total">   29.37   29.45</time>
   <energy>
    <i name="e_fr_energy">   -191.33824804 </i>
    <i name="e_wo_entrp">   -191.14983952 </i>
    <i name="e_0_energy">   -191.24404378 </i>
   </energy>
  </scstep>
  <scstep>
   <time name="dav">   31.23   31.30</time>
   <time name="total">   31.74   31.82</time>
   <energy>
    <i name="e_fr_energy">   -191.33892789 </i>
    <i name="e_wo_entrp">   -191.15001428 </i>
    <i name="e_0_energy">   -191.24447109 </i>
   </energy>
  </scstep>
  <scstep>
   <time name="dav">   28.57   28.64</time>
   <time name="total">   29.08   29.16</time>
   <energy>
    <i name="e_fr_energy">   -191.33843688 </i>
    <i name="e_wo_entrp">   -191.14978227 </i>
    <i name="e_0_energy">   -191.24410957 </i>
   </energy>
  </scstep>
  <scstep>
   <time name="dav">   26.77   26.83</time>
   <time name="total">   27.27   27.35</time>
   <energy>
    <i name="e_fr_energy">   -191.33825493 </i>
    <i name="e_wo_entrp">   -191.14952438 </i>
    <i name="e_0_energy">   -191.24388966 </i>
   </energy>
  </scstep>
  <scstep>
   <time name="dav">   19.79   19.84</time>
   <time name="total">   19.83   19.89</time>
   <energy>
    <i name="alphaZ">     90.16668105 </i>
    <i name="ewald">  44658.46791310 </i>
    <i name="hartreedc"> -50667.83801453 </i>
    <i name="XCdc">   -233.39537613 </i>
    <i name="pawpsdc">   4083.41422668 </i>
    <i name="pawaedc">  -3499.34056988 </i>
    <i name="eentropy">     -0.18872308 </i>
    <i name="bandstr">  -1384.06688846 </i>
    <i name="atom">   6761.44252427 </i>
    <i name="e_fr_energy">   -191.33822699 </i>
    <i name="e_wo_entrp">   -191.14950391 </i>
    <i name="e_0_energy">   -191.24386545 </i>
   </energy>
  </scstep>
  <structure>
   <crystal>
    <varray name="basis" >
     <v>       8.27939614       4.78668021       0.00000000 </v>
     <v>      -8.27325334       4.77606483       0.00000000 </v>
     <v>       0.00000000       0.00000000      30.00000000 </v>
    </varray>
    <i name="volume">   2374.33052248 </i>
    <varray name="rec_basis" >
     <v>       0.06034625       0.10453372       0.00000000 </v>
     <v>      -0.06048038       0.10461133       0.00000000 </v>
     <v>       0.00000000       0.00000000       0.03333333 </v>
    </varray>
   </crystal>
   <varray name="positions" >
    <v>       0.65675149       0.33319719      -0.00008506 </v>
    <v>       0.00687948       0.00237768       0.00003294 </v>
    <v>      -0.00087008       0.66975598       0.00041867 </v>
    <v>       0.33728158       0.33645402      -0.00004535 </v>
    <v>       0.65236171       0.66275440      -0.00022923 </v>
    <v>       0.33733231       0.00660415       0.00033296 </v>
    <v>       1.00943320       0.33545615      -0.00011539 </v>
    <v>       0.34545492       0.66767288       0.00004186 </v>
    <v>       0.65430845      -0.01307966      -0.00029067 </v>
    <v>       0.10809205       0.21558393       0.94817052 </v>
    <v>       0.21558238       0.10796327       0.05158584 </v>
    <v>       0.10917536       0.55893963       0.94943447 </v>
    <v>       0.22281912       0.44513668       0.05313955 </v>
    <v>       0.10509190       0.88605860       0.94965366 </v>
    <v>       0.21661546       0.77390401       0.05032668 </v>
    <v>       0.45149343       0.22605197       0.94758142 </v>
    <v>       0.56017381       0.11788008       0.05169466 </v>
    <v>       0.44302756       0.55502706       0.94550983 </v>
    <v>       0.55902837       0.44097660       0.05250769 </v>
    <v>       0.44347374       0.88790293       0.94685084 </v>
    <v>       0.55510438       0.77789682       0.05459747 </v>
    <v>       0.77507301       0.22484910       0.95065673 </v>
    <v>       0.89103724       0.10749933       0.05031284 </v>
    <v>       0.78018033       0.55252052       0.95051272 </v>
    <v>       0.88596585       0.44650360       0.04888985 </v>
    <v>       0.78364000       0.89212906       0.94922845 </v>
    <v>       0.89370738       0.78019847       0.04928596 </v>
   </varray>
  </structure>
  <varray name="forces" >
   <v>      -0.31347307      -0.14722221      -0.00002931 </v>
   <v>       0.14090810       0.36642861       0.01403813 </v>
   <v>      -0.08929749      -0.07144846       0.05764642 </v>
   <v>      -0.08226821      -0.03192595      -0.03849882 </v>
   <v>      -0.25460477      -0.18628458       0.01919828 </v>
   <v>      -0.08449584       0.16812040      -0.02192386 </v>
   <v>       0.26808100       0.44287793      -0.04976032 </v>
   <v>       0.28498500       0.08186207      -0.07413761 </v>
   <v>       0.03700041      -0.52007992       0.04287929 </v>
   <v>       0.10443916       0.07757409      -0.13433586 </v>
   <v>       0.05102082       0.12168765       0.11564173 </v>
   <v>       0.10008859       0.13928033       0.03112879 </v>
   <v>       0.04525601       0.11379508       0.19624039 </v>
   <v>       0.02033943       0.09113772      -0.02625098 </v>
   <v>       0.12511784       0.12625756      -0.12671347 </v>
   <v>      -0.07823095      -0.01873747      -0.12857975 </v>
   <v>       0.05883661      -0.01192876       0.04597330 </v>
   <v>       0.03703340      -0.08569831      -0.27556187 </v>
   <v>      -0.11713734       0.00871334       0.11706151 </v>
   <v>      -0.06597433      -0.14866768      -0.14517300 </v>
   <v>       0.01377846      -0.02516798       0.36179138 </v>
   <v>       0.12816439      -0.06492874       0.32394053 </v>
   <v>      -0.05578025      -0.06510520      -0.19030310 </v>
   <v>      -0.20314737      -0.04157033       0.00887691 </v>
   <v>       0.05520446      -0.03859811      -0.10260986 </v>
   <v>       0.00780747      -0.15190481       0.07509201 </v>
   <v>      -0.13365152      -0.12846628      -0.09563089 </v>
  </varray>
  <varray name="stress" >
   <v>      -0.35429634       0.25637759      -0.00471239 </v>
   <v>       0.25637752      -0.19998660       0.34056594 </v>
   <v>      -0.00471231       0.34056589      -0.52064592 </v>
  </varray>
  <energy>
   <i name="e_fr_energy">   -191.33822699 </i>
   <i name="e_wo_entrp">   -191.24386545 </i>
   <i name="e_0_energy">     -0.18872308 </i>
  </energy>
  <time name="totalsc">  383.91  384.92</time>
 </calculation>
 <calculation>
  <scstep>
   <time name="dav">   21.60   21.65</time>
   <time name="total">   22.11   22.16</time>
   <energy>
    <i name="alphaZ">     90.36856579 </i>
    <i name="ewald">  44733.76034626 </i>
    <i name="hartreedc"> -50745.92434840 </i>
    <i name="XCdc">   -233.32405934 </i>
    <i name="pawpsdc">   4083.30770363 </i>
    <i name="pawaedc">  -3499.22900039 </i>
    <i name="eentropy">     -0.18889922 </i>
    <i name="bandstr">  -1381.64295197 </i>
    <i name="atom">   6761.44252427 </i>
    <i name="e_fr_energy">   -191.43011936 </i>
    <i name="e_wo_entrp">   -191.24122014 </i>
    <i name="e_0_energy">   -191.33566975 </i>
   </energy>
  </scstep>
  <scstep>
   <time name="dav">   31.60   31.67</time>
   <time name="total">   32.10   32.19</time>
   <energy>
    <i name="e_fr_energy">   -191.48665085 </i>
    <i name="e_wo_entrp">   -191.28698253 </i>
    <i name="e_0_energy">   -191.38681669 </i>
   </energy>
  </scstep>
  <scstep>
   <time name="dav">   29.58   29.65</time>
   <time name="total">   30.09   30.17</time>
   <energy>
    <i name="e_fr_energy">   -191.44714114 </i>
    <i name="e_wo_entrp">   -191.25785655 </i>
    <i name="e_0_energy">   -191.35249884 </i>
   </energy>
  </scstep>
  <scstep>
   <time name="dav">   28.87   28.93</time>
   <time name="total">   29.37   29.45</time>
   <energy>
    <i name="e_fr_energy">   -191.44646225 </i>
    <i name="e_wo_entrp">   -191.25617894 </i>
    <i name="e_0_energy">   -191.35132060 </i>
   </energy>
  </scstep>
  <scstep>
   <time name="dav">   28.55   28.62</time>
   <time name="total">   29.06   29.13</time>
   <energy>
    <i name="e_fr_energy">   -191.44070443 </i>
    <i name="e_wo_entrp">   -191.24992274 </i>
    <i name="e_0_energy">   -191.34531358 </i>
   </energy>
  </scstep>
  <scstep>
   <time name="dav">   27.46   27.53</time>
   <time name="total">   27.97   28.04</time>
   <energy>
    <i name="e_fr_energy">   -191.44001648 </i>
    <i name="e_wo_entrp">   -191.24893041 </i>
    <i name="e_0_energy">   -191.34447344 </i>
   </energy>
  </scstep>
  <scstep>
   <time name="dav">   26.31   26.37</time>
   <time name="total">   26.81   26.88</time>
   <energy>
    <i name="e_fr_energy">   -191.43971883 </i>
    <i name="e_wo_entrp">   -191.24838847 </i>
    <i name="e_0_energy">   -191.34405365 </i>
   </energy>
  </scstep>
  <scstep>
   <time name="dav">   25.07   25.13</time>
   <time name="total">   25.11   25.18</time>
   <energy>
    <i name="alphaZ">     90.36856579 </i>
    <i name="ewald">  44733.76034626 </i>
    <i name="hartreedc"> -50745.33508404 </i>
    <i name="XCdc">   -233.36933548 </i>
    <i name="pawpsdc">   4083.77176061 </i>
    <i name="pawaedc">  -3499.68673678 </i>
    <i name="eentropy">     -0.19113105 </i>
    <i name="bandstr">  -1382.20059083 </i>
    <i name="atom">   6761.44252427 </i>
    <i name="e_fr_energy">   -191.43968125 </i>
    <i name="e_wo_entrp">   -191.24855019 </i>
    <i name="e_0_energy">   -191.34411572 </i>
   </energy>
  </scstep>
  <structure>
   <crystal>
    <varray name="basis" >
     <v>       8.27178364       4.78831528       0.00000000 </v>
     <v>      -8.25878372       4.76582591       0.00000000 </v>
     <v>       0.00000000       0.00000000      30.00000000 </v>
    </varray>
    <i name="volume">   2369.02623230 </i>
    <varray name="rec_basis" >
     <v>       0.06035171       0.10458454       0.00000000 </v>
     <v>      -0.06063650       0.10474916       0.00000000 </v>
     <v>       0.00000000       0.00000000       0.03333333 </v>
    </varray>
   </crystal>
   <varray name="positions" >
    <v>       0.65490818       0.33336350      -0.00009039 </v>
    <v>       0.00932079       0.00392886       0.00006138 </v>
    <v>      -0.00152002       0.66967625       0.00052032 </v>
    <v>       0.33689627       0.33659064      -0.00010679 </v>
    <v>       0.65040056       0.66251645      -0.00019838 </v>
    <v>       0.33802534       0.00782267       0.00029985 </v>
    <v>       1.01270622       0.33700557      -0.00020154 </v>
    <v>       0.34691967       0.66725135      -0.00008259 </v>
    <v>       0.65151237      -0.01611627      -0.00022500 </v>
    <v>       0.10882542       0.21563422       0.94788177 </v>
    <v>       0.21635131       0.10844016       0.05183868 </v>
    <v>       0.11021329       0.55939721       0.94944139 </v>
    <v>       0.22358036       0.44559853       0.05353491 </v>
    <v>       0.10561654       0.88646602       0.94955180 </v>
    <v>       0.21763730       0.77417786       0.05015586 </v>
    <v>       0.45119574       0.22621646       0.94729569 </v>
    <v>       0.56031319       0.11768161       0.05183309 </v>
    <v>       0.44268191       0.55444350       0.94496124 </v>
    <v>       0.55873047       0.44136767       0.05277641 </v>
    <v>       0.44246497       0.88731832       0.94654096 </v>
    <v>       0.55502002       0.77771208       0.05529215 </v>
    <v>       0.77510612       0.22413012       0.95117290 </v>
    <v>       0.89053272       0.10729731       0.05003419 </v>
    <v>       0.77934611       0.55290980       0.95048287 </v>
    <v>       0.88591004       0.44614461       0.04875527 </v>
    <v>       0.78289287       0.89130483       0.94930618 </v>
    <v>       0.89262669       0.77993512       0.04916769 </v>
   </varray>
  </structure>
  <varray name="forces" >
   <v>      -0.37908764      -0.13210802       0.00188204 </v>
   <v>       0.17357048       0.38884331       0.02235540 </v>
   <v>      -0.12758425      -0.11948745       0.10423107 </v>
   <v>      -0.05776611      -0.06751383      -0.01133447 </v>
   <v>      -0.20802720      -0.21797608       0.00606131 </v>
   <v>      -0.10638986       0.19712580      -0.00569285 </v>
   <v>       0.28861397       0.54573664      -0.02473211 </v>
   <v>       0.29413268       0.04809847      -0.00334395 </v>
   <v>       0.00663176      -0.55968315       0.01174174 </v>
   <v>       0.07748983       0.05074117      -0.15709163 </v>
   <v>       0.04365475       0.09016512       0.10528016 </v>
   <v>       0.05974080       0.10892477      -0.01200727 </v>
   <v>       0.04074095       0.08943294       0.17845261 </v>
   <v>       0.01194556       0.06236614      -0.00205824 </v>
   <v>       0.09193610       0.08255849      -0.18785530 </v>
   <v>      -0.05215408       0.00613424      -0.11701050 </v>
   <v>       0.03605862      -0.00110455       0.01406841 </v>
   <v>       0.04850761      -0.06524338      -0.20705523 </v>
   <v>      -0.07693453      -0.01639064       0.09462040 </v>
   <v>      -0.04685469      -0.11836036      -0.09114699 </v>
   <v>      -0.00158832      -0.06105677       0.25659436 </v>
   <v>       0.12220882      -0.03075897       0.39841725 </v>
   <v>      -0.05716348      -0.03718607      -0.24272343 </v>
   <v>      -0.13228463      -0.03591420       0.02427567 </v>
   <v>       0.05865408      -0.04509718      -0.15540458 </v>
   <v>      -0.00197863      -0.09212723       0.12423369 </v>
   <v>      -0.10607258      -0.07011922      -0.12475755 </v>
  </varray>
  <varray name="stress" >
   <v>       0.20620908       0.05240699      -0.05654604 </v>
   <v>       0.05240720       0.30334304       0.16115145 </v>
   <v>      -0.05654604       0.16115144      -1.14222550 </v>
  </varray>
  <energy>
   <i name="e_fr_energy">   -191.43968125 </i>
   <i name="e_wo_entrp">   -191.34411572 </i>
   <i name="e_0_energy">     -0.19113105 </i>
  </energy>
  <time name="totalsc">  264.58  265.28</time>
 </calculation>
 <calculation>
  <scstep>
   <time name="dav">   21.59   21.65</time>
   <time name="total">   22.11   22.16</time>
   <energy>
    <i name="alphaZ">     90.30135496 </i>
    <i name="ewald">  44703.78222809 </i>
    <i name="hartreedc"> -50714.56422410 </i>
    <i name="XCdc">   -233.41378624 </i>
    <i name="pawpsdc">   4083.81479451 </i>
    <i name="pawaedc">  -3499.73048567 </i>
    <i name="eentropy">     -0.19070495 </i>
    <i name="bandstr">  -1382.91067237 </i>
    <i name="atom">   6761.44252427 </i>
    <i name="e_fr_energy">   -191.46897149 </i>
    <i name="e_wo_entrp">   -191.27826654 </i>
    <i name="e_0_energy">   -191.37361902 </i>
   </energy>
  </scstep>
  <scstep>
   <time name="dav">   32.60   32.68</time>
   <time name="total">   33.11   33.20</time>
   <energy>
    <i name="e_fr_energy">   -191.47470063 </i>
    <i name="e_wo_entrp">   -191.28036229 </i>
    <i name="e_0_energy">   -191.37753146 </i>
   </energy>
  </scstep>
  <scstep>
   <time name="dav">   29.40   29.47</time>
   <time name="total">   29.91   29.99</time>
   <energy>
    <i name="e_fr_energy">   -191.46987785 </i>
    <i name="e_wo_entrp">   -191.27902920 </i>
    <i name="e_0_energy">   -191.37445352 </i>
   </energy>
  </scstep>
  <scstep>
   <time name="dav">   26.20   26.27</time>
   <time name="total">   26.71   26.79</time>
   <energy>
    <i name="e_fr_energy">   -191.47024021 </i>
    <i name="e_wo_entrp">   -191.27903434 </i>
    <i name="e_0_energy">   -191.37463727 </i>
   </energy>
  </scstep>
  <scstep>
   <time name="dav">   25.22   25.28</time>
   <time name="total">   25.72   25.79</time>
   <energy>
    <i name="e_fr_energy">   -191.46954849 </i>
    <i name="e_wo_entrp">   -191.27823505 </i>
    <i name="e_0_energy">   -191.37389177 </i>
   </energy>
  </scstep>
  <scstep>
   <time name="dav">   20.21   20.26</time>
   <time name="total">   20.25   20.31</time>
   <energy>
    <i name="alphaZ">     90.30135496 </i>
    <i name="ewald">  44703.78222809 </i>
    <i name="hartreedc"> -50715.62086630 </i>
    <i name="XCdc">   -233.38100029 </i>
    <i name="pawpsdc">   4084.45301191 </i>
    <i name="pawaedc">  -3500.37540779 </i>
    <i name="eentropy">     -0.19133238 </i>
    <i name="bandstr">  -1381.88005630 </i>
    <i name="atom">   6761.44252427 </i>
    <i name="e_fr_energy">   -191.46954382 </i>
    <i name="e_wo_entrp">   -191.27821143 </i>
    <i name="e_0_energy">   -191.37387763 </i>
   </energy>
  </scstep>
  <structure>
   <crystal>
    <varray name="basis" >
     <v>       8.27469629       4.79054393       0.00000000 </v>
     <v>      -8.26138800       4.76751928       0.00000000 </v>
     <v>       0.00000000       0.00000000      30.00000000 </v>
    </varray>
    <i name="volume">   2370.78948620 </i>
    <varray name="rec_basis" >
     <v>       0.06032825       0.10453971       0.00000000 </v>
     <v>      -0.06061960       0.10470811       0.00000000 </v>
     <v>       0.00000000       0.00000000       0.03333333 </v>
    </varray>
   </crystal>
   <varray name="positions" >
    <v>       0.65438220       0.33351438      -0.00008737 </v>
    <v>       0.01008377       0.00437767       0.00007129 </v>
[...]
      <set comment="kpoint 31">
       <r>  -17.5266    1.0000 </r>
       <r>  -17.2713    1.0000 </r>
       <r>  -16.8864    1.0000 </r>
       <r>  -16.5892    1.0000 </r>
       <r>  -16.4541    1.0000 </r>
       <r>  -16.4102    1.0000 </r>
       <r>  -16.3251    1.0000 </r>
       <r>  -16.1609    1.0000 </r>
       <r>  -16.0485    1.0000 </r>
       <r>  -15.9979    1.0000 </r>
       <r>  -15.9514    1.0000 </r>
       <r>  -15.8517    1.0000 </r>
       <r>  -15.7828    1.0000 </r>
       <r>  -15.7015    1.0000 </r>
       <r>  -15.6234    1.0000 </r>
       <r>  -15.5457    1.0000 </r>
       <r>  -15.4511    1.0000 </r>
       <r>  -15.3117    1.0000 </r>
       <r>   -9.7897    1.0000 </r>
       <r>   -9.4524    1.0000 </r>
       <r>   -9.3252    1.0000 </r>
       <r>   -8.9416    1.0000 </r>
       <r>   -8.8658    1.0000 </r>
       <r>   -8.7154    1.0000 </r>
       <r>   -8.5145    1.0000 </r>
       <r>   -8.4824    1.0000 </r>
       <r>   -8.3807    1.0000 </r>
       <r>   -8.3596    1.0000 </r>
       <r>   -8.2536    1.0000 </r>
       <r>   -8.2110    1.0000 </r>
       <r>   -8.1407    1.0000 </r>
       <r>   -8.0721    1.0000 </r>
       <r>   -7.9693    1.0000 </r>
       <r>   -7.9171    1.0000 </r>
       <r>   -7.7498    1.0000 </r>
       <r>   -7.6421    1.0000 </r>
       <r>   -7.4885    1.0000 </r>
       <r>   -7.3966    1.0000 </r>
       <r>   -7.3201    1.0000 </r>
       <r>   -7.2083    1.0000 </r>
       <r>   -7.1301    1.0000 </r>
       <r>   -7.0457    1.0000 </r>
       <r>   -7.0040    1.0000 </r>
       <r>   -6.8978    1.0000 </r>
       <r>   -6.8456    1.0000 </r>
       <r>   -6.7859    1.0000 </r>
       <r>   -6.7222    1.0000 </r>
       <r>   -6.6352    1.0000 </r>
       <r>   -6.5687    1.0000 </r>
       <r>   -6.4831    1.0000 </r>
       <r>   -6.4144    1.0000 </r>
       <r>   -6.3822    1.0000 </r>
       <r>   -6.2089    1.0000 </r>
       <r>   -6.1733    1.0000 </r>
       <r>   -6.1355    1.0000 </r>
       <r>   -6.0256    1.0000 </r>
       <r>   -5.9677    1.0000 </r>
       <r>   -5.8987    1.0000 </r>
       <r>   -5.7900    1.0000 </r>
       <r>   -5.7535    1.0000 </r>
       <r>   -5.6979    1.0000 </r>
       <r>   -5.6081    1.0000 </r>
       <r>   -5.5718    1.0000 </r>
       <r>   -5.3847    1.0000 </r>
       <r>   -5.2922    1.0000 </r>
       <r>   -5.1501    1.0000 </r>
       <r>   -5.0477    1.0000 </r>
       <r>   -4.9340    1.0000 </r>
       <r>   -4.7809    1.0000 </r>
       <r>   -4.6918    1.0000 </r>
       <r>   -4.5247    1.0000 </r>
       <r>   -4.4866    1.0000 </r>
       <r>   -4.3823    1.0000 </r>
       <r>   -4.1963    1.0000 </r>
       <r>   -3.9088    1.0000 </r>
       <r>   -3.7712    0.9998 </r>
       <r>   -3.6852    0.9986 </r>
       <r>   -3.5988    0.9914 </r>
       <r>   -3.4886    0.9455 </r>
       <r>   -3.2697    0.5221 </r>
       <r>   -2.9970    0.0305 </r>
       <r>   -2.7985    0.0005 </r>
       <r>   -2.6583    0.0000 </r>
       <r>   -2.5838    0.0000 </r>
       <r>   -2.4900    0.0000 </r>
       <r>   -2.4060    0.0000 </r>
       <r>   -2.2930    0.0000 </r>
       <r>   -2.2110    0.0000 </r>
       <r>   -2.1416    0.0000 </r>
       <r>   -1.9334    0.0000 </r>
       <r>   -1.8932    0.0000 </r>
       <r>   -1.5871    0.0000 </r>
       <r>   -1.4612    0.0000 </r>
       <r>   -1.3232    0.0000 </r>
       <r>   -1.1772    0.0000 </r>
       <r>   -1.1117    0.0000 </r>
       <r>   -1.0088    0.0000 </r>
       <r>   -0.9645    0.0000 </r>
       <r>   -0.9475    0.0000 </r>
       <r>   -0.8158    0.0000 </r>
       <r>   -0.7301    0.0000 </r>
       <r>   -0.6755    0.0000 </r>
       <r>   -0.5606    0.0000 </r>
       <r>   -0.5104    0.0000 </r>
       <r>   -0.4507    0.0000 </r>
       <r>   -0.3620    0.0000 </r>
       <r>   -0.2273    0.0000 </r>
       <r>   -0.1195    0.0000 </r>
       <r>    0.0290    0.0000 </r>
       <r>    0.2459    0.0000 </r>
       <r>    0.3226    0.0000 </r>
       <r>    0.6414    0.0000 </r>
       <r>    0.6898    0.0000 </r>
       <r>    0.9686    0.0000 </r>
       <r>    1.2667    0.0000 </r>
       <r>    1.3580    0.0000 </r>
       <r>    1.4509    0.0000 </r>
       <r>    2.1497    0.0000 </r>
       <r>    2.2955    0.0000 </r>
       <r>    2.4095    0.0000 </r>
      </set>
      <set comment="kpoint 32">
       <r>  -17.5649    1.0000 </r>
       <r>  -17.1242    1.0000 </r>
       <r>  -17.0417    1.0000 </r>
       <r>  -16.5783    1.0000 </r>
       <r>  -16.4251    1.0000 </r>
       <r>  -16.3639    1.0000 </r>
       <r>  -16.2769    1.0000 </r>
       <r>  -16.2054    1.0000 </r>
       <r>  -16.0745    1.0000 </r>
       <r>  -16.0130    1.0000 </r>
       <r>  -15.9559    1.0000 </r>
       <r>  -15.8759    1.0000 </r>
       <r>  -15.7849    1.0000 </r>
       <r>  -15.7020    1.0000 </r>
       <r>  -15.5960    1.0000 </r>
       <r>  -15.5400    1.0000 </r>
       <r>  -15.4463    1.0000 </r>
       <r>  -15.3227    1.0000 </r>
       <r>   -9.6778    1.0000 </r>
       <r>   -9.6153    1.0000 </r>
       <r>   -9.3366    1.0000 </r>
       <r>   -8.9722    1.0000 </r>
       <r>   -8.7744    1.0000 </r>
       <r>   -8.6089    1.0000 </r>
       <r>   -8.4803    1.0000 </r>
       <r>   -8.4231    1.0000 </r>
       <r>   -8.3959    1.0000 </r>
       <r>   -8.3417    1.0000 </r>
       <r>   -8.2753    1.0000 </r>
       <r>   -8.2119    1.0000 </r>
       <r>   -8.1633    1.0000 </r>
       <r>   -8.1425    1.0000 </r>
       <r>   -8.0614    1.0000 </r>
       <r>   -7.9647    1.0000 </r>
       <r>   -7.8064    1.0000 </r>
       <r>   -7.5650    1.0000 </r>
       <r>   -7.4779    1.0000 </r>
       <r>   -7.4167    1.0000 </r>
       <r>   -7.2698    1.0000 </r>
       <r>   -7.2118    1.0000 </r>
       <r>   -7.1915    1.0000 </r>
       <r>   -7.0858    1.0000 </r>
       <r>   -6.9926    1.0000 </r>
       <r>   -6.9278    1.0000 </r>
       <r>   -6.8093    1.0000 </r>
       <r>   -6.7641    1.0000 </r>
       <r>   -6.6879    1.0000 </r>
       <r>   -6.6447    1.0000 </r>
       <r>   -6.5124    1.0000 </r>
       <r>   -6.4932    1.0000 </r>
       <r>   -6.4549    1.0000 </r>
       <r>   -6.3504    1.0000 </r>
       <r>   -6.2710    1.0000 </r>
       <r>   -6.1556    1.0000 </r>
       <r>   -6.0722    1.0000 </r>
       <r>   -6.0110    1.0000 </r>
       <r>   -5.9497    1.0000 </r>
       <r>   -5.9020    1.0000 </r>
       <r>   -5.7762    1.0000 </r>
       <r>   -5.7055    1.0000 </r>
       <r>   -5.6428    1.0000 </r>
       <r>   -5.6033    1.0000 </r>
       <r>   -5.5338    1.0000 </r>
       <r>   -5.4062    1.0000 </r>
       <r>   -5.3393    1.0000 </r>
       <r>   -5.2173    1.0000 </r>
       <r>   -5.0497    1.0000 </r>
       <r>   -4.9937    1.0000 </r>
       <r>   -4.8972    1.0000 </r>
       <r>   -4.7336    1.0000 </r>
       <r>   -4.5143    1.0000 </r>
       <r>   -4.4754    1.0000 </r>
       <r>   -4.3177    1.0000 </r>
       <r>   -4.2166    1.0000 </r>
       <r>   -3.9073    1.0000 </r>
       <r>   -3.7563    0.9998 </r>
       <r>   -3.6538    0.9972 </r>
       <r>   -3.5610    0.9828 </r>
       <r>   -3.4473    0.9051 </r>
       <r>   -3.2983    0.6016 </r>
       <r>   -2.9419    0.0118 </r>
       <r>   -2.8241    0.0010 </r>
       <r>   -2.6712    0.0000 </r>
       <r>   -2.6249    0.0000 </r>
       <r>   -2.5242    0.0000 </r>
       <r>   -2.4104    0.0000 </r>
       <r>   -2.2948    0.0000 </r>
       <r>   -2.1880    0.0000 </r>
       <r>   -2.1212    0.0000 </r>
       <r>   -1.9567    0.0000 </r>
       <r>   -1.8868    0.0000 </r>
       <r>   -1.5591    0.0000 </r>
       <r>   -1.4711    0.0000 </r>
       <r>   -1.3211    0.0000 </r>
       <r>   -1.1605    0.0000 </r>
       <r>   -1.1407    0.0000 </r>
       <r>   -1.0062    0.0000 </r>
       <r>   -0.9591    0.0000 </r>
       <r>   -0.9302    0.0000 </r>
       <r>   -0.8374    0.0000 </r>
       <r>   -0.7834    0.0000 </r>
       <r>   -0.7218    0.0000 </r>
       <r>   -0.5566    0.0000 </r>
       <r>   -0.4784    0.0000 </r>
       <r>   -0.4142    0.0000 </r>
       <r>   -0.2953    0.0000 </r>
       <r>   -0.2161    0.0000 </r>
       <r>   -0.0714    0.0000 </r>
       <r>   -0.0325    0.0000 </r>
       <r>    0.2068    0.0000 </r>
       <r>    0.3898    0.0000 </r>
       <r>    0.6147    0.0000 </r>
       <r>    0.7494    0.0000 </r>
       <r>    0.9596    0.0000 </r>
       <r>    1.2076    0.0000 </r>
       <r>    1.2900    0.0000 </r>
       <r>    1.4371    0.0000 </r>
       <r>    2.1154    0.0000 </r>
       <r>    2.2600    0.0000 </r>
       <r>    2.5698    0.0000 </r>
      </set>
      <set comment="kpoint 33">
       <r>  -17.5794    1.0000 </r>
       <r>  -17.1626    1.0000 </r>
       <r>  -16.9292    1.0000 </r>
       <r>  -16.5792    1.0000 </r>
       <r>  -16.4917    1.0000 </r>
       <r>  -16.3955    1.0000 </r>
       <r>  -16.3502    1.0000 </r>
       <r>  -16.1282    1.0000 </r>
       <r>  -16.0434    1.0000 </r>
       <r>  -16.0113    1.0000 </r>
       <r>  -15.9268    1.0000 </r>
       <r>  -15.8812    1.0000 </r>
       <r>  -15.7908    1.0000 </r>
       <r>  -15.7015    1.0000 </r>
       <r>  -15.5812    1.0000 </r>
       <r>  -15.5466    1.0000 </r>
       <r>  -15.4558    1.0000 </r>
       <r>  -15.3399    1.0000 </r>
       <r>   -9.7463    1.0000 </r>
       <r>   -9.4859    1.0000 </r>
       <r>   -9.2438    1.0000 </r>
       <r>   -9.0193    1.0000 </r>
       <r>   -8.8546    1.0000 </r>
       <r>   -8.7813    1.0000 </r>
       <r>   -8.5593    1.0000 </r>
       <r>   -8.4151    1.0000 </r>
       <r>   -8.3485    1.0000 </r>
       <r>   -8.3205    1.0000 </r>
       <r>   -8.2675    1.0000 </r>
       <r>   -8.1992    1.0000 </r>
       <r>   -8.1265    1.0000 </r>
       <r>   -8.0930    1.0000 </r>
       <r>   -7.9817    1.0000 </r>
       <r>   -7.8943    1.0000 </r>
       <r>   -7.8025    1.0000 </r>
       <r>   -7.6320    1.0000 </r>
       <r>   -7.5669    1.0000 </r>
       <r>   -7.4139    1.0000 </r>
       <r>   -7.2727    1.0000 </r>
       <r>   -7.2187    1.0000 </r>
       <r>   -7.1770    1.0000 </r>
       <r>   -7.0663    1.0000 </r>
       <r>   -7.0133    1.0000 </r>
       <r>   -6.8911    1.0000 </r>
       <r>   -6.8095    1.0000 </r>
       <r>   -6.7155    1.0000 </r>
       <r>   -6.6605    1.0000 </r>
       <r>   -6.5862    1.0000 </r>
       <r>   -6.5368    1.0000 </r>
       <r>   -6.4850    1.0000 </r>
       <r>   -6.4371    1.0000 </r>
       <r>   -6.3677    1.0000 </r>
       <r>   -6.2304    1.0000 </r>
       <r>   -6.1489    1.0000 </r>
       <r>   -6.0830    1.0000 </r>
       <r>   -6.0214    1.0000 </r>
       <r>   -5.9550    1.0000 </r>
       <r>   -5.9088    1.0000 </r>
       <r>   -5.8085    1.0000 </r>
       <r>   -5.7508    1.0000 </r>
       <r>   -5.6872    1.0000 </r>
       <r>   -5.6753    1.0000 </r>
       <r>   -5.6025    1.0000 </r>
       <r>   -5.4993    1.0000 </r>
       <r>   -5.2981    1.0000 </r>
       <r>   -5.1475    1.0000 </r>
       <r>   -5.1192    1.0000 </r>
       <r>   -4.9062    1.0000 </r>
       <r>   -4.8084    1.0000 </r>
       <r>   -4.6845    1.0000 </r>
       <r>   -4.5593    1.0000 </r>
       <r>   -4.4858    1.0000 </r>
       <r>   -4.3157    1.0000 </r>
       <r>   -4.1728    1.0000 </r>
       <r>   -3.9228    1.0000 </r>
       <r>   -3.7571    0.9998 </r>
       <r>   -3.6733    0.9982 </r>
       <r>   -3.5755    0.9867 </r>
       <r>   -3.3865    0.8109 </r>
       <r>   -3.3077    0.6268 </r>
       <r>   -3.0026    0.0334 </r>
       <r>   -2.7747    0.0003 </r>
       <r>   -2.6979    0.0000 </r>
       <r>   -2.6322    0.0000 </r>
       <r>   -2.5616    0.0000 </r>
       <r>   -2.4178    0.0000 </r>
       <r>   -2.2905    0.0000 </r>
       <r>   -2.1831    0.0000 </r>
       <r>   -2.0661    0.0000 </r>
       <r>   -1.9717    0.0000 </r>
       <r>   -1.8670    0.0000 </r>
       <r>   -1.5280    0.0000 </r>
       <r>   -1.4669    0.0000 </r>
       <r>   -1.3255    0.0000 </r>
       <r>   -1.1764    0.0000 </r>
       <r>   -1.1283    0.0000 </r>
       <r>   -1.0101    0.0000 </r>
       <r>   -0.9585    0.0000 </r>
       <r>   -0.9335    0.0000 </r>
       <r>   -0.8514    0.0000 </r>
       <r>   -0.8099    0.0000 </r>
       <r>   -0.7157    0.0000 </r>
       <r>   -0.6069    0.0000 </r>
       <r>   -0.5134    0.0000 </r>
       <r>   -0.4051    0.0000 </r>
       <r>   -0.3012    0.0000 </r>
       <r>   -0.2030    0.0000 </r>
       <r>   -0.0761    0.0000 </r>
       <r>   -0.0153    0.0000 </r>
       <r>    0.2387    0.0000 </r>
       <r>    0.4721    0.0000 </r>
       <r>    0.5941    0.0000 </r>
       <r>    0.7696    0.0000 </r>
       <r>    0.9833    0.0000 </r>
       <r>    1.1679    0.0000 </r>
       <r>    1.2571    0.0000 </r>
       <r>    1.4324    0.0000 </r>
       <r>    2.1426    0.0000 </r>
       <r>    2.2874    0.0000 </r>
       <r>    2.3902    0.0000 </r>
      </set>
      <set comment="kpoint 34">
       <r>  -17.5810    1.0000 </r>
       <r>  -17.2036    1.0000 </r>
       <r>  -16.7635    1.0000 </r>
       <r>  -16.6692    1.0000 </r>
       <r>  -16.5577    1.0000 </r>
       <r>  -16.4110    1.0000 </r>
       <r>  -16.3544    1.0000 </r>
       <r>  -16.1087    1.0000 </r>
       <r>  -16.0375    1.0000 </r>
       <r>  -15.9818    1.0000 </r>
       <r>  -15.9436    1.0000 </r>
       <r>  -15.8326    1.0000 </r>
       <r>  -15.7967    1.0000 </r>
       <r>  -15.7032    1.0000 </r>
       <r>  -15.6002    1.0000 </r>
       <r>  -15.5377    1.0000 </r>
       <r>  -15.4641    1.0000 </r>
       <r>  -15.3493    1.0000 </r>
       <r>   -9.7877    1.0000 </r>
       <r>   -9.3352    1.0000 </r>
       <r>   -9.1436    1.0000 </r>
       <r>   -9.0636    1.0000 </r>
       <r>   -8.9756    1.0000 </r>
       <r>   -8.9385    1.0000 </r>
       <r>   -8.5702    1.0000 </r>
       <r>   -8.4105    1.0000 </r>
       <r>   -8.3752    1.0000 </r>
       <r>   -8.3266    1.0000 </r>
       <r>   -8.2500    1.0000 </r>
       <r>   -8.1829    1.0000 </r>
       <r>   -8.1068    1.0000 </r>
       <r>   -8.0066    1.0000 </r>
       <r>   -7.9119    1.0000 </r>
       <r>   -7.8552    1.0000 </r>
       <r>   -7.8001    1.0000 </r>
       <r>   -7.6695    1.0000 </r>
       <r>   -7.5586    1.0000 </r>
       <r>   -7.4997    1.0000 </r>
       <r>   -7.3129    1.0000 </r>
       <r>   -7.2259    1.0000 </r>
       <r>   -7.1476    1.0000 </r>
       <r>   -7.0622    1.0000 </r>
       <r>   -6.9548    1.0000 </r>
       <r>   -6.8988    1.0000 </r>
       <r>   -6.7705    1.0000 </r>
       <r>   -6.7133    1.0000 </r>
       <r>   -6.6599    1.0000 </r>
       <r>   -6.5605    1.0000 </r>
       <r>   -6.5040    1.0000 </r>
       <r>   -6.4501    1.0000 </r>
       <r>   -6.4253    1.0000 </r>
       <r>   -6.3828    1.0000 </r>
       <r>   -6.2625    1.0000 </r>
       <r>   -6.1945    1.0000 </r>
       <r>   -6.1333    1.0000 </r>
       <r>   -6.0166    1.0000 </r>
       <r>   -5.9689    1.0000 </r>
       <r>   -5.8970    1.0000 </r>
       <r>   -5.7852    1.0000 </r>
       <r>   -5.7816    1.0000 </r>
       <r>   -5.7234    1.0000 </r>
       <r>   -5.6970    1.0000 </r>
       <r>   -5.6151    1.0000 </r>
       <r>   -5.4973    1.0000 </r>
       <r>   -5.4891    1.0000 </r>
       <r>   -5.0440    1.0000 </r>
       <r>   -4.9784    1.0000 </r>
       <r>   -4.9074    1.0000 </r>
       <r>   -4.8371    1.0000 </r>
       <r>   -4.6513    1.0000 </r>
       <r>   -4.5417    1.0000 </r>
       <r>   -4.4309    1.0000 </r>
       <r>   -4.3739    1.0000 </r>
       <r>   -4.1417    1.0000 </r>
       <r>   -3.9403    1.0000 </r>
       <r>   -3.7618    0.9998 </r>
       <r>   -3.7054    0.9991 </r>
       <r>   -3.5867    0.9892 </r>
       <r>   -3.3554    0.7457 </r>
       <r>   -3.3018    0.6110 </r>
       <r>   -3.0530    0.0699 </r>
       <r>   -2.7496    0.0001 </r>
       <r>   -2.7066    0.0000 </r>
       <r>   -2.6270    0.0000 </r>
       <r>   -2.5780    0.0000 </r>
       <r>   -2.4244    0.0000 </r>
       <r>   -2.2840    0.0000 </r>
       <r>   -2.1825    0.0000 </r>
       <r>   -2.0389    0.0000 </r>
       <r>   -1.9762    0.0000 </r>
       <r>   -1.8537    0.0000 </r>
       <r>   -1.5142    0.0000 </r>
       <r>   -1.4604    0.0000 </r>
       <r>   -1.3316    0.0000 </r>
       <r>   -1.1796    0.0000 </r>
       <r>   -1.1302    0.0000 </r>
       <r>   -0.9992    0.0000 </r>
       <r>   -0.9837    0.0000 </r>
       <r>   -0.9336    0.0000 </r>
       <r>   -0.8522    0.0000 </r>
       <r>   -0.7922    0.0000 </r>
       <r>   -0.6985    0.0000 </r>
       <r>   -0.6445    0.0000 </r>
       <r>   -0.5316    0.0000 </r>
       <r>   -0.4185    0.0000 </r>
       <r>   -0.3717    0.0000 </r>
       <r>   -0.1993    0.0000 </r>
       <r>   -0.0759    0.0000 </r>
       <r>    0.0392    0.0000 </r>
       <r>    0.3004    0.0000 </r>
       <r>    0.4355    0.0000 </r>
       <r>    0.6312    0.0000 </r>
       <r>    0.7481    0.0000 </r>
       <r>    1.0043    0.0000 </r>
       <r>    1.1666    0.0000 </r>
       <r>    1.2579    0.0000 </r>
       <r>    1.4278    0.0000 </r>
       <r>    2.2175    0.0000 </r>
       <r>    2.2499    0.0000 </r>
       <r>    2.3560    0.0000 </r>
      </set>
     </set>
    </set>
   </array>
  </eigenvalues>
  <separator name="orbital magnetization" >
   <v name="MAGDIPOLOUT">      0.00000000      0.00000000      0.00000000</v>
  </separator>
 </calculation>
 <structure name="finalpos" >
  <crystal>
   <varray name="basis" >
    <v>       8.36764261       4.86460447       0.00000000 </v>
    <v>      -8.30430341       4.75500554       0.00000000 </v>
    <v>       0.00000000       0.00000000      30.00000000 </v>
   </varray>
   <i name="volume">   2405.56015555 </i>
   <varray name="rec_basis" >
    <v>       0.05930019       0.10356386       0.00000000 </v>
    <v>      -0.06066701       0.10435377       0.00000000 </v>
    <v>       0.00000000       0.00000000       0.03333333 </v>
   </varray>
  </crystal>
  <varray name="positions" >
   <v>       0.64360536       0.33378661       0.00083027 </v>
   <v>      -0.02403319      -0.01493852       0.00017010 </v>
   <v>       0.03075696       0.68336251      -0.00175467 </v>
   <v>       0.36203936       0.34108786      -0.00059343 </v>
   <v>       0.64235220       0.66542374       0.00050720 </v>
   <v>       0.34771346       0.01921143       0.00066382 </v>
   <v>       0.96903050       0.30951395       0.00031204 </v>
   <v>       0.36168804       0.68063320      -0.00022624 </v>
   <v>       0.66281587      -0.01676581       0.00017240 </v>
   <v>       0.10893023       0.21438075       0.95288360 </v>
   <v>       0.21517111       0.11089042       0.04866407 </v>
   <v>       0.11444777       0.55339249       0.95143757 </v>
   <v>       0.21921469       0.44299856       0.04682520 </v>
   <v>       0.11049186       0.89221718       0.95038775 </v>
   <v>       0.22659709       0.78101311       0.05083992 </v>
   <v>       0.45342576       0.22897892       0.94499606 </v>
   <v>       0.56402741       0.11991295       0.05124089 </v>
   <v>       0.44051539       0.55295024       0.94441849 </v>
   <v>       0.56067395       0.44672971       0.05492210 </v>
   <v>       0.44583052       0.89066029       0.94643114 </v>
   <v>       0.55411989       0.77871169       0.05749195 </v>
   <v>       0.76527932       0.21960423       0.94922881 </v>
   <v>       0.88626126       0.10018252       0.05305435 </v>
   <v>       0.78268461       0.55830264       0.95501922 </v>
   <v>       0.88666866       0.44797223       0.04779707 </v>
   <v>       0.77713584       0.88498304       0.94673151 </v>
   <v>       0.89077054       0.77301853       0.04754870 </v>
  </varray>
 </structure>
</modeling>
