unknown system                          
           1
     8.853761    5.108854    0.000000
    -8.851316    5.104648    0.000000
     0.000000    0.000000   30.000000
   V    Mo   W    S 
   3   3   3  18
Direct configuration=     1
   0.66666669  0.33333334  0.00000000
   0.00000000  0.00000000  0.00000000
   0.00000000  0.66666669  0.00000000
   0.33333334  0.33333334  0.00000000
   0.66666669  0.66666669  0.00000000
   0.33333334  0.00000000  0.00000000
   1.00000000  0.33333334  0.00000000
   0.33333334  0.66666669  0.00000000
   0.66666669  0.00000000  0.00000000
   0.11068511  0.22244981  0.95539999
   0.22244981  0.11068511  0.04460000
   0.11068511  0.55578315  0.95539999
   0.22244981  0.44401845  0.04460000
   0.11068511  0.88911647  0.95539999
   0.22244981  0.77735180  0.04460000
   0.44401845  0.22244981  0.95539999
   0.55578315  0.11068511  0.04460000
   0.44401845  0.55578315  0.95539999
   0.55578315  0.44401845  0.04460000
   0.44401845  0.88911647  0.95539999
   0.55578315  0.77735180  0.04460000
   0.77735180  0.22244981  0.95539999
   0.88911647  0.11068511  0.04460000
   0.77735180  0.55578315  0.95539999
   0.88911647  0.44401845  0.04460000
   0.77735180  0.88911647  0.95539999
   0.88911647  0.77735180  0.04460000
unknown system                          
           1
     8.666134    5.002596    0.000000
    -8.663931    4.998807    0.000000
     0.000000    0.000000   30.000000
   V    Mo   W    S 
   3   3   3  18
Direct configuration=     2
   0.66466838  0.33381485  0.00014979
   0.00126561 -0.00039552 -0.00017204
  -0.00053374  0.66776919  0.00002627
   0.33469061  0.33313361 -0.00016858
   0.66566693  0.66531884 -0.00004294
   0.33320010  0.00141891  0.00001913
   1.00116597  0.33340483  0.00004874
   0.33469946  0.66668034  0.00004766
   0.66531350 -0.00139374  0.00015983
   0.10829885  0.21800105  0.95189180
   0.21766177  0.10878524  0.04805475
   0.10908454  0.55748733  0.95198953
   0.22169790  0.44492062  0.04922636
   0.10649420  0.88689471  0.95306661
   0.21812190  0.77502925  0.04800006
   0.44871506  0.22433098  0.95188938
   0.55826795  0.11518342  0.04810219
   0.44376808  0.55580683  0.95071389
   0.55802683  0.44191823  0.04805640
   0.44462003  0.88826777  0.95073295
   0.55500580  0.77821360  0.04933610
   0.77573252  0.22416309  0.95206242
   0.89069979  0.10903468  0.04798198
   0.77983520  0.55330859  0.95305088
   0.88696542  0.44598205  0.04694168
   0.78188155  0.89151752  0.95195076
   0.89320025  0.77961818  0.04688429
unknown system                          
           1
     8.483507    4.899505    0.000000
    -8.481853    4.896665    0.000000
     0.000000    0.000000   30.000000
   V    Mo   W    S 
   3   3   3  18
Direct configuration=     3
   0.66402187  0.33385305  0.00016049
   0.00169281 -0.00035323 -0.00018784
  -0.00061473  0.66803324  0.00007038
   0.33501523  0.33329766 -0.00018318
   0.66479727  0.66499123 -0.00008182
   0.33342779  0.00187641  0.00006006
   1.00172452  0.33350508  0.00004075
   0.33542406  0.66675240  0.00004875
   0.66458722 -0.00212901  0.00012159
   0.10811439  0.21800058  0.95188324
   0.21751386  0.10870095  0.04807908
   0.10916611  0.55739885  0.95206195
   0.22161578  0.44501172  0.04923297
   0.10639920  0.88684896  0.95304695
   0.21812468  0.77484465  0.04792088
   0.44887559  0.22443239  0.95179927
   0.55848397  0.11521191  0.04810679
   0.44361389  0.55590540  0.95061474
   0.55809988  0.44184104  0.04815727
   0.44472032  0.88816289  0.95073651
   0.55490089  0.77831896  0.04942413
   0.77582991  0.22409459  0.95220760
   0.89061668  0.10909137  0.04791208
   0.77987028  0.55327035  0.95309734
   0.88705971  0.44587367  0.04682223
   0.78186703  0.89171660  0.95201143
   0.89326623  0.77966273  0.04683624
unknown system                          
           1
     8.279396    4.786680    0.000000
    -8.273253    4.776065    0.000000
     0.000000    0.000000   30.000000
   V    Mo   W    S 
   3   3   3  18
Direct configuration=     4
   0.66147378  0.33362496  0.00012880
   0.00326212  0.00024794 -0.00016416
  -0.00066016  0.66876750  0.00022500
   0.33603438  0.33435018 -0.00016121
   0.66063480  0.66406431 -0.00018334
   0.33480305  0.00345176  0.00019849
   1.00407232  0.33400030 -0.00000543
   0.33868602  0.66714189  0.00005297
   0.66131598 -0.00548442 -0.00006623
   0.10762133  0.21688019  0.95033901
   0.21628536  0.10813008  0.04959967
   0.10885878  0.55793014  0.95086547
   0.22180548  0.44501669  0.05089688
   0.10546621  0.88629584  0.95162793
   0.21710010  0.77420376  0.04902981
   0.45028799  0.22516957  0.95000031
   0.55930612  0.11650152  0.04961418
   0.44340752  0.55581810  0.94856936
   0.55872797  0.44127174  0.04999416
   0.44454264  0.88812711  0.94910198
   0.55493219  0.77824952  0.05147985
   0.77548847  0.22458424  0.95133950
   0.89095289  0.10849710  0.04910209
   0.78034478  0.55275767  0.95197637
   0.88659667  0.44621988  0.04771557
   0.78287906  0.89230539  0.95078345
   0.89398861  0.78009151  0.04793943
unknown system                          
           1
     8.271784    4.788315    0.000000
    -8.258784    4.765826    0.000000
     0.000000    0.000000   30.000000
   V    Mo   W    S 
   3   3   3  18
Direct configuration=     5
   0.65675149  0.33319719 -0.00008506
   0.00687948  0.00237768  0.00003294
  -0.00087008  0.66975598  0.00041867
   0.33728158  0.33645402 -0.00004535
   0.65236171  0.66275440 -0.00022923
   0.33733231  0.00660415  0.00033296
   1.00943320  0.33545615 -0.00011539
   0.34545492  0.66767288  0.00004186
   0.65430845 -0.01307966 -0.00029067
   0.10809205  0.21558393  0.94817052
   0.21558238  0.10796327  0.05158584
   0.10917536  0.55893963  0.94943447
   0.22281912  0.44513668  0.05313955
   0.10509190  0.88605860  0.94965366
   0.21661546  0.77390401  0.05032668
   0.45149343  0.22605197  0.94758142
   0.56017381  0.11788008  0.05169466
   0.44302756  0.55502706  0.94550983
   0.55902837  0.44097660  0.05250769
   0.44347374  0.88790293  0.94685084
   0.55510438  0.77789682  0.05459747
   0.77507301  0.22484910  0.95065673
   0.89103724  0.10749933  0.05031284
   0.78018033  0.55252052  0.95051272
   0.88596585  0.44650360  0.04888985
   0.78364000  0.89212906  0.94922845
   0.89370738  0.78019847  0.04928596
unknown system                          
           1
     8.274696    4.790544    0.000000
    -8.261388    4.767519    0.000000
     0.000000    0.000000   30.000000
   V    Mo   W    S 
   3   3   3  18
Direct configuration=     6
   0.65490818  0.33336350 -0.00009039
   0.00932079  0.00392886  0.00006138
  -0.00152002  0.66967625  0.00052032
   0.33689627  0.33659064 -0.00010679
   0.65040056  0.66251645 -0.00019838
   0.33802534  0.00782267  0.00029985
   1.01270622  0.33700557 -0.00020154
   0.34691967  0.66725135 -0.00008259
   0.65151237 -0.01611627 -0.00022500
   0.10882542  0.21563422  0.94788177
   0.21635131  0.10844016  0.05183868
   0.11021329  0.55939721  0.94944139
   0.22358036  0.44559853  0.05353491
   0.10561654  0.88646602  0.94955180
   0.21763730  0.77417786  0.05015586
   0.45119574  0.22621646  0.94729569
   0.56031319  0.11768161  0.05183309
   0.44268191  0.55444350  0.94496124
   0.55873047  0.44136767  0.05277641
   0.44246497  0.88731832  0.94654096
   0.55502002  0.77771208  0.05529215
   0.77510612  0.22413012  0.95117290
   0.89053272  0.10729731  0.05003419
   0.77934611  0.55290980  0.95048287
   0.88591004  0.44614461  0.04875527
   0.78289287  0.89130483  0.94930618
   0.89262669  0.77993512  0.04916769
unknown system                          
           1
     8.267393    4.782663    0.000000
    -8.257202    4.765039    0.000000
     0.000000    0.000000   30.000000
   V    Mo   W    S 
   3   3   3  18
Direct configuration=     7
   0.65438220  0.33351438 -0.00008737
   0.01008377  0.00437767  0.00007129
  -0.00183745  0.66959080  0.00057347
   0.33671891  0.33651076 -0.00011312
   0.64993128  0.66236554 -0.00019508
   0.33822188  0.00821698  0.00029595
   1.01382049  0.33761453 -0.00021264
   0.34720641  0.66704431 -0.00008243
   0.65067259 -0.01696196 -0.00021739
   0.10897347  0.21565803  0.94782403
   0.21654508  0.10854638  0.05187052
   0.11044065  0.55950628  0.94945117
   0.22375156  0.44570336  0.05360156
   0.10573221  0.88655796  0.94957322
   0.21786019  0.77422722  0.05004152
   0.45114568  0.22626674  0.94726205
   0.56033605  0.11763153  0.05181636
   0.44262656  0.55430068  0.94488877
   0.55862734  0.44141363  0.05279733
   0.44224283  0.88717294  0.94652039
   0.55491363  0.77761620  0.05538869
   0.77517854  0.22396367  0.95139079
   0.89041852  0.10730401  0.04989220
   0.77916761  0.55297671  0.95051271
   0.88589916  0.44601105  0.04865949
   0.78273559  0.89116291  0.94938982
   0.89241972  0.77992214  0.04908661
unknown system                          
           1
     8.255625    4.779261    0.000000
    -8.241844    4.755420    0.000000
     0.000000    0.000000   30.000000
   V    Mo   W    S 
   3   3   3  18
Direct configuration=     8
   0.65513875  0.33269021 -0.00009332
   0.00776536  0.00307577  0.00008544
  -0.00071634  0.66971970  0.00041682
   0.33799205  0.33740779 -0.00005617
   0.65051458  0.66248221 -0.00018822
   0.33829193  0.00732757  0.00031888
   1.01063605  0.33589272 -0.00007171
   0.34700397  0.66787962 -0.00000828
   0.65257196 -0.01499477 -0.00024301
   0.10888438  0.21568905  0.94788887
   0.21635888  0.10857663  0.05184358
   0.11017066  0.55936010  0.94937154
   0.22333929  0.44550618  0.05339179
   0.10564568  0.88641801  0.94940025
   0.21758932  0.77418456  0.05042763
   0.45135450  0.22633820  0.94731449
   0.56032191  0.11782142  0.05193617
   0.44273241  0.55457061  0.94488906
   0.55885585  0.44134388  0.05273806
   0.44281598  0.88760628  0.94643279
   0.55514116  0.77788849  0.05529844
   0.77474670  0.22423058  0.95072083
   0.89052820  0.10708598  0.05039151
   0.77935988  0.55288644  0.95045919
   0.88577929  0.44634545  0.04894646
   0.78286623  0.89125227  0.94904901
   0.89252582  0.77962951  0.04933978
unknown system                          
           1
     8.269364    4.788406    0.000000
    -8.254773    4.763161    0.000000
     0.000000    0.000000   30.000000
   V    Mo   W    S 
   3   3   3  18
Direct configuration=     9
   0.65455636  0.33220484 -0.00012900
   0.00801949  0.00324205  0.00009839
  -0.00009151  0.67001940  0.00040257
   0.33828361  0.33796781 -0.00015323
   0.64951431  0.66259866 -0.00021264
   0.33854852  0.00722700  0.00031485
   1.01066050  0.33558665 -0.00016423
   0.34774092  0.66825637 -0.00011834
   0.65201086 -0.01569975 -0.00026563
   0.10915976  0.21583442  0.94800454
   0.21676667  0.10887147  0.05176186
   0.11063720  0.55935215  0.94947954
   0.22357167  0.44576667  0.05343174
   0.10593849  0.88670101  0.94945651
   0.21814348  0.77439657  0.05041370
   0.45117994  0.22643702  0.94722545
   0.56045098  0.11773002  0.05203651
   0.44254777  0.55451220  0.94471313
   0.55884161  0.44161260  0.05287919
   0.44263419  0.88744446  0.94634299
   0.55516658  0.77795691  0.05554534
   0.77462922  0.22383522  0.95082117
   0.89023892  0.10685588  0.05036894
   0.77894439  0.55312140  0.95057308
   0.88571372  0.44624888  0.04889513
   0.78236191  0.89083297  0.94907328
   0.89204489  0.77930156  0.04920507
unknown system                          
           1
     8.275471    4.793377    0.000000
    -8.259312    4.765416    0.000000
     0.000000    0.000000   30.000000
   V    Mo   W    S 
   3   3   3  18
Direct configuration=    10
   0.65350692  0.33294122 -0.00010322
   0.01023729  0.00449371  0.00011910
  -0.00118870  0.66981774  0.00056621
   0.33737689  0.33732779 -0.00013713
   0.64866078  0.66224926 -0.00018801
   0.33874601  0.00826438  0.00030110
   1.01386570  0.33737867 -0.00019369
   0.34815092  0.66746697 -0.00010451
   0.64993959 -0.01777700 -0.00021491
   0.10932964  0.21573829  0.94778493
   0.21698717  0.10891800  0.05188553
   0.11094769  0.55961078  0.94944829
   0.22395182  0.44593943  0.05365977
   0.10604892  0.88681652  0.94950133
   0.21841125  0.77441698  0.05011329
   0.45108402  0.22644564  0.94711167
   0.56047167  0.11762039  0.05197723
   0.44246162  0.55418911  0.94456966
   0.55859498  0.44162994  0.05294685
   0.44206713  0.88708608  0.94630662
   0.55488622  0.77766433  0.05572392
   0.77496038  0.22359169  0.95139337
   0.89011223  0.10700125  0.04996213
   0.77873234  0.55319536  0.95057993
   0.88575660  0.44593387  0.04865771
   0.78227206  0.89072178  0.94930129
   0.89184329  0.77953227  0.04903145
unknown system                          
           1
     8.271232    4.788795    0.000000
    -8.257164    4.764459    0.000000
     0.000000    0.000000   30.000000
   V    Mo   W    S 
   3   3   3  18
Direct configuration=    11
   0.65239542  0.33318895 -0.00009219
   0.01183148  0.00538084  0.00015325
  -0.00156513  0.66982584  0.00067445
   0.33707210  0.33726105 -0.00014392
   0.64749470  0.66188680 -0.00016777
   0.33908778  0.00895524  0.00028578
   1.01607108  0.33849249 -0.00020955
   0.34875152  0.66709440 -0.00011898
   0.64825478 -0.01944916 -0.00017417
   0.10955352  0.21569327  0.94763432
   0.21731188  0.10910255  0.05195942
   0.11132155  0.55979324  0.94943299
   0.22427697  0.44615442  0.05382683
   0.10623471  0.88698898  0.94951254
   0.21879402  0.77450025  0.04994199
   0.45100617  0.22651571  0.94698651
   0.56055314  0.11754749  0.05199374
   0.44231895  0.55394421  0.94436128
   0.55842693  0.44172126  0.05304536
   0.44163955  0.88681025  0.94620744
   0.55468030  0.77750019  0.05596415
   0.77509613  0.22328879  0.95179729
   0.88990757  0.10697751  0.04970328
   0.77843525  0.55331499  0.95063984
   0.88572135  0.44568194  0.04847709
   0.78203538  0.89049988  0.94943693
   0.89150735  0.77954308  0.04887200
unknown system                          
           1
     8.261935    4.781358    0.000000
    -8.250095    4.760886    0.000000
     0.000000    0.000000   30.000000
   V    Mo   W    S 
   3   3   3  18
Direct configuration=    12
   0.65331798  0.33298387 -0.00009294
   0.01038078  0.00459165  0.00013999
  -0.00148280  0.66962807  0.00057883
   0.33730493  0.33728055 -0.00010695
   0.64855731  0.66224845 -0.00017114
   0.33896307  0.00849840  0.00029880
   1.01437502  0.33775948 -0.00015265
   0.34830462  0.66742320 -0.00007672
   0.64952069 -0.01822618 -0.00020322
   0.10937185  0.21574214  0.94773069
   0.21701539  0.10893715  0.05190913
   0.11101804  0.55968978  0.94942892
   0.22395327  0.44594405  0.05366809
   0.10608388  0.88681281  0.94949405
   0.21845338  0.77440622  0.05008995
   0.45111751  0.22647671  0.94710317
   0.56049936  0.11763574  0.05196827
   0.44248267  0.55416284  0.94454323
   0.55856107  0.44160960  0.05292443
   0.44200586  0.88706882  0.94628940
   0.55487192  0.77765375  0.05574474
   0.77494823  0.22353222  0.95141689
   0.89008240  0.10702275  0.04994501
   0.77870892  0.55320143  0.95056084
   0.88573498  0.44591681  0.04865448
   0.78227833  0.89070736  0.94927867
   0.89178580  0.77950679  0.04903594
unknown system                          
           1
     8.258294    4.777598    0.000000
    -8.248484    4.760647    0.000000
     0.000000    0.000000   30.000000
   V    Mo   W    S 
   3   3   3  18
Direct configuration=    13
   0.65511044  0.33231925 -0.00015503
   0.00657646  0.00271477  0.00010275
  -0.00196791  0.66842349  0.00031255
   0.33808524  0.33755285 -0.00010431
   0.65073913  0.66311767 -0.00025972
   0.33948816  0.00806848  0.00034619
   1.01075427  0.33639307 -0.00014618
   0.34756516  0.66819605 -0.00005449
   0.65224895 -0.01578529 -0.00035840
   0.10909807  0.21601887  0.94803308
   0.21652814  0.10873563  0.05179431
   0.11067367  0.55961469  0.94944574
   0.22353175  0.44569006  0.05343557
   0.10583959  0.88645010  0.94950820
   0.21786111  0.77419465  0.05038357
   0.45146340  0.22668689  0.94734737
   0.56067381  0.11798729  0.05196238
   0.44279208  0.55458034  0.94492673
   0.55886679  0.44133179  0.05267916
   0.44261288  0.88743480  0.94638278
   0.55534790  0.77798908  0.05548195
   0.77453326  0.22384448  0.95064338
   0.89026303  0.10712155  0.05051155
   0.77910338  0.55289344  0.95037141
   0.88556168  0.44635482  0.04911791
   0.78261228  0.89106334  0.94884798
   0.89225175  0.77922229  0.04944344
unknown system                          
           1
     8.253227    4.776043    0.000000
    -8.241705    4.756131    0.000000
     0.000000    0.000000   30.000000
   V    Mo   W    S 
   3   3   3  18
Direct configuration=    14
   0.65668171  0.33178760 -0.00014294
   0.00353619  0.00109415  0.00014677
  -0.00234617  0.66760243  0.00018543
   0.33852764  0.33776689  0.00001578
   0.65248575  0.66432381 -0.00021107
   0.33968428  0.00751374  0.00042786
   1.00784509  0.33516824 -0.00004204
   0.34728162  0.66893296  0.00010569
   0.65435109 -0.01419867 -0.00034885
   0.10888964  0.21611820  0.94826231
   0.21618800  0.10854927  0.05158746
   0.11054819  0.55960638  0.94945016
   0.22317387  0.44555098  0.05319301
   0.10575784  0.88636143  0.94962077
   0.21754164  0.77417545  0.05050850
   0.45155775  0.22672633  0.94739280
   0.56089393  0.11811355  0.05198592
   0.44303442  0.55493062  0.94504184
   0.55913579  0.44134987  0.05252143
   0.44300376  0.88775584  0.94636603
   0.55570868  0.77826131  0.05526079
   0.77433803  0.22394096  0.95005949
   0.89031871  0.10717661  0.05086196
   0.77928480  0.55281062  0.95019985
   0.88549119  0.44664778  0.04943612
   0.78277123  0.89120802  0.94845824
   0.89252979  0.77894007  0.04965657
unknown system                          
           1
     8.261662    4.782576    0.000000
    -8.248579    4.759958    0.000000
     0.000000    0.000000   30.000000
   V    Mo   W    S 
   3   3   3  18
Direct configuration=    15
   0.65651617  0.33162213 -0.00018782
   0.00287744  0.00072016  0.00014842
  -0.00317921  0.66705139  0.00018278
   0.33889032  0.33812270 -0.00006009
   0.65206468  0.66501010 -0.00029312
   0.34041316  0.00811658  0.00036546
   1.00789416  0.33522180 -0.00015692
   0.34820215  0.66902375 -0.00002217
   0.65397549 -0.01503334 -0.00035723
   0.10887909  0.21598844  0.94842060
   0.21634632  0.10859448  0.05144751
   0.11102187  0.55966845  0.94960314
   0.22329861  0.44583233  0.05325786
   0.10596907  0.88669937  0.94989415
   0.21789444  0.77436610  0.05028402
   0.45141821  0.22670021  0.94733459
   0.56126080  0.11796420  0.05202286
   0.44308573  0.55506869  0.94499100
   0.55931881  0.44178207  0.05256022
   0.44288671  0.88761518  0.94635708
   0.55576211  0.77828933  0.05554997
   0.77453507  0.22352591  0.95029975
   0.88998572  0.10713337  0.05072526
   0.77884827  0.55297494  0.95025588
   0.88540342  0.44637398  0.04940582
   0.78243233  0.89097562  0.94838228
   0.89221350  0.77880651  0.04958860
unknown system                          
           1
     8.264783    4.784216    0.000000
    -8.251420    4.761117    0.000000
     0.000000    0.000000   30.000000
   V    Mo   W    S 
   3   3   3  18
Direct configuration=    16
   0.65534199  0.33210695 -0.00014025
   0.00517079  0.00192791  0.00017744
  -0.00332233  0.66743828  0.00034814
   0.33827240  0.33781100 -0.00003496
   0.65088751  0.66443619 -0.00021964
   0.34034275  0.00871389  0.00037717
   1.01057790  0.33645592 -0.00015800
   0.34854653  0.66841517  0.00001920
   0.65216101 -0.01669131 -0.00027343
   0.10909959  0.21588957  0.94819535
   0.21664419  0.10874599  0.05156065
   0.11123062  0.55981713  0.94955249
   0.22363412  0.44596899  0.05342774
   0.10606630  0.88680188  0.94984141
   0.21818802  0.77441622  0.05008848
   0.45131308  0.22670387  0.94717870
   0.56117518  0.11784278  0.05201320
   0.44289163  0.55470864  0.94474453
   0.55908207  0.44182379  0.05268168
   0.44245383  0.88734639  0.94627425
   0.55544620  0.77804455  0.05570265
   0.77473318  0.22334059  0.95076429
   0.88989997  0.10713534  0.05040225
   0.77865807  0.55308500  0.95031354
   0.88546263  0.44612682  0.04915612
   0.78227900  0.89082432  0.94861479
   0.89197822  0.77897857  0.04939213
unknown system                          
           1
     8.269399    4.784063    0.000000
    -8.256974    4.762614    0.000000
     0.000000    0.000000   30.000000
   V    Mo   W    S 
   3   3   3  18
Direct configuration=    17
   0.65543646  0.33191189 -0.00011292
   0.00425571  0.00140969  0.00021868
  -0.00387158  0.66698471  0.00034927
   0.33852877  0.33805867  0.00002995
   0.65096539  0.66504167 -0.00017523
   0.34086960  0.00907247  0.00041083
   1.01032771  0.33638461 -0.00013273
   0.34900341  0.66854866  0.00009428
   0.65221209 -0.01699605 -0.00021463
   0.10910924  0.21579667  0.94824568
   0.21668689  0.10878764  0.05146134
   0.11143219  0.55991571  0.94958192
   0.22362982  0.44605833  0.05338782
   0.10612675  0.88689406  0.94993862
   0.21829007  0.77447506  0.04998728
   0.45131132  0.22674182  0.94709635
   0.56137048  0.11779566  0.05204429
   0.44294132  0.55475061  0.94462646
   0.55920688  0.44203800  0.05265694
   0.44247570  0.88737027  0.94620109
   0.55546343  0.77808740  0.05579775
   0.77473574  0.22312778  0.95072982
   0.88976371  0.10710162  0.05042926
   0.77850146  0.55316332  0.95027490
   0.88539663  0.44605592  0.04920747
   0.78218030  0.89077652  0.94844334
   0.89186498  0.77886176  0.04942209
unknown system                          
           1
     8.260038    4.780214    0.000000
    -8.247228    4.758093    0.000000
     0.000000    0.000000   30.000000
   V    Mo   W    S 
   3   3   3  18
Direct configuration=    18
   0.65789004  0.33012315 -0.00015438
  -0.00424804 -0.00344087  0.00025601
  -0.00583468  0.66446377 -0.00002407
   0.34130048  0.33987536  0.00008108
   0.65363256  0.66842659 -0.00027449
   0.34333760  0.00957366  0.00045252
   1.00395499  0.33369135 -0.00017212
   0.35003179  0.67022999  0.00012730
   0.65600407 -0.01473622 -0.00027673
   0.10875911  0.21567565  0.94897985
   0.21633617  0.10873892  0.05085883
   0.11175818  0.55995321  0.94990776
   0.22297791  0.44610981  0.05292707
   0.10610773  0.88692016  0.95043314
   0.21808214  0.77452728  0.04994353
   0.45170577  0.22701920  0.94721232
   0.56227861  0.11797333  0.05217285
   0.44351768  0.55567486  0.94477588
   0.56025147  0.44275423  0.05231820
   0.44355376  0.88794236  0.94622456
   0.55604114  0.77869860  0.05590766
   0.77420871  0.22270019  0.94977635
   0.88945241  0.10691089  0.05120356
   0.77826431  0.55316946  0.95015649
   0.88497401  0.44625484  0.04982781
   0.78198191  0.89092381  0.94743207
   0.89189462  0.77806088  0.04992687
unknown system                          
           1
     8.266403    4.784779    0.000000
    -8.252968    4.761575    0.000000
     0.000000    0.000000   30.000000
   V    Mo   W    S 
   3   3   3  18
Direct configuration=    19
   0.65648388  0.33030521 -0.00012700
  -0.00338981 -0.00316134  0.00023857
  -0.00685553  0.66449721  0.00006597
   0.34160836  0.34005920  0.00005890
   0.65250957  0.66836358 -0.00027806
   0.34415938  0.01106422  0.00045465
   1.00633960  0.33477396 -0.00026905
   0.35098993  0.66953315  0.00009151
   0.65417811 -0.01671886 -0.00021782
   0.10894530  0.21550559  0.94900191
   0.21654280  0.10889042  0.05075999
   0.11207019  0.56007140  0.95003482
   0.22327142  0.44623107  0.05298009
   0.10619962  0.88705926  0.95058034
   0.21845531  0.77458502  0.04955065
   0.45180497  0.22717021  0.94710754
   0.56239551  0.11788756  0.05213790
   0.44349435  0.55549656  0.94466014
   0.56023313  0.44302477  0.05234269
   0.44324968  0.88766983  0.94626809
   0.55568117  0.77849120  0.05608378
   0.77436492  0.22241615  0.95034114
   0.88936615  0.10691524  0.05084382
   0.77785992  0.55318322  0.95029372
   0.88496363  0.44582182  0.04956598
   0.78174761  0.89086449  0.94765807
   0.89154526  0.77821430  0.04977155
unknown system                          
           1
     8.275049    4.792627    0.000000
    -8.259804    4.766281    0.000000
     0.000000    0.000000   30.000000
   V    Mo   W    S 
   3   3   3  18
Direct configuration=    20
   0.65606141  0.33041680 -0.00010905
  -0.00305265 -0.00304426  0.00023951
  -0.00721881  0.66447448  0.00011149
   0.34155557  0.34000770  0.00004977
   0.65233274  0.66831201 -0.00026461
   0.34432477  0.01151530  0.00045340
   1.00726888  0.33524695 -0.00029356
   0.35105565  0.66921035  0.00008884
   0.65366292 -0.01724038 -0.00019950
   0.10904397  0.21545682  0.94895352
   0.21660457  0.10894648  0.05077831
   0.11214711  0.56016753  0.95002807
   0.22339176  0.44624417  0.05305148
   0.10622014  0.88706971  0.95058021
   0.21852669  0.77459367  0.04945230
   0.45183570  0.22722035  0.94703481
   0.56243506  0.11789925  0.05215825
   0.44349078  0.55539605  0.94457598
   0.56022369  0.44307843  0.05239365
   0.44310422  0.88757633  0.94625344
   0.55558135  0.77840255  0.05616642
   0.77439209  0.22234482  0.95048815
   0.88934687  0.10691607  0.05076416
   0.77776349  0.55317563  0.95028363
   0.88495432  0.44572584  0.04951111
   0.78169983  0.89084577  0.94768973
   0.89146231  0.77825602  0.04976039
unknown system                          
           1
     8.275727    4.789259    0.000000
    -8.261776    4.765168    0.000000
     0.000000    0.000000   30.000000
   V    Mo   W    S 
   3   3   3  18
Direct configuration=    21
   0.65450362  0.33084629 -0.00006248
  -0.00199343 -0.00266607  0.00023431
  -0.00882341  0.66415491  0.00027008
   0.34129922  0.33979655 -0.00001304
   0.65173007  0.66824077 -0.00026305
   0.34507087  0.01334866  0.00043291
   1.01086541  0.33712097 -0.00041422
   0.35137597  0.66798718  0.00004755
   0.65175517 -0.01929060 -0.00017628
   0.10937635  0.21532419  0.94883048
   0.21685314  0.10913216  0.05081790
   0.11245435  0.56050320  0.95005396
   0.22382032  0.44629766  0.05330373
   0.10630749  0.88712387  0.95064690
   0.21882552  0.77465852  0.04902941
   0.45193977  0.22740176  0.94683647
   0.56256825  0.11790421  0.05217733
   0.44352939  0.55510804  0.94436666
   0.56015576  0.44324488  0.05253360
   0.44261760  0.88722020  0.94629693
   0.55520862  0.77807412  0.05641708
   0.77458142  0.22206679  0.95110687
   0.88924596  0.10696998  0.05042536
   0.77740102  0.55315164  0.95027318
   0.88493933  0.44534282  0.04927986
   0.78144113  0.89074892  0.94784947
   0.89116554  0.77840283  0.04969891
unknown system                          
           1
     8.263161    4.781667    0.000000
    -8.248970    4.757163    0.000000
     0.000000    0.000000   30.000000
   V    Mo   W    S 
   3   3   3  18
Direct configuration=    22
   0.65626178  0.33019498 -0.00011741
  -0.00320044 -0.00306963  0.00023519
  -0.00664881  0.66480266  0.00006760
   0.34181680  0.34024161  0.00004092
   0.65216907  0.66836793 -0.00026149
   0.34427823  0.01112473  0.00043632
   1.00644033  0.33469280 -0.00027988
   0.35121273  0.66955549  0.00004596
   0.65384061 -0.01703507 -0.00020740
   0.10901387  0.21537869  0.94898370
   0.21656410  0.10895240  0.05076183
   0.11217132  0.56009570  0.95004073
   0.22331882  0.44627538  0.05300417
   0.10623561  0.88713846  0.95055114
   0.21857149  0.77457831  0.04955921
   0.45184036  0.22720680  0.94703262
   0.56247238  0.11792390  0.05222003
   0.44342505  0.55540047  0.94452817
   0.56032874  0.44317051  0.05241305
   0.44318903  0.88762800  0.94618945
   0.55562994  0.77848129  0.05625597
   0.77419497  0.22227003  0.95035428
   0.88935057  0.10678136  0.05085174
   0.77768155  0.55319781  0.95031887
   0.88489901  0.44574707  0.04956201
   0.78173729  0.89085590  0.94765610
   0.89142005  0.77825688  0.04975703
unknown system                          
           1
     8.274838    4.791653    0.000000
    -8.259355    4.764900    0.000000
     0.000000    0.000000   30.000000
   V    Mo   W    S 
   3   3   3  18
Direct configuration=    23
   0.65628343  0.32992993 -0.00010123
  -0.00326502 -0.00313141  0.00025753
  -0.00605829  0.66525795  0.00004405
   0.34231935  0.34066270  0.00005695
   0.65158795  0.66836935 -0.00023690
   0.34438759  0.01084696  0.00046023
   1.00564786  0.33410945 -0.00026531
   0.35178063  0.67002164  0.00005519
   0.65372375 -0.01709134 -0.00015590
   0.10904088  0.21538406  0.94908623
   0.21670186  0.10905494  0.05063387
   0.11222196  0.55994303  0.95015650
   0.22326913  0.44633789  0.05282075
   0.10632177  0.88723255  0.95057700
   0.21873379  0.77456491  0.04954418
   0.45182838  0.22718584  0.94709876
   0.56242521  0.11782559  0.05218702
   0.44334887  0.55541027  0.94452722
   0.56038858  0.44330804  0.05234303
   0.44327952  0.88764634  0.94617909
   0.55552096  0.77851710  0.05623410
   0.77402644  0.22211124  0.95034510
   0.88929544  0.10664620  0.05082725
   0.77757117  0.55329485  0.95048079
   0.88491868  0.44574269  0.04948174
   0.78160608  0.89082132  0.94771109
   0.89130849  0.77821239  0.04965157
unknown system                          
           1
     8.281200    4.797133    0.000000
    -8.264688    4.768592    0.000000
     0.000000    0.000000   30.000000
   V    Mo   W    S 
   3   3   3  18
Direct configuration=    24
   0.65495206  0.33044636 -0.00006507
  -0.00232781 -0.00282679  0.00024830
  -0.00776150  0.66472155  0.00019655
   0.34189364  0.34027728  0.00000049
   0.65136371  0.66823767 -0.00024749
   0.34496772  0.01253792  0.00043889
   1.00903071  0.33598461 -0.00037445
   0.35176051  0.66877308  0.00003700
   0.65220685 -0.01869343 -0.00014544
   0.10932726  0.21531494  0.94892396
   0.21689796  0.10918733  0.05072933
   0.11244474  0.56031081  0.95012149
   0.22366510  0.44634854  0.05311337
   0.10636653  0.88720455  0.95061634
   0.21888233  0.77461631  0.04917875
   0.45192229  0.22734384  0.94690726
   0.56253000  0.11785246  0.05220655
   0.44342966  0.55516748  0.94435825
   0.56028289  0.44335937  0.05248866
   0.44280997  0.88733466  0.94621898