   27   27  100    1
  0.9710400E+02  0.1002848E-08  0.1002848E-08  0.3000000E-08  0.5000000E-15
  1.000000000000000E-004
  CAR 
 unknown system                          
    159     34    120
 
  0.0000000E+00  0.0000000E+00  0.0000000E+00  0.1562500E-01
    1      -17.855146   1.000000
    2      -16.806064   1.000000
    3      -16.704354   1.000000
    4      -16.694857   1.000000
    5      -16.528385   1.000000
    6      -16.493817   1.000000
    7      -16.465588   1.000000
    8      -16.218016   1.000000
    9      -16.136512   1.000000
   10      -16.085553   1.000000
   11      -16.068873   1.000000
   12      -15.966850   1.000000
   13      -15.873557   1.000000
   14      -15.715128   1.000000
   15      -15.579784   1.000000
   16      -15.361416   1.000000
   17      -15.336343   1.000000
   18      -15.169280   1.000000
   19       -9.632488   1.000000
   20       -9.065654   1.000000
   21       -9.022500   1.000000
   22       -8.857624   1.000000
   23       -8.768770   1.000000
   24       -8.677265   1.000000
   25       -8.611565   1.000000
   26       -8.602739   1.000000
   27       -8.542973   1.000000
   28       -8.515269   1.000000
   29       -8.426202   1.000000
   30       -8.419032   1.000000
   31       -8.184524   1.000000
   32       -8.094629   1.000000
   33       -8.007252   1.000000
   34       -7.965320   1.000000
   35       -7.804759   1.000000
   36       -7.757601   1.000000
   37       -7.689068   1.000000
   38       -7.611174   1.000000
   39       -7.501010   1.000000
   40       -7.452042   1.000000
   41       -7.327892   1.000000
   42       -7.258864   1.000000
   43       -7.092891   1.000000
   44       -6.885299   1.000000
   45       -6.857641   1.000000
   46       -6.814811   1.000000
   47       -6.741271   1.000000
   48       -6.647183   1.000000
   49       -6.551378   1.000000
   50       -6.455564   1.000000
   51       -6.403899   1.000000
   52       -6.330036   1.000000
   53       -6.285051   1.000000
   54       -6.266685   1.000000
   55       -6.235744   1.000000
   56       -6.161989   1.000000
   57       -6.038067   1.000000
   58       -6.033198   1.000000
   59       -5.815355   1.000000
   60       -5.535146   1.000000
   61       -5.385365   1.000000
   62       -5.299740   1.000000
   63       -5.240893   1.000000
   64       -5.197043   1.000000
   65       -5.065441   1.000000
   66       -5.008115   1.000000
   67       -4.964408   1.000000
   68       -4.820388   1.000000
   69       -4.788000   1.000000
   70       -4.667672   1.000000
   71       -4.632117   1.000000
   72       -4.585711   1.000000
   73       -4.520471   1.000000
   74       -4.416064   1.000000
   75       -4.058400   1.000000
   76       -3.967664   0.999996
   77       -3.834842   0.999787
   78       -3.562498   0.944920
   79       -3.472492   0.831732
   80       -3.433491   0.753408
   81       -3.182922   0.138621
   82       -2.980822   0.005942
   83       -2.910438   0.001292
   84       -2.759299   0.000022
   85       -2.582416   0.000000
   86       -2.458994   0.000000
   87       -2.392021   0.000000
   88       -2.344576   0.000000
   89       -2.331905   0.000000
   90       -2.219993   0.000000
   91       -1.762756   0.000000
   92       -1.662464   0.000000
   93       -1.257979   0.000000
   94       -1.187268   0.000000
   95       -1.026083   0.000000
   96       -0.990314   0.000000
   97       -0.924973   0.000000
   98       -0.812536   0.000000
   99       -0.804284   0.000000
  100       -0.688741   0.000000
  101       -0.589381   0.000000
  102       -0.484009   0.000000
  103       -0.471940   0.000000
  104       -0.336810   0.000000
  105       -0.160366   0.000000
  106       -0.105122   0.000000
  107       -0.063856   0.000000
  108        0.184949   0.000000
  109        0.201056   0.000000
  110        0.277601   0.000000
  111        0.302836   0.000000
  112        0.528484   0.000000
  113        0.556456   0.000000
  114        0.871529   0.000000
  115        0.947984   0.000000
  116        0.954386   0.000000
  117        1.014909   0.000000
  118        1.625227   0.000000
  119        1.832214   0.000000
  120        2.148887   0.000000
 
  0.1250000E+00  0.2775558E-16  0.0000000E+00  0.3125000E-01
    1      -17.832664   1.000000
    2      -16.822694   1.000000
    3      -16.799661   1.000000
    4      -16.690065   1.000000
    5      -16.551047   1.000000
    6      -16.478549   1.000000
    7      -16.432885   1.000000
    8      -16.253365   1.000000
    9      -16.136555   1.000000
   10      -16.055189   1.000000
   11      -15.999827   1.000000
   12      -15.949915   1.000000
   13      -15.860268   1.000000
   14      -15.710389   1.000000
   15      -15.587002   1.000000
   16      -15.374860   1.000000
   17      -15.341811   1.000000
   18      -15.172027   1.000000
   19       -9.629737   1.000000
   20       -9.186517   1.000000
   21       -9.105996   1.000000
   22       -8.928950   1.000000
   23       -8.803209   1.000000
   24       -8.712005   1.000000
   25       -8.656565   1.000000
   26       -8.570365   1.000000
   27       -8.534991   1.000000
   28       -8.498041   1.000000
   29       -8.396150   1.000000
   30       -8.276090   1.000000
   31       -8.136021   1.000000
   32       -8.049426   1.000000
   33       -7.975809   1.000000
   34       -7.890835   1.000000
   35       -7.822318   1.000000
   36       -7.724997   1.000000
   37       -7.626249   1.000000
   38       -7.571642   1.000000
   39       -7.529652   1.000000
   40       -7.463923   1.000000
   41       -7.300293   1.000000
   42       -7.230740   1.000000
   43       -7.153357   1.000000
   44       -6.938035   1.000000
   45       -6.883792   1.000000
   46       -6.783127   1.000000
   47       -6.722912   1.000000
   48       -6.674520   1.000000
   49       -6.521961   1.000000
   50       -6.427420   1.000000
   51       -6.417474   1.000000
   52       -6.382548   1.000000
   53       -6.304772   1.000000
   54       -6.265385   1.000000
   55       -6.221787   1.000000
   56       -6.126384   1.000000
   57       -6.043590   1.000000
   58       -5.996576   1.000000
   59       -5.782573   1.000000
   60       -5.517376   1.000000
   61       -5.410522   1.000000
   62       -5.397278   1.000000
   63       -5.310556   1.000000
   64       -5.232356   1.000000
   65       -5.081719   1.000000
   66       -5.011351   1.000000
   67       -4.929420   1.000000
   68       -4.859746   1.000000
   69       -4.782381   1.000000
   70       -4.706919   1.000000
   71       -4.649692   1.000000
   72       -4.577307   1.000000
   73       -4.462737   1.000000
   74       -4.294330   1.000000
   75       -4.058161   1.000000
   76       -3.920794   0.999982
   77       -3.854891   0.999876
   78       -3.675812   0.991774
   79       -3.599764   0.968627
   80       -3.395728   0.662112
   81       -3.084969   0.037606
   82       -2.975302   0.005315
   83       -2.860879   0.000384
   84       -2.747444   0.000016
   85       -2.581792   0.000000
   86       -2.443262   0.000000
   87       -2.376426   0.000000
   88       -2.341920   0.000000
   89       -2.316363   0.000000
   90       -2.198091   0.000000
   91       -1.766869   0.000000
   92       -1.658467   0.000000
   93       -1.261091   0.000000
   94       -1.196669   0.000000
   95       -1.024863   0.000000
   96       -0.994203   0.000000
   97       -0.924744   0.000000
   98       -0.828167   0.000000
   99       -0.811423   0.000000
  100       -0.740621   0.000000
  101       -0.630678   0.000000
  102       -0.560568   0.000000
  103       -0.512414   0.000000
  104       -0.378778   0.000000
  105       -0.228153   0.000000
  106       -0.120184   0.000000
  107       -0.076972   0.000000
  108        0.159617   0.000000
  109        0.194410   0.000000
  110        0.262833   0.000000
  111        0.322141   0.000000
  112        0.493473   0.000000
  113        0.572946   0.000000
  114        0.860760   0.000000
  115        0.971877   0.000000
  116        1.015764   0.000000
  117        1.077642   0.000000
  118        1.667640   0.000000
  119        1.872677   0.000000
  120        2.183197   0.000000
 
  0.2500000E+00  0.5551115E-16  0.0000000E+00  0.3125000E-01
    1      -17.768332   1.000000
    2      -17.001121   1.000000
    3      -16.793273   1.000000
    4      -16.728757   1.000000
    5      -16.594700   1.000000
    6      -16.480810   1.000000
    7      -16.399541   1.000000
    8      -16.214451   1.000000
    9      -16.136831   1.000000
   10      -16.015705   1.000000
   11      -15.963606   1.000000
   12      -15.891826   1.000000
   13      -15.795328   1.000000
   14      -15.696730   1.000000
   15      -15.600246   1.000000
   16      -15.405388   1.000000
   17      -15.354912   1.000000
   18      -15.181013   1.000000
   19       -9.666581   1.000000
   20       -9.374643   1.000000
   21       -9.235555   1.000000
   22       -9.048666   1.000000
   23       -8.890709   1.000000
   24       -8.757768   1.000000
   25       -8.607279   1.000000
   26       -8.569531   1.000000
   27       -8.494285   1.000000
   28       -8.410925   1.000000
   29       -8.331302   1.000000
   30       -8.209655   1.000000
   31       -8.111913   1.000000
   32       -8.015206   1.000000
   33       -7.932769   1.000000
   34       -7.844495   1.000000
   35       -7.722788   1.000000
   36       -7.662585   1.000000
   37       -7.581087   1.000000
   38       -7.542125   1.000000
   39       -7.483962   1.000000
   40       -7.345583   1.000000
   41       -7.298360   1.000000
   42       -7.217311   1.000000
   43       -7.097532   1.000000
   44       -7.014400   1.000000
   45       -6.871136   1.000000
   46       -6.791828   1.000000
   47       -6.712976   1.000000
   48       -6.674453   1.000000
   49       -6.537295   1.000000
   50       -6.460282   1.000000
   51       -6.398566   1.000000
   52       -6.382351   1.000000
   53       -6.331838   1.000000
   54       -6.247483   1.000000
   55       -6.161061   1.000000
   56       -6.106738   1.000000
   57       -5.972913   1.000000
   58       -5.942981   1.000000
   59       -5.757321   1.000000
   60       -5.667021   1.000000
   61       -5.601576   1.000000
   62       -5.467552   1.000000
   63       -5.404819   1.000000
   64       -5.308385   1.000000
   65       -5.179206   1.000000
   66       -4.981349   1.000000
   67       -4.923543   1.000000
   68       -4.858117   1.000000
   69       -4.748882   1.000000
   70       -4.731164   1.000000
   71       -4.611498   1.000000
   72       -4.524746   1.000000
   73       -4.321483   1.000000
   74       -4.276117   1.000000
   75       -4.100815   1.000000
   76       -3.942627   0.999991
   77       -3.866947   0.999912
   78       -3.798815   0.999459
   79       -3.645045   0.985414
   80       -3.379164   0.618333
   81       -2.986104   0.006601
   82       -2.950743   0.003183
   83       -2.782201   0.000044
   84       -2.691345   0.000003
   85       -2.575932   0.000000
   86       -2.433357   0.000000
   87       -2.376396   0.000000
   88       -2.289071   0.000000
   89       -2.267087   0.000000
   90       -2.127905   0.000000
   91       -1.767618   0.000000
   92       -1.653889   0.000000
   93       -1.289547   0.000000
   94       -1.216328   0.000000
   95       -1.054267   0.000000
   96       -0.996017   0.000000
   97       -0.940814   0.000000
   98       -0.915141   0.000000
   99       -0.851554   0.000000
  100       -0.814684   0.000000
  101       -0.713726   0.000000
  102       -0.672538   0.000000
  103       -0.587220   0.000000
  104       -0.472384   0.000000
  105       -0.321687   0.000000
  106       -0.203516   0.000000
  107       -0.085963   0.000000
  108        0.034069   0.000000
  109        0.067875   0.000000
  110        0.306098   0.000000
  111        0.350664   0.000000
  112        0.473584   0.000000
  113        0.566743   0.000000
  114        0.882684   0.000000
  115        1.038181   0.000000
  116        1.118451   0.000000
  117        1.222594   0.000000
  118        1.785901   0.000000
  119        1.988945   0.000000
  120        2.283688   0.000000
 
  0.3750000E+00  0.0000000E+00  0.0000000E+00  0.3125000E-01
    1      -17.676938   1.000000
    2      -17.177765   1.000000
    3      -16.783595   1.000000
    4      -16.762421   1.000000
    5      -16.632789   1.000000
    6      -16.492482   1.000000
    7      -16.386913   1.000000
    8      -16.165406   1.000000
    9      -16.101156   1.000000
   10      -16.006100   1.000000
   11      -15.910232   1.000000
   12      -15.884277   1.000000
   13      -15.759272   1.000000
   14      -15.661416   1.000000
   15      -15.610267   1.000000
   16      -15.422571   1.000000
   17      -15.367938   1.000000
   18      -15.194180   1.000000
   19       -9.785626   1.000000
   20       -9.422715   1.000000
   21       -9.333381   1.000000
   22       -9.121818   1.000000
   23       -8.970737   1.000000
   24       -8.779398   1.000000
   25       -8.577192   1.000000
   26       -8.514071   1.000000
   27       -8.412761   1.000000
   28       -8.330196   1.000000
   29       -8.304994   1.000000
   30       -8.236476   1.000000
   31       -8.127589   1.000000
   32       -8.020883   1.000000
   33       -7.944658   1.000000
   34       -7.879243   1.000000
   35       -7.740040   1.000000
   36       -7.685994   1.000000
   37       -7.556901   1.000000
   38       -7.453209   1.000000
   39       -7.339095   1.000000
   40       -7.265817   1.000000
   41       -7.226782   1.000000
   42       -7.135323   1.000000
   43       -7.047824   1.000000
   44       -6.933292   1.000000
   45       -6.849247   1.000000
   46       -6.809881   1.000000
   47       -6.699033   1.000000
   48       -6.644536   1.000000
   49       -6.539774   1.000000
   50       -6.470394   1.000000
   51       -6.399474   1.000000
   52       -6.350551   1.000000
   53       -6.339164   1.000000
   54       -6.182879   1.000000
   55       -6.114547   1.000000
   56       -6.055789   1.000000
   57       -5.968753   1.000000
   58       -5.924104   1.000000
   59       -5.877732   1.000000
   60       -5.784831   1.000000
   61       -5.739787   1.000000
   62       -5.584586   1.000000
   63       -5.522129   1.000000
   64       -5.354629   1.000000
   65       -5.195655   1.000000
   66       -4.991077   1.000000
   67       -4.901658   1.000000
   68       -4.841285   1.000000
   69       -4.758143   1.000000
   70       -4.729491   1.000000
   71       -4.601235   1.000000
   72       -4.549017   1.000000
   73       -4.426735   1.000000
   74       -4.197469   1.000000
   75       -4.062898   1.000000
   76       -4.009532   0.999999
   77       -3.868024   0.999914
   78       -3.773526   0.998998
   79       -3.576228   0.954920
   80       -3.399174   0.670972
   81       -2.948454   0.003030
   82       -2.912549   0.001357
   83       -2.741153   0.000013
   84       -2.629194   0.000000
   85       -2.545368   0.000000
   86       -2.443810   0.000000
   87       -2.363563   0.000000
   88       -2.243460   0.000000
   89       -2.202531   0.000000
   90       -2.033510   0.000000
   91       -1.757104   0.000000
   92       -1.649946   0.000000
   93       -1.378479   0.000000
   94       -1.228608   0.000000
   95       -1.102542   0.000000
   96       -1.047293   0.000000
   97       -0.985146   0.000000
   98       -0.961741   0.000000
   99       -0.925368   0.000000
  100       -0.878887   0.000000
  101       -0.773515   0.000000
  102       -0.736882   0.000000
  103       -0.619135   0.000000
  104       -0.543732   0.000000
  105       -0.340176   0.000000
  106       -0.308536   0.000000
  107       -0.135219   0.000000
  108       -0.111664   0.000000
  109       -0.031246   0.000000
  110        0.294666   0.000000
  111        0.387817   0.000000
  112        0.478525   0.000000
  113        0.549474   0.000000
  114        0.916658   0.000000
  115        1.089718   0.000000
  116        1.236713   0.000000
  117        1.335483   0.000000
  118        1.960478   0.000000
  119        2.168470   0.000000
  120        2.400651   0.000000
 
  0.5000000E+00  0.1110223E-15  0.0000000E+00  0.1562500E-01
    1      -17.618824   1.000000
    2      -17.266559   1.000000
    3      -16.779916   1.000000
    4      -16.773942   1.000000
    5      -16.647498   1.000000
    6      -16.497933   1.000000
    7      -16.382776   1.000000
    8      -16.164234   1.000000
    9      -16.050469   1.000000
   10      -16.007090   1.000000
   11      -15.906302   1.000000
   12      -15.881891   1.000000
   13      -15.714207   1.000000
   14      -15.702310   1.000000
   15      -15.594585   1.000000
   16      -15.424121   1.000000
   17      -15.370209   1.000000
   18      -15.201557   1.000000
   19       -9.845233   1.000000
   20       -9.430377   1.000000
   21       -9.361692   1.000000
   22       -9.144068   1.000000
   23       -8.994875   1.000000
   24       -8.787332   1.000000
   25       -8.571631   1.000000
   26       -8.489694   1.000000
   27       -8.388156   1.000000
   28       -8.327137   1.000000
   29       -8.269803   1.000000
   30       -8.181460   1.000000
   31       -8.120127   1.000000
   32       -8.030620   1.000000
   33       -7.999676   1.000000
   34       -7.948149   1.000000
   35       -7.769562   1.000000
   36       -7.728097   1.000000
   37       -7.522714   1.000000
   38       -7.397149   1.000000
   39       -7.332647   1.000000
   40       -7.255330   1.000000
   41       -7.126017   1.000000
   42       -7.055257   1.000000
   43       -7.009924   1.000000
   44       -6.929758   1.000000
   45       -6.850262   1.000000
   46       -6.722411   1.000000
   47       -6.665352   1.000000
   48       -6.612229   1.000000
   49       -6.559341   1.000000
   50       -6.520325   1.000000
   51       -6.436333   1.000000
   52       -6.367518   1.000000
   53       -6.305958   1.000000
   54       -6.217311   1.000000
   55       -6.133243   1.000000
   56       -6.049919   1.000000
   57       -5.955482   1.000000
   58       -5.909457   1.000000
   59       -5.865353   1.000000
   60       -5.839973   1.000000
   61       -5.742934   1.000000
   62       -5.577099   1.000000
   63       -5.529453   1.000000
   64       -5.350805   1.000000
   65       -5.303704   1.000000
   66       -5.104989   1.000000
   67       -4.901261   1.000000
   68       -4.870976   1.000000
   69       -4.765586   1.000000
   70       -4.715117   1.000000
   71       -4.594389   1.000000
   72       -4.536040   1.000000
   73       -4.417271   1.000000
   74       -4.184256   1.000000
   75       -4.104463   1.000000
   76       -3.984199   0.999998
   77       -3.834667   0.999786
   78       -3.755976   0.998489
   79       -3.544635   0.929376
   80       -3.416770   0.714649
   81       -2.929273   0.001988
   82       -2.906356   0.001174
   83       -2.728538   0.000009
   84       -2.613611   0.000000
   85       -2.525657   0.000000
   86       -2.440080   0.000000
   87       -2.355633   0.000000
   88       -2.227765   0.000000
   89       -2.171321   0.000000
   90       -1.989165   0.000000
   91       -1.751031   0.000000
   92       -1.643780   0.000000
   93       -1.439249   0.000000
   94       -1.226894   0.000000
   95       -1.128117   0.000000
   96       -1.069628   0.000000
   97       -1.023330   0.000000
   98       -0.999149   0.000000
   99       -0.943639   0.000000
  100       -0.907838   0.000000
  101       -0.781491   0.000000
  102       -0.730638   0.000000
  103       -0.649662   0.000000
  104       -0.567084   0.000000
  105       -0.371871   0.000000
  106       -0.298909   0.000000
  107       -0.215457   0.000000
  108       -0.136581   0.000000
  109       -0.067813   0.000000
  110        0.286722   0.000000
  111        0.396118   0.000000
  112        0.485184   0.000000
  113        0.544334   0.000000
  114        0.929560   0.000000
  115        1.107823   0.000000
  116        1.285711   0.000000
  117        1.376385   0.000000
  118        2.122428   0.000000
  119        2.259654   0.000000
  120        2.386444   0.000000
 
  0.0000000E+00  0.1250000E+00  0.0000000E+00  0.3125000E-01
    1      -17.830601   1.000000
    2      -16.858730   1.000000
    3      -16.801837   1.000000
    4      -16.626252   1.000000
    5      -16.581303   1.000000
    6      -16.463196   1.000000
    7      -16.411529   1.000000
    8      -16.286273   1.000000
    9      -16.165291   1.000000
   10      -16.062103   1.000000
   11      -15.990874   1.000000
   12      -15.932926   1.000000
   13      -15.856229   1.000000
   14      -15.701258   1.000000
   15      -15.586077   1.000000
   16      -15.375910   1.000000
   17      -15.341263   1.000000
   18      -15.176242   1.000000
   19       -9.622583   1.000000
   20       -9.223931   1.000000
   21       -9.103746   1.000000
   22       -8.934389   1.000000
   23       -8.767466   1.000000
   24       -8.742247   1.000000
   25       -8.626495   1.000000
   26       -8.578748   1.000000
   27       -8.534009   1.000000
   28       -8.416770   1.000000
   29       -8.390122   1.000000
   30       -8.296995   1.000000
   31       -8.249168   1.000000
   32       -8.033867   1.000000
   33       -7.968787   1.000000
   34       -7.879260   1.000000
   35       -7.796055   1.000000
   36       -7.752213   1.000000
   37       -7.718242   1.000000
   38       -7.498428   1.000000
   39       -7.444573   1.000000
   40       -7.383900   1.000000
   41       -7.357949   1.000000
   42       -7.343232   1.000000
   43       -7.096397   1.000000
   44       -6.934594   1.000000
   45       -6.848723   1.000000
   46       -6.837960   1.000000
   47       -6.755523   1.000000
   48       -6.660554   1.000000
   49       -6.566857   1.000000
   50       -6.449835   1.000000
   51       -6.416733   1.000000
   52       -6.354456   1.000000
   53       -6.269701   1.000000
   54       -6.260495   1.000000
   55       -6.183552   1.000000
   56       -6.151003   1.000000
   57       -6.057071   1.000000
   58       -5.949148   1.000000
   59       -5.775119   1.000000
   60       -5.527641   1.000000
   61       -5.426951   1.000000
   62       -5.362170   1.000000
   63       -5.309167   1.000000
   64       -5.200204   1.000000
   65       -5.184057   1.000000
   66       -4.973219   1.000000
   67       -4.966314   1.000000
   68       -4.871991   1.000000
   69       -4.795415   1.000000
   70       -4.674791   1.000000
   71       -4.594416   1.000000
   72       -4.549807   1.000000
   73       -4.476575   1.000000
   74       -4.369105   1.000000
   75       -4.037659   1.000000
   76       -3.886670   0.999950
   77       -3.880097   0.999939
   78       -3.683414   0.992906
   79       -3.602478   0.969958
   80       -3.324597   0.466234
   81       -3.140972   0.083307
   82       -3.017144   0.011949
   83       -2.872436   0.000515
   84       -2.727795   0.000008
   85       -2.593820   0.000000
   86       -2.434484   0.000000
   87       -2.393691   0.000000
   88       -2.331856   0.000000
   89       -2.315016   0.000000
   90       -2.180482   0.000000
   91       -1.779973   0.000000
   92       -1.654295   0.000000
   93       -1.271632   0.000000
   94       -1.175600   0.000000
   95       -1.037453   0.000000
   96       -0.991033   0.000000
   97       -0.924741   0.000000
   98       -0.812995   0.000000
   99       -0.785390   0.000000
  100       -0.727214   0.000000
  101       -0.604823   0.000000
  102       -0.555671   0.000000
  103       -0.498688   0.000000
  104       -0.354749   0.000000
  105       -0.266582   0.000000
  106       -0.177770   0.000000
  107       -0.131389   0.000000
  108        0.179982   0.000000
  109        0.213240   0.000000
  110        0.278922   0.000000
  111        0.301768   0.000000
  112        0.478904   0.000000
  113        0.583582   0.000000
  114        0.886987   0.000000
  115        0.963682   0.000000
  116        1.002107   0.000000
  117        1.095468   0.000000
  118        1.668851   0.000000
  119        1.871536   0.000000
  120        2.183948   0.000000
 
  0.1250000E+00  0.1250000E+00  0.0000000E+00  0.3125000E-01
    1      -17.784802   1.000000
    2      -16.977410   1.000000
    3      -16.798759   1.000000
    4      -16.710027   1.000000
    5      -16.557457   1.000000
    6      -16.461508   1.000000
    7      -16.384329   1.000000
    8      -16.276452   1.000000
    9      -16.159868   1.000000
   10      -16.036165   1.000000
   11      -15.976201   1.000000
   12      -15.890401   1.000000
   13      -15.806138   1.000000
   14      -15.678633   1.000000
   15      -15.594883   1.000000
   16      -15.405182   1.000000
   17      -15.345304   1.000000
   18      -15.185276   1.000000
   19       -9.639057   1.000000
   20       -9.340179   1.000000
   21       -9.250707   1.000000
   22       -9.042585   1.000000
   23       -8.792945   1.000000
   24       -8.729067   1.000000
   25       -8.651591   1.000000
   26       -8.543397   1.000000
   27       -8.479670   1.000000
   28       -8.419674   1.000000
   29       -8.346885   1.000000
   30       -8.272453   1.000000
   31       -8.132798   1.000000
   32       -8.028649   1.000000
   33       -7.979848   1.000000
   34       -7.873224   1.000000
   35       -7.724083   1.000000
   36       -7.649122   1.000000
   37       -7.612627   1.000000
   38       -7.556011   1.000000
   39       -7.446707   1.000000
   40       -7.334449   1.000000
   41       -7.312584   1.000000
   42       -7.232402   1.000000
   43       -7.134748   1.000000
   44       -7.032038   1.000000
   45       -6.844233   1.000000
   46       -6.821935   1.000000
   47       -6.765922   1.000000
   48       -6.649887   1.000000
   49       -6.534776   1.000000
   50       -6.481988   1.000000
   51       -6.413556   1.000000
   52       -6.393530   1.000000
   53       -6.290580   1.000000
   54       -6.245388   1.000000
   55       -6.167685   1.000000
   56       -6.109550   1.000000
   57       -5.977624   1.000000
   58       -5.906614   1.000000
   59       -5.761646   1.000000
   60       -5.622910   1.000000
   61       -5.510456   1.000000
   62       -5.432456   1.000000
   63       -5.351110   1.000000
   64       -5.298595   1.000000
   65       -5.210566   1.000000
   66       -5.069864   1.000000
   67       -4.913279   1.000000
   68       -4.852292   1.000000
   69       -4.764574   1.000000
   70       -4.695664   1.000000
   71       -4.613978   1.000000
   72       -4.512033   1.000000
   73       -4.339691   1.000000
   74       -4.296043   1.000000
   75       -4.100701   1.000000
   76       -4.009637   0.999999
   77       -3.819469   0.999681
   78       -3.752863   0.998378
   79       -3.647371   0.986012
   80       -3.287675   0.364740
   81       -3.081007   0.035367
   82       -3.018879   0.012336
   83       -2.812167   0.000104
   84       -2.693560   0.000003
   85       -2.599387   0.000000
   86       -2.453677   0.000000
   87       -2.375021   0.000000
   88       -2.294203   0.000000
   89       -2.261785   0.000000
   90       -2.136889   0.000000
   91       -1.790310   0.000000
   92       -1.649391   0.000000
   93       -1.288286   0.000000
   94       -1.177720   0.000000
   95       -1.064273   0.000000
   96       -0.993633   0.000000
   97       -0.918740   0.000000
   98       -0.831728   0.000000
   99       -0.816630   0.000000
  100       -0.774051   0.000000
  101       -0.674228   0.000000
  102       -0.625177   0.000000
  103       -0.556810   0.000000
  104       -0.442256   0.000000
  105       -0.379041   0.000000
  106       -0.226125   0.000000
  107       -0.128175   0.000000
  108        0.087414   0.000000
  109        0.180839   0.000000
  110        0.252016   0.000000
  111        0.289660   0.000000
  112        0.482555   0.000000
  113        0.602367   0.000000
  114        0.892974   0.000000
  115        1.028613   0.000000
  116        1.073602   0.000000
  117        1.192845   0.000000
  118        1.750385   0.000000
  119        1.949333   0.000000
  120        2.252380   0.000000
 
  0.2500000E+00  0.1250000E+00  0.0000000E+00  0.3125000E-01
    1      -17.703052   1.000000
    2      -17.123048   1.000000
    3      -16.840087   1.000000
    4      -16.771577   1.000000
    5      -16.541188   1.000000
    6      -16.475247   1.000000
    7      -16.369722   1.000000
    8      -16.215062   1.000000
    9      -16.125861   1.000000
   10      -16.026018   1.000000
   11      -15.940240   1.000000
   12      -15.883967   1.000000
   13      -15.767796   1.000000
   14      -15.634886   1.000000
   15      -15.599007   1.000000
   16      -15.432630   1.000000
   17      -15.356364   1.000000
   18      -15.196177   1.000000
   19       -9.733221   1.000000
   20       -9.426285   1.000000
   21       -9.363320   1.000000
   22       -9.166530   1.000000
   23       -8.807140   1.000000
   24       -8.745137   1.000000
   25       -8.566661   1.000000
   26       -8.504495   1.000000
   27       -8.451558   1.000000
   28       -8.359436   1.000000
   29       -8.324841   1.000000
   30       -8.261274   1.000000
   31       -8.122967   1.000000
   32       -8.029046   1.000000
   33       -7.996354   1.000000
   34       -7.827649   1.000000
   35       -7.772498   1.000000
   36       -7.728149   1.000000
   37       -7.581345   1.000000
   38       -7.405002   1.000000
   39       -7.354546   1.000000
   40       -7.276793   1.000000
   41       -7.186716   1.000000
   42       -7.182559   1.000000
   43       -7.123822   1.000000
   44       -6.977386   1.000000
   45       -6.841269   1.000000
   46       -6.791068   1.000000
   47       -6.734549   1.000000