       N       E                     dE             d eps       ncg     rms          rms(c)
DAV:   1     0.112429972957E+04    0.11243E+04   -0.35856E+04  8160   0.577E+02
DAV:   2    -0.166025965332E+01   -0.11260E+04   -0.10811E+04 11240   0.173E+02
DAV:   3    -0.199975623062E+03   -0.19832E+03   -0.19013E+03 10880   0.822E+01
DAV:   4    -0.209067917430E+03   -0.90923E+01   -0.88573E+01 12000   0.263E+01
DAV:   5    -0.209390290257E+03   -0.32237E+00   -0.32156E+00 11200   0.371E+00    0.275E+01
DAV:   6    -0.237079814720E+03   -0.27690E+02   -0.11204E+02 12600   0.603E+01    0.597E+01
DAV:   7    -0.196370781862E+03    0.40709E+02   -0.17985E+02 13360   0.151E+02    0.197E+01
DAV:   8    -0.189118729976E+03    0.72521E+01   -0.15936E+01 12160   0.124E+01    0.119E+01
DAV:   9    -0.187440558610E+03    0.16782E+01   -0.27475E+00 13400   0.861E+00    0.609E+00
DAV:  10    -0.186969580977E+03    0.47098E+00   -0.11801E+00 13400   0.424E+00    0.239E+00
DAV:  11    -0.186975469649E+03   -0.58887E-02   -0.46336E-01 12640   0.212E+00    0.289E+00
DAV:  12    -0.186917772884E+03    0.57697E-01   -0.37692E-01 13160   0.283E+00    0.269E+00
DAV:  13    -0.186862434372E+03    0.55339E-01   -0.17941E-01 12760   0.255E+00    0.152E+00
DAV:  14    -0.186846902978E+03    0.15531E-01   -0.79881E-02 12840   0.147E+00    0.897E-01
DAV:  15    -0.186838018517E+03    0.88845E-02   -0.17856E-02 11960   0.548E-01    0.615E-01
DAV:  16    -0.186837083987E+03    0.93453E-03   -0.87401E-03 13240   0.520E-01    0.547E-01
DAV:  17    -0.186834752001E+03    0.23320E-02   -0.94170E-03 12440   0.533E-01    0.325E-01
DAV:  18    -0.186833692075E+03    0.10599E-02   -0.19854E-03 12720   0.226E-01    0.553E-02
DAV:  19    -0.186834226752E+03   -0.53468E-03   -0.81206E-04 10480   0.729E-02    0.100E-01
DAV:  20    -0.186834635791E+03   -0.40904E-03   -0.61324E-04  9600   0.642E-02    0.688E-02
DAV:  21    -0.186835503954E+03   -0.86816E-03   -0.26465E-04  7800   0.612E-02    0.288E-02
DAV:  22    -0.186836228076E+03   -0.72412E-03   -0.95958E-05  6400   0.349E-02    0.352E-02
DAV:  23    -0.186837457696E+03   -0.12296E-02   -0.16028E-04  7480   0.412E-02    0.874E-03
DAV:  24    -0.186838011732E+03   -0.55404E-03   -0.23130E-05  6720   0.118E-02    0.873E-03
DAV:  25    -0.186838440264E+03   -0.42853E-03   -0.16967E-05  5520   0.154E-02    0.656E-03
DAV:  26    -0.186838643487E+03   -0.20322E-03   -0.85155E-06  6800   0.774E-03    0.220E-03
DAV:  27    -0.186838745484E+03   -0.10200E-03   -0.42653E-06  6880   0.415E-03    0.995E-04
DAV:  28    -0.186838791496E+03   -0.46012E-04   -0.20588E-06  7240   0.279E-03
   1 F= -.18683879E+03 E0= -.18666559E+03  d E =-.186839E+03
       N       E                     dE             d eps       ncg     rms          rms(c)
DAV:   1    -0.187434679971E+03   -0.59593E+00   -0.26825E+02  8160   0.347E+01    0.456E+00
DAV:   2    -0.189157333040E+03   -0.17227E+01   -0.19762E+01 12240   0.146E+01    0.728E+00
DAV:   3    -0.189354670809E+03   -0.19734E+00   -0.33363E+00 12440   0.114E+01    0.716E+00
DAV:   4    -0.188722972868E+03    0.63170E+00   -0.73674E-01 12600   0.505E+00    0.220E+00
DAV:   5    -0.188704439336E+03    0.18534E-01   -0.29642E-01 10920   0.194E+00    0.254E+00
DAV:   6    -0.188756610999E+03   -0.52172E-01   -0.45199E-01 12680   0.391E+00    0.416E+00
DAV:   7    -0.188620406798E+03    0.13620E+00   -0.32710E-01 12720   0.338E+00    0.107E+00
DAV:   8    -0.188614811876E+03    0.55949E-02   -0.58658E-02 12680   0.122E+00    0.114E+00
DAV:   9    -0.188603775675E+03    0.11036E-01   -0.23594E-02 12720   0.908E-01    0.385E-01
DAV:  10    -0.188602928371E+03    0.84730E-03   -0.48830E-03 11760   0.286E-01    0.212E-01
DAV:  11    -0.188602267299E+03    0.66107E-03   -0.26049E-03 12240   0.151E-01    0.789E-02
DAV:  12    -0.188602396385E+03   -0.12909E-03   -0.83057E-04 11040   0.856E-02    0.636E-02
DAV:  13    -0.188602376978E+03    0.19407E-04   -0.22355E-04  8000   0.494E-02
   2 F= -.18860238E+03 E0= -.18845499E+03  d E =-.176359E+01
       N       E                     dE             d eps       ncg     rms          rms(c)
DAV:   1    -0.190504731416E+03   -0.19023E+01   -0.30376E+01  9360   0.141E+01    0.448E+00
DAV:   2    -0.190569401580E+03   -0.64670E-01   -0.29386E+00 11120   0.100E+01    0.791E+00
DAV:   3    -0.189970649766E+03    0.59875E+00   -0.13752E+00 12360   0.870E+00    0.409E+00
DAV:   4    -0.189769235382E+03    0.20141E+00   -0.67225E-01 12720   0.377E+00    0.250E+00
DAV:   5    -0.189707966480E+03    0.61269E-01   -0.32606E-01 12240   0.237E+00    0.192E+00
DAV:   6    -0.189671998164E+03    0.35968E-01   -0.87157E-02 12200   0.189E+00    0.791E-01
DAV:   7    -0.189665749197E+03    0.62490E-02   -0.13948E-02 12080   0.603E-01    0.180E-01
DAV:   8    -0.189665861818E+03   -0.11262E-03   -0.23150E-03 10960   0.167E-01    0.135E-01
DAV:   9    -0.189666223823E+03   -0.36201E-03   -0.12570E-03 10600   0.171E-01    0.192E-01
DAV:  10    -0.189666397446E+03   -0.17362E-03   -0.15111E-03 10480   0.267E-01    0.220E-01
DAV:  11    -0.189665920540E+03    0.47691E-03   -0.76168E-04  9320   0.169E-01    0.290E-02
DAV:  12    -0.189665939281E+03   -0.18740E-04   -0.78161E-05  6120   0.335E-02
   3 F= -.18966594E+03 E0= -.18954104E+03  d E =-.106356E+01
       N       E                     dE             d eps       ncg     rms          rms(c)
DAV:   1    -0.191175857836E+03   -0.15099E+01   -0.63699E+01  8160   0.184E+01    0.466E+00
DAV:   2    -0.191129343755E+03    0.46514E-01   -0.53754E+00 13440   0.894E+00    0.597E+00
DAV:   3    -0.191024965922E+03    0.10438E+00   -0.16246E+00 12240   0.936E+00    0.587E+00
DAV:   4    -0.190660861708E+03    0.36410E+00   -0.10134E+00 13200   0.613E+00    0.238E+00
DAV:   5    -0.190605985259E+03    0.54876E-01   -0.30487E-01 12240   0.289E+00    0.211E+00
DAV:   6    -0.190565620999E+03    0.40364E-01   -0.12295E-01 12400   0.249E+00    0.962E-01
DAV:   7    -0.190561127570E+03    0.44934E-02   -0.25283E-02 12240   0.925E-01    0.453E-01
DAV:   8    -0.190557411664E+03    0.37159E-02   -0.65296E-03 10600   0.302E-01    0.156E-01
DAV:   9    -0.190558184986E+03   -0.77332E-03   -0.20657E-03 11480   0.291E-01    0.286E-01
DAV:  10    -0.190557673128E+03    0.51186E-03   -0.18876E-03 11120   0.299E-01    0.111E-01
DAV:  11    -0.190557540099E+03    0.13303E-03   -0.41267E-04  8600   0.997E-02    0.459E-02
DAV:  12    -0.190557534560E+03    0.55387E-05   -0.96178E-05  7320   0.478E-02
   4 F= -.19055753E+03 E0= -.19045482E+03  d E =-.891595E+00
       N       E                     dE             d eps       ncg     rms          rms(c)
DAV:   1    -0.191982481361E+03   -0.14249E+01   -0.12864E+02  8160   0.258E+01    0.591E+00
DAV:   2    -0.191669221048E+03    0.31326E+00   -0.94412E+00 13000   0.903E+00    0.482E+00
DAV:   3    -0.191986838365E+03   -0.31762E+00   -0.22320E+00 12160   0.111E+01    0.868E+00
DAV:   4    -0.191344962351E+03    0.64188E+00   -0.23097E+00 12240   0.111E+01    0.360E+00
DAV:   5    -0.191296525006E+03    0.48437E-01   -0.68685E-01 12200   0.572E+00    0.350E+00
DAV:   6    -0.191123824387E+03    0.17270E+00   -0.25075E-01 12080   0.380E+00    0.780E-01
DAV:   7    -0.191122236523E+03    0.15879E-02   -0.31285E-02 12240   0.880E-01    0.435E-01
DAV:   8    -0.191118962981E+03    0.32735E-02   -0.64933E-03 10800   0.309E-01    0.192E-01
DAV:   9    -0.191119786697E+03   -0.82372E-03   -0.32162E-03 11360   0.304E-01    0.263E-01
DAV:  10    -0.191119394680E+03    0.39202E-03   -0.24593E-03 12200   0.352E-01    0.164E-01
DAV:  11    -0.191119155982E+03    0.23870E-03   -0.63742E-04  9800   0.152E-01    0.640E-02
DAV:  12    -0.191119108375E+03    0.47607E-04   -0.12091E-04  7240   0.624E-02
   5 F= -.19111911E+03 E0= -.19103404E+03  d E =-.561574E+00
       N       E                     dE             d eps       ncg     rms          rms(c)
DAV:   1    -0.191166086336E+03   -0.46930E-01   -0.51088E+00  8160   0.480E+00    0.664E-01
DAV:   2    -0.191197656866E+03   -0.31571E-01   -0.19234E-01 13440   0.189E+00    0.155E+00
DAV:   3    -0.191172642968E+03    0.25014E-01   -0.70007E-02 12480   0.201E+00    0.626E-01
DAV:   4    -0.191169495003E+03    0.31480E-02   -0.12524E-02 10640   0.661E-01    0.421E-01
DAV:   5    -0.191168674674E+03    0.82033E-03   -0.78442E-03 11560   0.668E-01    0.393E-01
DAV:   6    -0.191167273864E+03    0.14008E-02   -0.39155E-03 11640   0.411E-01    0.149E-01
DAV:   7    -0.191167004205E+03    0.26966E-03   -0.13688E-03 10400   0.143E-01    0.622E-02
DAV:   8    -0.191166955379E+03    0.48827E-04   -0.21012E-04  6920   0.572E-02
   6 F= -.19116696E+03 E0= -.19108001E+03  d E =-.478470E-01
       N       E                     dE             d eps       ncg     rms          rms(c)
DAV:   1    -0.191202990850E+03   -0.35987E-01   -0.37372E+00  8160   0.404E+00    0.536E-01
DAV:   2    -0.191244116463E+03   -0.41126E-01   -0.14821E-01 13600   0.245E+00    0.181E+00
DAV:   3    -0.191206862368E+03    0.37254E-01   -0.61293E-02 12600   0.194E+00    0.288E-01
DAV:   4    -0.191206592105E+03    0.27026E-03   -0.50772E-03 11560   0.342E-01    0.268E-01
DAV:   5    -0.191206296166E+03    0.29594E-03   -0.32617E-03 11840   0.408E-01    0.269E-01
DAV:   6    -0.191205661306E+03    0.63486E-03   -0.17355E-03 10240   0.283E-01    0.100E-01
DAV:   7    -0.191205631589E+03    0.29716E-04   -0.55162E-04 10120   0.101E-01
   7 F= -.19120563E+03 E0= -.19111539E+03  d E =-.386762E-01
       N       E                     dE             d eps       ncg     rms          rms(c)
DAV:   1    -0.191258259153E+03   -0.52598E-01   -0.89292E+00  8160   0.625E+00    0.760E-01
DAV:   2    -0.191333022989E+03   -0.74764E-01   -0.29516E-01 13560   0.317E+00    0.242E+00
DAV:   3    -0.191267422678E+03    0.65600E-01   -0.12428E-01 12600   0.270E+00    0.470E-01
DAV:   4    -0.191266061108E+03    0.13616E-02   -0.10760E-02 10880   0.483E-01    0.377E-01
DAV:   5    -0.191265707516E+03    0.35359E-03   -0.71497E-03 12600   0.595E-01    0.416E-01
DAV:   6    -0.191264249005E+03    0.14585E-02   -0.42224E-03 11680   0.442E-01    0.164E-01
DAV:   7    -0.191264063424E+03    0.18558E-03   -0.12073E-03 10920   0.153E-01    0.665E-02
DAV:   8    -0.191263988305E+03    0.75119E-04   -0.28233E-04  8040   0.816E-02
   8 F= -.19126399E+03 E0= -.19116845E+03  d E =-.583567E-01
       N       E                     dE             d eps       ncg     rms          rms(c)
DAV:   1    -0.191246361788E+03    0.17702E-01   -0.79866E-01  8160   0.187E+00    0.226E-01
DAV:   2    -0.191253291989E+03   -0.69302E-02   -0.26493E-02 13560   0.893E-01    0.716E-01
DAV:   3    -0.191247108721E+03    0.61833E-02   -0.10220E-02 11720   0.781E-01    0.145E-01
DAV:   4    -0.191247120490E+03   -0.11769E-04   -0.12797E-03 10160   0.200E-01    0.152E-01
DAV:   5    -0.191246950751E+03    0.16974E-03   -0.82258E-04  9720   0.200E-01    0.103E-01
DAV:   6    -0.191246851127E+03    0.99624E-04   -0.30219E-04  7200   0.102E-01
   9 F= -.19124685E+03 E0= -.19115285E+03  d E =0.171372E-01
       N       E                     dE             d eps       ncg     rms          rms(c)
DAV:   1    -0.191248513429E+03   -0.15627E-02   -0.37318E-02  8320   0.408E-01    0.515E-02
DAV:   2    -0.191248795982E+03   -0.28255E-03   -0.13904E-03 12280   0.185E-01    0.153E-01
DAV:   3    -0.191248548944E+03    0.24704E-03   -0.54937E-04  8960   0.168E-01    0.467E-02
DAV:   4    -0.191248542986E+03    0.59579E-05   -0.80002E-05  6080   0.591E-02
  10 F= -.19124854E+03 E0= -.19115429E+03  d E =-.169186E-02
       N       E                     dE             d eps       ncg     rms          rms(c)
DAV:   1    -0.191251759266E+03   -0.32103E-02   -0.59301E-01  8160   0.162E+00    0.188E-01
DAV:   2    -0.191255175886E+03   -0.34166E-02   -0.19412E-02 12880   0.651E-01    0.514E-01
DAV:   3    -0.191252653222E+03    0.25227E-02   -0.71470E-03 12040   0.598E-01    0.192E-01
DAV:   4    -0.191252448521E+03    0.20470E-03   -0.11609E-03 10080   0.211E-01    0.129E-01
DAV:   5    -0.191252320399E+03    0.12812E-03   -0.60579E-04  9160   0.189E-01    0.985E-02
DAV:   6    -0.191252239301E+03    0.81098E-04   -0.29837E-04  7520   0.107E-01
  11 F= -.19125224E+03 E0= -.19115766E+03  d E =-.369631E-02
       N       E                     dE             d eps       ncg     rms          rms(c)
DAV:   1    -0.191266105246E+03   -0.13785E-01   -0.62261E+00  8160   0.530E+00    0.670E-01
DAV:   2    -0.191303647357E+03   -0.37542E-01   -0.22035E-01 12000   0.203E+00    0.182E+00
DAV:   3    -0.191275400112E+03    0.28247E-01   -0.10307E-01 11960   0.212E+00    0.706E-01
DAV:   4    -0.191273110128E+03    0.22900E-02   -0.16158E-02 11440   0.809E-01    0.570E-01
DAV:   5    -0.191269986491E+03    0.31236E-02   -0.89984E-03 11000   0.720E-01    0.308E-01
DAV:   6    -0.191269377094E+03    0.60940E-03   -0.39697E-03 11800   0.336E-01    0.201E-01
DAV:   7    -0.191269263681E+03    0.11341E-03   -0.27490E-03 12360   0.318E-01    0.226E-01
DAV:   8    -0.191268846955E+03    0.41673E-03   -0.15157E-03 10040   0.266E-01    0.897E-02
DAV:   9    -0.191268755146E+03    0.91809E-04   -0.17587E-04  6040   0.788E-02
  12 F= -.19126876E+03 E0= -.19117206E+03  d E =-.165158E-01
       N       E                     dE             d eps       ncg     rms          rms(c)
DAV:   1    -0.191287743837E+03   -0.18897E-01   -0.33114E+00  8160   0.386E+00    0.498E-01
DAV:   2    -0.191320470967E+03   -0.32727E-01   -0.14191E-01 12160   0.209E+00    0.162E+00
DAV:   3    -0.191292943964E+03    0.27527E-01   -0.60502E-02 12400   0.174E+00    0.361E-01
DAV:   4    -0.191293840792E+03   -0.89683E-03   -0.89113E-03 11600   0.616E-01    0.488E-01
DAV:   5    -0.191291573227E+03    0.22676E-02   -0.54189E-03 11760   0.516E-01    0.175E-01
DAV:   6    -0.191291354317E+03    0.21891E-03   -0.14095E-03 10400   0.176E-01    0.114E-01
DAV:   7    -0.191291600049E+03   -0.24573E-03   -0.14515E-03 10880   0.244E-01    0.207E-01
DAV:   8    -0.191291160269E+03    0.43978E-03   -0.87420E-04  8760   0.202E-01    0.361E-02
DAV:   9    -0.191291162833E+03   -0.25637E-05   -0.59226E-05  6000   0.374E-02
  13 F= -.19129116E+03 E0= -.19119104E+03  d E =-.224077E-01
       N       E                     dE             d eps       ncg     rms          rms(c)
DAV:   1    -0.191337503482E+03   -0.46343E-01   -0.65331E+00  8160   0.547E+00    0.804E-01
DAV:   2    -0.191409031357E+03   -0.71528E-01   -0.30203E-01 13440   0.328E+00    0.253E+00
DAV:   3    -0.191341103595E+03    0.67928E-01   -0.13210E-01 12400   0.268E+00    0.411E-01
DAV:   4    -0.191339401358E+03    0.17022E-02   -0.10658E-02 11240   0.408E-01    0.352E-01
DAV:   5    -0.191339148416E+03    0.25294E-03   -0.97730E-03 12760   0.600E-01    0.474E-01
DAV:   6    -0.191337529582E+03    0.16188E-02   -0.81994E-03 11760   0.583E-01    0.236E-01
DAV:   7    -0.191336933241E+03    0.59634E-03   -0.16996E-03 11400   0.217E-01    0.760E-02
DAV:   8    -0.191336956766E+03   -0.23525E-04   -0.47402E-04  9240   0.137E-01
  14 F= -.19133696E+03 E0= -.19123189E+03  d E =-.457939E-01
       N       E                     dE             d eps       ncg     rms          rms(c)
DAV:   1    -0.191345086612E+03   -0.81534E-02   -0.14995E+00  8160   0.259E+00    0.279E-01
DAV:   2    -0.191353274149E+03   -0.81875E-02   -0.49765E-02 13400   0.950E-01    0.747E-01
DAV:   3    -0.191347764539E+03    0.55096E-02   -0.16792E-02 11920   0.854E-01    0.308E-01
DAV:   4    -0.191347148564E+03    0.61597E-03   -0.31222E-03 11320   0.319E-01    0.167E-01
DAV:   5    -0.191347019206E+03    0.12936E-03   -0.14210E-03 10320   0.265E-01    0.166E-01
DAV:   6    -0.191346787361E+03    0.23184E-03   -0.75247E-04  8960   0.187E-01    0.749E-02
DAV:   7    -0.191346760528E+03    0.26833E-04   -0.24693E-04  6560   0.828E-02
  15 F= -.19134676E+03 E0= -.19124210E+03  d E =-.980376E-02
       N       E                     dE             d eps       ncg     rms          rms(c)
DAV:   1    -0.191371230084E+03   -0.24443E-01   -0.24279E+00  8160   0.330E+00    0.383E-01
DAV:   2    -0.191387666854E+03   -0.16437E-01   -0.84929E-02 13000   0.145E+00    0.109E+00
DAV:   3    -0.191374817264E+03    0.12850E-01   -0.29814E-02 12400   0.124E+00    0.276E-01
DAV:   4    -0.191374728989E+03    0.88274E-04   -0.38713E-03 11440   0.344E-01    0.290E-01
DAV:   5    -0.191374102900E+03    0.62609E-03   -0.29817E-03 10440   0.362E-01    0.181E-01
DAV:   6    -0.191373879243E+03    0.22366E-03   -0.11209E-03  9840   0.181E-01    0.906E-02
DAV:   7    -0.191373895544E+03   -0.16302E-04   -0.62969E-04  9840   0.141E-01
  16 F= -.19137390E+03 E0= -.19126734E+03  d E =-.271350E-01
       N       E                     dE             d eps       ncg     rms          rms(c)
DAV:   1    -0.191346728594E+03    0.27151E-01   -0.41181E+00  8160   0.432E+00    0.516E-01
DAV:   2    -0.191375929756E+03   -0.29201E-01   -0.15654E-01 11520   0.185E+00    0.141E+00
DAV:   3    -0.191353426023E+03    0.22504E-01   -0.46101E-02 12200   0.155E+00    0.390E-01
DAV:   4    -0.191354030468E+03   -0.60445E-03   -0.90062E-03 11560   0.586E-01    0.492E-01
DAV:   5    -0.191351734724E+03    0.22957E-02   -0.57327E-03 11640   0.537E-01    0.182E-01
DAV:   6    -0.191351633135E+03    0.10159E-03   -0.17331E-03 11800   0.182E-01    0.122E-01
DAV:   7    -0.191351354385E+03    0.27875E-03   -0.76214E-04 10840   0.114E-01    0.636E-02
DAV:   8    -0.191351355398E+03   -0.10130E-05   -0.28609E-04  7480   0.109E-01
  17 F= -.19135136E+03 E0= -.19124719E+03  d E =0.225401E-01
       N       E                     dE             d eps       ncg     rms          rms(c)
DAV:   1    -0.191374185474E+03   -0.22831E-01   -0.31813E+00  8160   0.381E+00    0.431E-01
DAV:   2    -0.191389516293E+03   -0.15331E-01   -0.94373E-02 13400   0.150E+00    0.118E+00
DAV:   3    -0.191377235998E+03    0.12280E-01   -0.34317E-02 12440   0.126E+00    0.380E-01
DAV:   4    -0.191377366354E+03   -0.13036E-03   -0.73249E-03 12160   0.554E-01    0.412E-01
DAV:   5    -0.191375906290E+03    0.14601E-02   -0.56547E-03 10680   0.529E-01    0.245E-01
DAV:   6    -0.191375420266E+03    0.48602E-03   -0.22526E-03 10640   0.246E-01    0.108E-01
DAV:   7    -0.191375202776E+03    0.21749E-03   -0.62605E-04 10880   0.928E-02    0.444E-02
DAV:   8    -0.191375204565E+03   -0.17888E-05   -0.17515E-04  7040   0.832E-02
  18 F= -.19137520E+03 E0= -.19127033E+03  d E =-.238492E-01
       N       E                     dE             d eps       ncg     rms          rms(c)
DAV:   1    -0.191399507742E+03   -0.24305E-01   -0.14693E+00  8160   0.255E+00    0.285E-01
DAV:   2    -0.191409062772E+03   -0.95550E-02   -0.46843E-02 12800   0.107E+00    0.826E-01
DAV:   3    -0.191401400574E+03    0.76622E-02   -0.16075E-02 12080   0.931E-01    0.195E-01
DAV:   4    -0.191401174173E+03    0.22640E-03   -0.14701E-03 11160   0.173E-01    0.126E-01
DAV:   5    -0.191401190509E+03   -0.16336E-04   -0.10690E-03 11680   0.208E-01    0.167E-01
DAV:   6    -0.191401034374E+03    0.15614E-03   -0.94830E-04  8760   0.199E-01    0.962E-02
DAV:   7    -0.191400946212E+03    0.88162E-04   -0.25050E-04  6240   0.845E-02
  19 F= -.19140095E+03 E0= -.19129493E+03  d E =-.257416E-01
       N       E                     dE             d eps       ncg     rms          rms(c)
DAV:   1    -0.191419588141E+03   -0.18554E-01   -0.95256E-01  8160   0.205E+00    0.196E-01
DAV:   2    -0.191423459352E+03   -0.38712E-02   -0.21532E-02 12760   0.620E-01    0.543E-01
DAV:   3    -0.191420562745E+03    0.28966E-02   -0.75619E-03 11520   0.603E-01    0.183E-01
DAV:   4    -0.191420670201E+03   -0.10746E-03   -0.17015E-03  9800   0.253E-01    0.202E-01
DAV:   5    -0.191420308982E+03    0.36122E-03   -0.11039E-03  9760   0.226E-01    0.903E-02
DAV:   6    -0.191420272630E+03    0.36352E-04   -0.32479E-04  7440   0.908E-02
  20 F= -.19142027E+03 E0= -.19131396E+03  d E =-.193264E-01
       N       E                     dE             d eps       ncg     rms          rms(c)
DAV:   1    -0.191420377892E+03   -0.68910E-04   -0.44112E-01  8160   0.144E+00    0.169E-01
DAV:   2    -0.191422353213E+03   -0.19753E-02   -0.14865E-02 11640   0.501E-01    0.392E-01
DAV:   3    -0.191421103179E+03    0.12500E-02   -0.51847E-03 11880   0.464E-01    0.187E-01
DAV:   4    -0.191420984379E+03    0.11880E-03   -0.13282E-03  9640   0.230E-01    0.160E-01
DAV:   5    -0.191420745195E+03    0.23918E-03   -0.69865E-04  8480   0.192E-01    0.829E-02
DAV:   6    -0.191420708721E+03    0.36474E-04   -0.30467E-04  7280   0.973E-02
  21 F= -.19142071E+03 E0= -.19131387E+03  d E =-.436091E-03
       N       E                     dE             d eps       ncg     rms          rms(c)
DAV:   1    -0.191462653200E+03   -0.41908E-01   -0.53617E+00  8160   0.497E+00    0.632E-01
DAV:   2    -0.191507852536E+03   -0.45199E-01   -0.21173E-01 12240   0.247E+00    0.190E+00
DAV:   3    -0.191469549387E+03    0.38303E-01   -0.81665E-02 12480   0.207E+00    0.403E-01
DAV:   4    -0.191470243936E+03   -0.69455E-03   -0.11993E-02 11680   0.615E-01    0.550E-01
DAV:   5    -0.191467790837E+03    0.24531E-02   -0.99137E-03 10720   0.649E-01    0.313E-01
DAV:   6    -0.191466995405E+03    0.79543E-03   -0.35709E-03 10720   0.310E-01    0.146E-01
DAV:   7    -0.191467100696E+03   -0.10529E-03   -0.20487E-03 12480   0.247E-01    0.215E-01
DAV:   8    -0.191466651381E+03    0.44932E-03   -0.10167E-03  8760   0.206E-01    0.451E-02
DAV:   9    -0.191466649734E+03    0.16475E-05   -0.90811E-05  6120   0.479E-02
  22 F= -.19146665E+03 E0= -.19135822E+03  d E =-.459410E-01
       N       E                     dE             d eps       ncg     rms          rms(c)
DAV:   1    -0.191499687263E+03   -0.33036E-01   -0.26284E+00  8160   0.342E+00    0.375E-01
DAV:   2    -0.191515952554E+03   -0.16265E-01   -0.84383E-02 13240   0.153E+00    0.110E+00
DAV:   3    -0.191503242446E+03    0.12710E-01   -0.26217E-02 12480   0.119E+00    0.275E-01
DAV:   4    -0.191503635568E+03   -0.39312E-03   -0.54427E-03 11040   0.421E-01    0.356E-01
DAV:   5    -0.191502696195E+03    0.93937E-03   -0.43303E-03 10240   0.417E-01    0.210E-01
DAV:   6    -0.191502294659E+03    0.40154E-03   -0.14196E-03 10320   0.195E-01    0.792E-02
DAV:   7    -0.191502231998E+03    0.62661E-04   -0.39014E-04  9440   0.681E-02
  23 F= -.19150223E+03 E0= -.19139348E+03  d E =-.355823E-01
       N       E                     dE             d eps       ncg     rms          rms(c)
DAV:   1    -0.191576466593E+03   -0.74172E-01   -0.37992E+01  8160   0.130E+01    0.140E+00
DAV:   2    -0.191792708442E+03   -0.21624E+00   -0.12296E+00 13000   0.554E+00    0.413E+00
DAV:   3    -0.191641223785E+03    0.15148E+00   -0.38694E-01 12400   0.453E+00    0.122E+00
DAV:   4    -0.191644425149E+03   -0.32014E-02   -0.96638E-02 11600   0.190E+00    0.145E+00
DAV:   5    -0.191624330939E+03    0.20094E-01   -0.52743E-02 11360   0.163E+00    0.699E-01
DAV:   6    -0.191620051735E+03    0.42792E-02   -0.19957E-02 11920   0.709E-01    0.381E-01
DAV:   7    -0.191622905551E+03   -0.28538E-02   -0.16500E-02 12960   0.794E-01    0.731E-01
DAV:   8    -0.191617878405E+03    0.50271E-02   -0.98106E-03 11440   0.656E-01    0.102E-01
DAV:   9    -0.191617826847E+03    0.51558E-04   -0.59716E-04 10200   0.101E-01
  24 F= -.19161783E+03 E0= -.19150835E+03  d E =-.115595E+00
       N       E                     dE             d eps       ncg     rms          rms(c)
DAV:   1    -0.191644543166E+03   -0.26665E-01   -0.67754E+00  8160   0.554E+00    0.605E-01
DAV:   2    -0.191678587931E+03   -0.34045E-01   -0.27986E-01 12400   0.214E+00    0.132E+00
DAV:   3    -0.191664168087E+03    0.14420E-01   -0.54183E-02 12160   0.169E+00    0.607E-01
DAV:   4    -0.191663118908E+03    0.10492E-02   -0.15071E-02 12400   0.789E-01    0.597E-01
DAV:   5    -0.191659883435E+03    0.32355E-02   -0.85326E-03 11600   0.666E-01    0.263E-01
DAV:   6    -0.191659793401E+03    0.90034E-04   -0.34591E-03 11360   0.279E-01    0.184E-01
DAV:   7    -0.191659370059E+03    0.42334E-03   -0.20832E-03 12080   0.226E-01    0.161E-01
DAV:   8    -0.191659157653E+03    0.21241E-03   -0.68760E-04  9600   0.172E-01    0.552E-02
DAV:   9    -0.191659135912E+03    0.21740E-04   -0.10306E-04  6240   0.566E-02
  25 F= -.19165914E+03 E0= -.19154930E+03  d E =-.413091E-01
       N       E                     dE             d eps       ncg     rms          rms(c)
DAV:   1    -0.191664794925E+03   -0.56373E-02   -0.30509E-01  8160   0.121E+00    0.157E-01
DAV:   2    -0.191665243292E+03   -0.44837E-03   -0.88778E-03 12680   0.340E-01    0.236E-01
DAV:   3    -0.191665133298E+03    0.10999E-03   -0.29551E-03 12280   0.366E-01    0.225E-01
DAV:   4    -0.191664678324E+03    0.45497E-03   -0.12732E-03  9760   0.233E-01    0.107E-01
DAV:   5    -0.191664729308E+03   -0.50984E-04   -0.69528E-04  9600   0.194E-01
  26 F= -.19166473E+03 E0= -.19155447E+03  d E =-.559340E-02
       N       E                     dE             d eps       ncg     rms          rms(c)
DAV:   1    -0.191673496348E+03   -0.88180E-02   -0.65855E-01  8160   0.172E+00    0.214E-01
DAV:   2    -0.191678220998E+03   -0.47246E-02   -0.28689E-02 12920   0.839E-01    0.569E-01
DAV:   3    -0.191674761753E+03    0.34592E-02   -0.68300E-03 11720   0.637E-01    0.149E-01
DAV:   4    -0.191674853349E+03   -0.91596E-04   -0.15915E-03 10040   0.234E-01    0.198E-01
DAV:   5    -0.191674564767E+03    0.28858E-03   -0.12051E-03 10120   0.239E-01    0.124E-01
DAV:   6    -0.191674430187E+03    0.13458E-03   -0.46348E-04  8840   0.122E-01    0.500E-02
DAV:   7    -0.191674398683E+03    0.31504E-04   -0.14825E-04  6880   0.539E-02
  27 F= -.19167440E+03 E0= -.19156452E+03  d E =-.966938E-02
       N       E                     dE             d eps       ncg     rms          rms(c)
DAV:   1    -0.191678233693E+03   -0.38035E-02   -0.10998E+00  8160   0.226E+00    0.299E-01
DAV:   2    -0.191679709002E+03   -0.14753E-02   -0.41037E-02 10480   0.579E-01    0.261E-01
DAV:   3    -0.191681327765E+03   -0.16188E-02   -0.98644E-03 11800   0.639E-01    0.532E-01
DAV:   4    -0.191678633082E+03    0.26947E-02   -0.56721E-03 12080   0.518E-01    0.144E-01
DAV:   5    -0.191679014678E+03   -0.38160E-03   -0.18040E-03 10360   0.304E-01    0.243E-01
DAV:   6    -0.191678354105E+03    0.66057E-03   -0.12953E-03 10440   0.269E-01    0.570E-02
DAV:   7    -0.191678363450E+03   -0.93450E-05   -0.20838E-04  7320   0.773E-02
  28 F= -.19167836E+03 E0= -.19156846E+03  d E =-.396477E-02
       N       E                     dE             d eps       ncg     rms          rms(c)
DAV:   1    -0.191695195752E+03   -0.16842E-01   -0.11587E+00  8160   0.240E+00    0.375E-01
DAV:   2    -0.191700819472E+03   -0.56237E-02   -0.49120E-02 12760   0.961E-01    0.810E-01
DAV:   3    -0.191695529355E+03    0.52901E-02   -0.19873E-02 12360   0.992E-01    0.419E-01
DAV:   4    -0.191693693793E+03    0.18356E-02   -0.47957E-03 11640   0.392E-01    0.178E-01
DAV:   5    -0.191694252562E+03   -0.55877E-03   -0.33382E-03 12160   0.415E-01    0.312E-01
DAV:   6    -0.191693183876E+03    0.10687E-02   -0.20268E-03 10200   0.322E-01    0.895E-02
DAV:   7    -0.191693267617E+03   -0.83741E-04   -0.67788E-04  8800   0.175E-01
  29 F= -.19169327E+03 E0= -.19158425E+03  d E =-.149042E-01
       N       E                     dE             d eps       ncg     rms          rms(c)
DAV:   1    -0.191713396452E+03   -0.20213E-01   -0.13287E+00  8160   0.250E+00    0.325E-01
DAV:   2    -0.191720443729E+03   -0.70473E-02   -0.51144E-02 12160   0.934E-01    0.783E-01
DAV:   3    -0.191715483689E+03    0.49600E-02   -0.17371E-02 12480   0.895E-01    0.315E-01
DAV:   4    -0.191714428541E+03    0.10551E-02   -0.26253E-03 11600   0.277E-01    0.146E-01
DAV:   5    -0.191714683189E+03   -0.25465E-03   -0.19672E-03 11520   0.296E-01    0.239E-01
DAV:   6    -0.191714308099E+03    0.37509E-03   -0.17541E-03 10520   0.292E-01    0.125E-01
DAV:   7    -0.191714128328E+03    0.17977E-03   -0.54848E-04  9120   0.134E-01    0.626E-02
DAV:   8    -0.191714099386E+03    0.28942E-04   -0.11842E-04  7880   0.890E-02
  30 F= -.19171410E+03 E0= -.19160691E+03  d E =-.208318E-01
       N       E                     dE             d eps       ncg     rms          rms(c)
DAV:   1    -0.191723380986E+03   -0.92527E-02   -0.26839E-01  8160   0.112E+00    0.137E-01
DAV:   2    -0.191724807373E+03   -0.14264E-02   -0.10375E-02 11640   0.409E-01    0.322E-01
DAV:   3    -0.191723904193E+03    0.90318E-03   -0.26790E-03 12280   0.373E-01    0.130E-01
DAV:   4    -0.191723816846E+03    0.87346E-04   -0.47169E-04  8640   0.154E-01
  31 F= -.19172382E+03 E0= -.19161703E+03  d E =-.971746E-02
       N       E                     dE             d eps       ncg     rms          rms(c)
DAV:   1    -0.191735632180E+03   -0.11728E-01   -0.41375E-01  8160   0.139E+00    0.192E-01
DAV:   2    -0.191738213607E+03   -0.25814E-02   -0.16194E-02 11760   0.552E-01    0.480E-01
DAV:   3    -0.191736179588E+03    0.20340E-02   -0.55721E-03 12520   0.531E-01    0.165E-01
DAV:   4    -0.191735894246E+03    0.28534E-03   -0.64138E-04  9360   0.140E-01    0.774E-02
DAV:   5    -0.191736110755E+03   -0.21651E-03   -0.79570E-04 10360   0.201E-01    0.168E-01
DAV:   6    -0.191735869685E+03    0.24107E-03   -0.61371E-04  8760   0.175E-01    0.493E-02
DAV:   7    -0.191735835590E+03    0.34095E-04   -0.82241E-05  6160   0.442E-02
  32 F= -.19173584E+03 E0= -.19163071E+03  d E =-.120187E-01
       N       E                     dE             d eps       ncg     rms          rms(c)
DAV:   1    -0.191755583063E+03   -0.19713E-01   -0.13078E+00  8160   0.247E+00    0.326E-01
DAV:   2    -0.191766222307E+03   -0.10639E-01   -0.59002E-02 11240   0.114E+00    0.903E-01
DAV:   3    -0.191757999236E+03    0.82231E-02   -0.17363E-02 12240   0.986E-01    0.251E-01
DAV:   4    -0.191758208821E+03   -0.20959E-03   -0.30911E-03 10920   0.410E-01    0.303E-01
DAV:   5    -0.191757264649E+03    0.94417E-03   -0.20797E-03 10840   0.358E-01    0.112E-01
DAV:   6    -0.191757517675E+03   -0.25303E-03   -0.11658E-03 10840   0.218E-01    0.188E-01
DAV:   7    -0.191757182655E+03    0.33502E-03   -0.82445E-04  9440   0.215E-01    0.685E-02
DAV:   8    -0.191757127627E+03    0.55028E-04   -0.11386E-04  6280   0.627E-02
  33 F= -.19175713E+03 E0= -.19165446E+03  d E =-.212920E-01
       N       E                     dE             d eps       ncg     rms          rms(c)
DAV:   1    -0.191755892183E+03    0.12905E-02   -0.69860E-02  8400   0.628E-01    0.159E-01
DAV:   2    -0.191756147141E+03   -0.25496E-03   -0.53121E-03 12280   0.372E-01    0.297E-01
DAV:   3    -0.191755485107E+03    0.66203E-03   -0.27977E-03 11080   0.395E-01    0.170E-01
DAV:   4    -0.191755288370E+03    0.19674E-03   -0.11345E-03  9920   0.235E-01    0.138E-01
DAV:   5    -0.191755189162E+03    0.99209E-04   -0.75147E-04  9760   0.212E-01
  34 F= -.19175519E+03 E0= -.19165144E+03  d E =0.193846E-02
       N       E                     dE             d eps       ncg     rms          rms(c)
DAV:   1    -0.191773370081E+03   -0.18082E-01   -0.11018E+00  8160   0.229E+00    0.315E-01
DAV:   2    -0.191776010197E+03   -0.26401E-02   -0.39998E-02 11640   0.658E-01    0.456E-01
DAV:   3    -0.191775664629E+03    0.34557E-03   -0.10901E-02 11840   0.767E-01    0.457E-01
DAV:   4    -0.191773518824E+03    0.21458E-02   -0.38958E-03 11480   0.428E-01    0.151E-01
DAV:   5    -0.191773751712E+03   -0.23289E-03   -0.18963E-03 11160   0.342E-01    0.222E-01
DAV:   6    -0.191773176157E+03    0.57556E-03   -0.10545E-03 10760   0.237E-01    0.451E-02
DAV:   7    -0.191773223753E+03   -0.47596E-04   -0.24702E-04  7960   0.108E-01
  35 F= -.19177322E+03 E0= -.19167175E+03  d E =-.180346E-01
       N       E                     dE             d eps       ncg     rms          rms(c)
DAV:   1    -0.191783026806E+03   -0.98506E-02   -0.28827E-01  8160   0.118E+00    0.191E-01
DAV:   2    -0.191785579903E+03   -0.25531E-02   -0.15828E-02 10800   0.660E-01    0.476E-01
DAV:   3    -0.191783282124E+03    0.22978E-02   -0.48418E-03 12200   0.542E-01    0.149E-01
DAV:   4    -0.191783342227E+03   -0.60103E-04   -0.12096E-03  9840   0.263E-01    0.187E-01
DAV:   5    -0.191783031790E+03    0.31044E-03   -0.89526E-04 10280   0.237E-01    0.901E-02
DAV:   6    -0.191782963174E+03    0.68616E-04   -0.34595E-04  8360   0.989E-02
  36 F= -.19178296E+03 E0= -.19168278E+03  d E =-.973942E-02
       N       E                     dE             d eps       ncg     rms          rms(c)
DAV:   1    -0.191801720150E+03   -0.18688E-01   -0.12603E+00  8160   0.242E+00    0.317E-01
DAV:   2    -0.191810017098E+03   -0.82969E-02   -0.52829E-02 11520   0.102E+00    0.753E-01
DAV:   3    -0.191804178558E+03    0.58385E-02   -0.13762E-02 12440   0.913E-01    0.263E-01
DAV:   4    -0.191804472853E+03   -0.29429E-03   -0.32137E-03 11480   0.432E-01    0.325E-01
DAV:   5    -0.191803330664E+03    0.11422E-02   -0.19975E-03 10640   0.362E-01    0.897E-02
DAV:   6    -0.191803368099E+03   -0.37435E-04   -0.57058E-04 10600   0.117E-01
  37 F= -.19180337E+03 E0= -.19170577E+03  d E =-.204049E-01
       N       E                     dE             d eps       ncg     rms          rms(c)
DAV:   1    -0.191834842518E+03   -0.31512E-01   -0.69193E+00  8160   0.570E+00    0.703E-01
DAV:   2    -0.191867001923E+03   -0.32159E-01   -0.27200E-01 11400   0.194E+00    0.130E+00
DAV:   3    -0.191851634674E+03    0.15367E-01   -0.49428E-02 11560   0.181E+00    0.711E-01
DAV:   4    -0.191848608506E+03    0.30262E-02   -0.12762E-02 12320   0.894E-01    0.551E-01
DAV:   5    -0.191845702575E+03    0.29059E-02   -0.69821E-03 11400   0.726E-01    0.247E-01
DAV:   6    -0.191845383227E+03    0.31935E-03   -0.30214E-03 12320   0.287E-01    0.176E-01
DAV:   7    -0.191845097671E+03    0.28556E-03   -0.12943E-03 12200   0.267E-01    0.126E-01
DAV:   8    -0.191844943073E+03    0.15460E-03   -0.38795E-04  9480   0.144E-01    0.427E-02
DAV:   9    -0.191844916283E+03    0.26790E-04   -0.81374E-05  7120   0.435E-02
  38 F= -.19184492E+03 E0= -.19175251E+03  d E =-.415482E-01
       N       E                     dE             d eps       ncg     rms          rms(c)
DAV:   1    -0.191861522021E+03   -0.16579E-01   -0.25944E+00  8160   0.345E+00    0.451E-01
DAV:   2    -0.191877872259E+03   -0.16350E-01   -0.11201E-01 11400   0.153E+00    0.966E-01
DAV:   3    -0.191867086130E+03    0.10786E-01   -0.22414E-02 12360   0.126E+00    0.321E-01
DAV:   4    -0.191867202483E+03   -0.11635E-03   -0.43352E-03 12320   0.532E-01    0.390E-01
DAV:   5    -0.191865741336E+03    0.14611E-02   -0.30173E-03 11680   0.489E-01    0.159E-01
DAV:   6    -0.191865711681E+03    0.29655E-04   -0.13177E-03 12480   0.171E-01    0.105E-01
DAV:   7    -0.191865516283E+03    0.19540E-03   -0.53144E-04 10440   0.130E-01    0.688E-02
DAV:   8    -0.191865478246E+03    0.38037E-04   -0.12575E-04  6640   0.933E-02
  39 F= -.19186548E+03 E0= -.19177591E+03  d E =-.205620E-01
       N       E                     dE             d eps       ncg     rms          rms(c)
DAV:   1    -0.191867360885E+03   -0.18446E-02   -0.53788E-02  8400   0.533E-01    0.118E-01
DAV:   2    -0.191867601153E+03   -0.24027E-03   -0.37335E-03 12920   0.317E-01    0.204E-01
DAV:   3    -0.191867174732E+03    0.42642E-03   -0.11463E-03 11120   0.288E-01    0.891E-02
DAV:   4    -0.191867107281E+03    0.67451E-04   -0.35836E-04  8680   0.141E-01
  40 F= -.19186711E+03 E0= -.19177725E+03  d E =-.162904E-02
       N       E                     dE             d eps       ncg     rms          rms(c)
DAV:   1    -0.191879723938E+03   -0.12549E-01   -0.24023E+00  8160   0.335E+00    0.428E-01
DAV:   2    -0.191887554690E+03   -0.78308E-02   -0.97125E-02 11480   0.950E-01    0.533E-01
DAV:   3    -0.191886646882E+03    0.90781E-03   -0.15052E-02 12520   0.103E+00    0.517E-01
DAV:   4    -0.191883614390E+03    0.30325E-02   -0.47657E-03 12080   0.561E-01    0.220E-01
DAV:   5    -0.191883858360E+03   -0.24397E-03   -0.27575E-03 11360   0.451E-01    0.274E-01
DAV:   6    -0.191883067121E+03    0.79124E-03   -0.15701E-03 11640   0.288E-01    0.638E-02
DAV:   7    -0.191883063010E+03    0.41117E-05   -0.35999E-04  9280   0.115E-01
  41 F= -.19188306E+03 E0= -.19179460E+03  d E =-.159557E-01
       N       E                     dE             d eps       ncg     rms          rms(c)
DAV:   1    -0.191880635552E+03    0.24316E-02   -0.17383E-01  8160   0.951E-01    0.182E-01
DAV:   2    -0.191881302027E+03   -0.66648E-03   -0.95498E-03 12160   0.442E-01    0.317E-01
DAV:   3    -0.191880557400E+03    0.74463E-03   -0.31173E-03 11440   0.467E-01    0.200E-01
DAV:   4    -0.191880067620E+03    0.48978E-03   -0.97151E-04  9880   0.222E-01    0.695E-02
DAV:   5    -0.191880073214E+03   -0.55942E-05   -0.45013E-04 10440   0.146E-01
  42 F= -.19188007E+03 E0= -.19179180E+03  d E =0.298980E-02
       N       E                     dE             d eps       ncg     rms          rms(c)
DAV:   1    -0.191883612946E+03   -0.35453E-02   -0.17561E-01  8160   0.903E-01    0.143E-01
DAV:   2    -0.191885245243E+03   -0.16323E-02   -0.10079E-02 11680   0.512E-01    0.342E-01
DAV:   3    -0.191883886107E+03    0.13591E-02   -0.23103E-03 12360   0.414E-01    0.902E-02
DAV:   4    -0.191883946206E+03   -0.60099E-04   -0.52541E-04  8520   0.180E-01
  43 F= -.19188395E+03 E0= -.19179607E+03  d E =-.387299E-02
       N       E                     dE             d eps       ncg     rms          rms(c)
DAV:   1    -0.191887080915E+03   -0.31948E-02   -0.14340E-01  8160   0.822E-01    0.103E-01
DAV:   2    -0.191887438154E+03   -0.35724E-03   -0.51717E-03 11120   0.224E-01    0.110E-01
DAV:   3    -0.191887538638E+03   -0.10048E-03   -0.84284E-04 11000   0.237E-01    0.151E-01
DAV:   4    -0.191887287494E+03    0.25114E-03   -0.33021E-04  8400   0.157E-01    0.438E-02
DAV:   5    -0.191887316824E+03   -0.29330E-04   -0.12775E-04  7200   0.946E-02
  44 F= -.19188732E+03 E0= -.19179992E+03  d E =-.337062E-02
       N       E                     dE             d eps       ncg     rms          rms(c)
DAV:   1    -0.191891687465E+03   -0.44000E-02   -0.31537E-01  8160   0.122E+00    0.165E-01
DAV:   2    -0.191893578366E+03   -0.18909E-02   -0.15177E-02 11880   0.490E-01    0.331E-01
DAV:   3    -0.191892528953E+03    0.10494E-02   -0.34298E-03 12400   0.467E-01    0.164E-01
DAV:   4    -0.191892305611E+03    0.22334E-03   -0.76241E-04  9440   0.190E-01    0.842E-02
DAV:   5    -0.191892211170E+03    0.94441E-04   -0.31295E-04  8520   0.117E-01
  45 F= -.19189221E+03 E0= -.19180511E+03  d E =-.489435E-02
       N       E                     dE             d eps       ncg     rms          rms(c)
DAV:   1    -0.191899341628E+03   -0.70360E-02   -0.22354E+00  8160   0.322E+00    0.405E-01
DAV:   2    -0.191909120462E+03   -0.97788E-02   -0.92794E-02 11960   0.106E+00    0.651E-01
DAV:   3    -0.191905599040E+03    0.35214E-02   -0.15412E-02 12360   0.105E+00    0.417E-01
DAV:   4    -0.191904110755E+03    0.14883E-02   -0.40054E-03 12000   0.507E-01    0.271E-01
DAV:   5    -0.191903541442E+03    0.56931E-03   -0.20670E-03 11040   0.407E-01    0.163E-01
DAV:   6    -0.191903348399E+03    0.19304E-03   -0.95348E-04 12240   0.174E-01    0.740E-02
DAV:   7    -0.191903319125E+03    0.29273E-04   -0.32783E-04 10320   0.132E-01
  46 F= -.19190332E+03 E0= -.19181706E+03  d E =-.111080E-01
       N       E                     dE             d eps       ncg     rms          rms(c)
DAV:   1    -0.191906802797E+03   -0.34544E-02   -0.11679E+00  8160   0.230E+00    0.276E-01
DAV:   2    -0.191911522233E+03   -0.47194E-02   -0.48297E-02 11240   0.815E-01    0.411E-01
DAV:   3    -0.191910394377E+03    0.11279E-02   -0.64768E-03 11800   0.696E-01    0.294E-01
DAV:   4    -0.191909644733E+03    0.74964E-03   -0.18052E-03 10440   0.355E-01    0.182E-01
DAV:   5    -0.191909431125E+03    0.21361E-03   -0.90784E-04 10480   0.278E-01    0.122E-01
DAV:   6    -0.191909383773E+03    0.47353E-04   -0.53437E-04 10080   0.143E-01
  47 F= -.19190938E+03 E0= -.19182362E+03  d E =-.606465E-02
       N       E                     dE             d eps       ncg     rms          rms(c)
DAV:   1    -0.191910091899E+03   -0.66077E-03   -0.23309E+00  8160   0.326E+00    0.383E-01
DAV:   2    -0.191918047080E+03   -0.79552E-02   -0.92254E-02 11480   0.901E-01    0.461E-01
DAV:   3    -0.191917541180E+03    0.50590E-03   -0.11106E-02 12520   0.919E-01    0.446E-01
DAV:   4    -0.191915202487E+03    0.23387E-02   -0.31113E-03 11320   0.485E-01    0.180E-01
DAV:   5    -0.191915502684E+03   -0.30020E-03   -0.18241E-03 11000   0.385E-01    0.245E-01
DAV:   6    -0.191914892054E+03    0.61063E-03   -0.11527E-03 11360   0.244E-01    0.398E-02
DAV:   7    -0.191914883917E+03    0.81370E-05   -0.12422E-04  7200   0.660E-02
  48 F= -.19191488E+03 E0= -.19182965E+03  d E =-.550014E-02
       N       E                     dE             d eps       ncg     rms          rms(c)
DAV:   1    -0.191915515244E+03   -0.62319E-03   -0.50968E-02  8200   0.488E-01    0.636E-02
DAV:   2    -0.191915686151E+03   -0.17091E-03   -0.24542E-03 10960   0.135E-01    0.625E-02
DAV:   3    -0.191915709471E+03   -0.23321E-04   -0.31673E-04 10720   0.138E-01
  49 F= -.19191571E+03 E0= -.19183058E+03  d E =-.825554E-03
