<?xml version="1.0" encoding="ISO-8859-1"?>
<modeling>
 <generator>
  <i name="program" type="string">vasp </i>
  <i name="version" type="string">5.4.1  </i>
  <i name="subversion" type="string">05Feb16 (build Jul 05 2020 17:13:04) complex                          parallel </i>
  <i name="platform" type="string">IFC91_ompi </i>
  <i name="date" type="string">2024 04 28 </i>
  <i name="time" type="string">01:21:00 </i>
 </generator>
 <incar>
  <i type="int" name="ISTART">     0</i>
  <i type="string" name="PREC">normal</i>
  <i type="string" name="ALGO"> Normal</i>
  <i type="int" name="ISPIN">     1</i>
  <i type="int" name="ICHARG">     2</i>
  <i type="int" name="IBRION">     1</i>
  <i type="int" name="NSW">   100</i>
  <i type="int" name="ISIF">     3</i>
  <i type="int" name="ISYM">     0</i>
  <i name="SYMPREC">      0.00000001</i>
  <i name="POTIM">      0.50000000</i>
  <i type="logical" name="LREAL"> F  </i>
  <i type="logical" name="LPLANE"> F  </i>
  <i type="int" name="ISMEAR">     0</i>
  <i type="logical" name="LWAVE"> F  </i>
  <i type="logical" name="LCHARG"> F  </i>
  <v type="int" name="KPOINT_BSE">    -1     0     0     0</v>
 </incar>
 <kpoints>
  <generation param="Gamma">
   <v type="int" name="divisions">       8        8        1 </v>
   <v name="usershift">      0.00000000       0.00000000       0.00000000 </v>
   <v name="genvec1">      0.12500000       0.00000000       0.00000000 </v>
   <v name="genvec2">     -0.00000000       0.12500000       0.00000000 </v>
   <v name="genvec3">      0.00000000       0.00000000       1.00000000 </v>
   <v name="shift">      0.00000000       0.00000000       0.00000000 </v>
  </generation>
  <varray name="kpointlist" >
   <v>       0.00000000       0.00000000       0.00000000 </v>
   <v>       0.12500000       0.00000000       0.00000000 </v>
   <v>       0.25000000       0.00000000       0.00000000 </v>
   <v>       0.37500000       0.00000000       0.00000000 </v>
   <v>       0.50000000       0.00000000       0.00000000 </v>
   <v>       0.00000000       0.12500000       0.00000000 </v>
   <v>       0.12500000       0.12500000       0.00000000 </v>
   <v>       0.25000000       0.12500000       0.00000000 </v>
   <v>       0.37500000       0.12500000       0.00000000 </v>
   <v>       0.50000000       0.12500000       0.00000000 </v>
   <v>      -0.37500000       0.12500000       0.00000000 </v>
   <v>      -0.25000000       0.12500000       0.00000000 </v>
   <v>      -0.12500000       0.12500000       0.00000000 </v>
   <v>       0.00000000       0.25000000       0.00000000 </v>
   <v>       0.12500000       0.25000000       0.00000000 </v>
   <v>       0.25000000       0.25000000       0.00000000 </v>
   <v>       0.37500000       0.25000000       0.00000000 </v>
   <v>       0.50000000       0.25000000       0.00000000 </v>
   <v>      -0.37500000       0.25000000       0.00000000 </v>
   <v>      -0.25000000       0.25000000       0.00000000 </v>
   <v>      -0.12500000       0.25000000       0.00000000 </v>
   <v>      -0.00000000       0.37500000       0.00000000 </v>
   <v>       0.12500000       0.37500000       0.00000000 </v>
   <v>       0.25000000       0.37500000       0.00000000 </v>
   <v>       0.37500000       0.37500000       0.00000000 </v>
   <v>       0.50000000       0.37500000       0.00000000 </v>
   <v>      -0.37500000       0.37500000       0.00000000 </v>
   <v>      -0.25000000       0.37500000       0.00000000 </v>
   <v>      -0.12500000       0.37500000       0.00000000 </v>
   <v>       0.00000000       0.50000000       0.00000000 </v>
   <v>       0.12500000       0.50000000       0.00000000 </v>
   <v>       0.25000000       0.50000000       0.00000000 </v>
   <v>       0.37500000       0.50000000       0.00000000 </v>
   <v>       0.50000000       0.50000000       0.00000000 </v>
  </varray>
  <varray name="weights" >
   <v>       0.01562500 </v>
   <v>       0.03125000 </v>
   <v>       0.03125000 </v>
   <v>       0.03125000 </v>
   <v>       0.01562500 </v>
   <v>       0.03125000 </v>
   <v>       0.03125000 </v>
   <v>       0.03125000 </v>
   <v>       0.03125000 </v>
   <v>       0.03125000 </v>
   <v>       0.03125000 </v>
   <v>       0.03125000 </v>
   <v>       0.03125000 </v>
   <v>       0.03125000 </v>
   <v>       0.03125000 </v>
   <v>       0.03125000 </v>
   <v>       0.03125000 </v>
   <v>       0.03125000 </v>
   <v>       0.03125000 </v>
   <v>       0.03125000 </v>
   <v>       0.03125000 </v>
   <v>       0.03125000 </v>
   <v>       0.03125000 </v>
   <v>       0.03125000 </v>
   <v>       0.03125000 </v>
   <v>       0.03125000 </v>
   <v>       0.03125000 </v>
   <v>       0.03125000 </v>
   <v>       0.03125000 </v>
   <v>       0.01562500 </v>
   <v>       0.03125000 </v>
   <v>       0.03125000 </v>
   <v>       0.03125000 </v>
   <v>       0.01562500 </v>
  </varray>
 </kpoints>
 <parameters>
  <separator name="general" >
   <i type="string" name="SYSTEM">unknown system</i>
   <i type="logical" name="LCOMPAT"> F  </i>
  </separator>
  <separator name="electronic" >
   <i type="string" name="PREC">normal</i>
   <i name="ENMAX">    280.00000000</i>
   <i name="ENAUG">    373.43800000</i>
   <i name="EDIFF">      0.00010000</i>
   <i type="int" name="IALGO">    38</i>
   <i type="int" name="IWAVPR">    11</i>
   <i type="int" name="NBANDS">   120</i>
   <i name="NELECT">    159.00000000</i>
   <i type="int" name="TURBO">     0</i>
   <i type="int" name="IRESTART">     0</i>
   <i type="int" name="NREBOOT">     0</i>
   <i type="int" name="NMIN">     0</i>
   <i name="EREF">      0.00000000</i>
   <separator name="electronic smearing" >
    <i type="int" name="ISMEAR">     0</i>
    <i name="SIGMA">      0.20000000</i>
    <i name="KSPACING">      0.50000000</i>
    <i type="logical" name="KGAMMA"> T  </i>
   </separator>
   <separator name="electronic projectors" >
    <i type="logical" name="LREAL"> F  </i>
    <v name="ROPT">      0.00000000      0.00000000      0.00000000      0.00000000</v>
    <i type="int" name="LMAXPAW">  -100</i>
    <i type="int" name="LMAXMIX">     2</i>
    <i type="logical" name="NLSPLINE"> F  </i>
   </separator>
   <separator name="electronic startup" >
    <i type="int" name="ISTART">     0</i>
    <i type="int" name="ICHARG">     2</i>
    <i type="int" name="INIWAV">     1</i>
   </separator>
   <separator name="electronic spin" >
    <i type="int" name="ISPIN">     1</i>
    <i type="logical" name="LNONCOLLINEAR"> F  </i>
    <v name="MAGMOM">      1.00000000      1.00000000      1.00000000      1.00000000      1.00000000      1.00000000      1.00000000      1.00000000      1.00000000      1.00000000      1.00000000      1.00000000      1.00000000      1.00000000      1.00000000      1.00000000      1.00000000      1.00000000      1.00000000      1.00000000
      1.00000000      1.00000000      1.00000000      1.00000000      1.00000000      1.00000000      1.00000000</v>
    <i name="NUPDOWN">     -1.00000000</i>
    <i type="logical" name="LSORBIT"> F  </i>
    <v name="SAXIS">      0.00000000      0.00000000      1.00000000</v>
    <i type="logical" name="LSPIRAL"> F  </i>
    <v name="QSPIRAL">      0.00000000      0.00000000      0.00000000</v>
    <i type="logical" name="LZEROZ"> F  </i>
   </separator>
   <separator name="electronic exchange-correlation" >
    <i type="logical" name="LASPH"> F  </i>
    <i type="logical" name="LMETAGGA"> F  </i>
   </separator>
   <separator name="electronic convergence" >
    <i type="int" name="NELM">    60</i>
    <i type="int" name="NELMDL">    -5</i>
    <i type="int" name="NELMIN">     2</i>
    <i name="ENINI">    280.00000000</i>
    <separator name="electronic convergence detail" >
     <i type="logical" name="LDIAG"> T  </i>
     <i type="logical" name="LSUBROT"> F  </i>
     <i name="WEIMIN">      0.00100000</i>
     <i name="EBREAK">      0.00000021</i>
     <i name="DEPER">      0.30000000</i>
     <i type="int" name="NRMM">     4</i>
     <i name="TIME">      0.40000000</i>
    </separator>
   </separator>
   <separator name="electronic mixer" >
    <i name="AMIX">      0.40000000</i>
    <i name="BMIX">      1.00000000</i>
    <i name="AMIN">      0.10000000</i>
    <i name="AMIX_MAG">      1.60000000</i>
    <i name="BMIX_MAG">      1.00000000</i>
    <separator name="electronic mixer details" >
     <i type="int" name="IMIX">     4</i>
     <i type="logical" name="MIXFIRST"> F  </i>
     <i type="int" name="MAXMIX">   -45</i>
     <i name="WC">    100.00000000</i>
     <i type="int" name="INIMIX">     1</i>
     <i type="int" name="MIXPRE">     1</i>
     <i type="int" name="MREMOVE">     5</i>
    </separator>
   </separator>
   <separator name="electronic dipolcorrection" >
    <i type="logical" name="LDIPOL"> F  </i>
    <i type="logical" name="LMONO"> F  </i>
    <i type="int" name="IDIPOL">     0</i>
    <i name="EPSILON">      1.00000000</i>
    <v name="DIPOL">   -100.00000000   -100.00000000   -100.00000000</v>
    <i name="EFIELD">      0.00000000</i>
   </separator>
  </separator>
  <separator name="grids" >
   <i type="int" name="NGX">    42</i>
   <i type="int" name="NGY">    42</i>
   <i type="int" name="NGZ">   126</i>
   <i type="int" name="NGXF">    84</i>
   <i type="int" name="NGYF">    84</i>
   <i type="int" name="NGZF">   252</i>
   <i type="logical" name="ADDGRID"> F  </i>
  </separator>
  <separator name="ionic" >
   <i type="int" name="NSW">   100</i>
   <i type="int" name="IBRION">     1</i>
   <i type="int" name="ISIF">     3</i>
   <i name="PSTRESS">      0.00000000</i>
   <i name="EDIFFG">      0.00100000</i>
   <i type="int" name="NFREE">     0</i>
   <i name="POTIM">      0.50000000</i>
   <i name="SMASS">     -3.00000000</i>
   <i name="SCALEE">      1.00000000</i>
  </separator>
  <separator name="ionic md" >
   <i name="TEBEG">      0.00010000</i>
   <i name="TEEND">      0.00010000</i>
   <i type="int" name="NBLOCK">     1</i>
   <i type="int" name="KBLOCK">   100</i>
   <i type="int" name="NPACO">   256</i>
   <i name="APACO">     16.00000000</i>
  </separator>
  <separator name="symmetry" >
   <i type="int" name="ISYM">     0</i>
   <i name="SYMPREC">      0.00000001</i>
  </separator>
  <separator name="dos" >
   <i type="logical" name="LORBIT"> F  </i>
   <v name="RWIGS">     -1.00000000     -1.00000000     -1.00000000     -1.00000000</v>
   <i type="int" name="NEDOS">   301</i>
   <i name="EMIN">     10.00000000</i>
   <i name="EMAX">    -10.00000000</i>
   <i name="EFERMI">      0.00000000</i>
  </separator>
  <separator name="writing" >
   <i type="int" name="NWRITE">     2</i>
   <i type="logical" name="LWAVE"> F  </i>
   <i type="logical" name="LCHARG"> F  </i>
   <i type="logical" name="LPARD"> F  </i>
   <i type="logical" name="LVTOT"> F  </i>
   <i type="logical" name="LVHAR"> F  </i>
   <i type="logical" name="LELF"> F  </i>
   <i type="logical" name="LOPTICS"> F  </i>
   <v name="STM">      0.00000000      0.00000000      0.00000000      0.00000000      0.00000000      0.00000000      0.00000000</v>
  </separator>
  <separator name="performance" >
   <i type="int" name="NPAR">    40</i>
   <i type="int" name="NSIM">     4</i>
   <i type="int" name="NBLK">    -1</i>
   <i type="logical" name="LPLANE"> F  </i>
   <i type="logical" name="LSCALAPACK"> T  </i>
   <i type="logical" name="LSCAAWARE"> F  </i>
   <i type="logical" name="LSCALU"> F  </i>
   <i type="logical" name="LASYNC"> F  </i>
   <i type="logical" name="LORBITALREAL"> F  </i>
  </separator>
  <separator name="miscellaneous" >
   <i type="int" name="IDIOT">     3</i>
   <i type="logical" name="LMUSIC"> F  </i>
   <v name="POMASS">     50.94100000     95.94000000    183.85000000     32.06600000</v>
   <v name="DARWINR">      0.00000000      0.00000000      0.00000000      0.00000000</v>
   <v name="DARWINV">      1.00000000      1.00000000      1.00000000      1.00000000</v>
   <i type="logical" name="LCORR"> T  </i>
  </separator>
  <i type="logical" name="GGA_COMPAT"> T  </i>
  <i type="logical" name="LBERRY"> F  </i>
  <i type="int" name="ICORELEVEL">     0</i>
  <i type="logical" name="LDAU"> F  </i>
  <i type="int" name="I_CONSTRAINED_M">     0</i>
  <separator name="electronic exchange-correlation" >
   <i type="string" name="GGA">--</i>
   <i type="int" name="VOSKOWN">     0</i>
   <i type="logical" name="LHFCALC"> F  </i>
   <i type="string" name="PRECFOCK"></i>
   <i type="logical" name="LSYMGRAD"> F  </i>
   <i type="logical" name="LHFONE"> F  </i>
   <i type="logical" name="LRHFCALC"> F  </i>
   <i type="logical" name="LTHOMAS"> F  </i>
   <i type="logical" name="LMODELHF"> F  </i>
   <i name="ENCUT4O">     -1.00000000</i>
   <i type="int" name="EXXOEP">     0</i>
   <i type="int" name="FOURORBIT">     0</i>
   <i name="AEXX">      0.00000000</i>
   <i name="HFALPHA">      0.00000000</i>
   <i name="MCALPHA">      0.00000000</i>
   <i name="ALDAX">      1.00000000</i>
   <i name="AGGAX">      1.00000000</i>
   <i name="ALDAC">      1.00000000</i>
   <i name="AGGAC">      1.00000000</i>
   <i type="int" name="NKREDX">     1</i>
   <i type="int" name="NKREDY">     1</i>
   <i type="int" name="NKREDZ">     1</i>
   <i type="logical" name="SHIFTRED"> F  </i>
   <i type="logical" name="ODDONLY"> F  </i>
   <i type="logical" name="EVENONLY"> F  </i>
   <i type="int" name="LMAXFOCK">     0</i>
   <i type="int" name="NMAXFOCKAE">     0</i>
   <i type="logical" name="LFOCKAEDFT"> F  </i>
   <i name="HFSCREEN">      0.00000000</i>
   <i name="HFSCREENC">      0.00000000</i>
   <i type="int" name="NBANDSGWLOW">     0</i>
  </separator>
  <separator name="vdW DFT" >
   <i type="logical" name="LUSE_VDW"> F  </i>
   <i name="Zab_VDW">     -0.84910000</i>
   <i name="PARAM1">      0.12340000</i>
   <i name="PARAM2">      1.00000000</i>
   <i name="PARAM3">      0.00000000</i>
  </separator>
  <separator name="model GW" >
   <i type="int" name="MODEL_GW">     0</i>
   <i name="MODEL_EPS0">     58.26239943</i>
   <i name="MODEL_ALPHA">      1.00000000</i>
  </separator>
  <separator name="linear response parameters" >
   <i type="logical" name="LEPSILON"> F  </i>
   <i type="logical" name="LRPA"> F  </i>
   <i type="logical" name="LNABLA"> F  </i>
   <i type="logical" name="LVEL"> F  </i>
   <i type="int" name="KINTER">     0</i>
   <i name="CSHIFT">      0.10000000</i>
   <i name="OMEGAMAX">     -1.00000000</i>
   <i name="DEG_THRESHOLD">      0.00200000</i>
  </separator>
  <separator name="orbital magnetization" >
   <i type="logical" name="NUCIND"> F  </i>
   <v name="MAGPOS">      0.00000000      0.00000000      0.00000000</v>
   <i type="logical" name="LNICSALL"> T  </i>
   <i type="logical" name="ORBITALMAG"> F  </i>
   <i type="logical" name="LMAGBLOCH"> F  </i>
   <i type="logical" name="LCHIMAG"> F  </i>
   <i type="logical" name="LGAUGE"> T  </i>
   <i type="int" name="MAGATOM">     0</i>
   <v name="MAGDIPOL">      0.00000000      0.00000000      0.00000000</v>
   <v name="AVECCONST">      0.00000000      0.00000000      0.00000000</v>
  </separator>
  <separator name="response functions" >
   <i type="logical" name="LADDER"> F  </i>
   <i type="logical" name="LFXC"> F  </i>
   <i type="logical" name="LHARTREE"> T  </i>
   <i type="int" name="IBSE">     0</i>
   <v type="int" name="KPOINT">    -1     0     0     0</v>
   <i type="logical" name="LTCTE"> F  </i>
   <i type="logical" name="LTETE"> F  </i>
   <i type="logical" name="LTRIPLET"> F  </i>
   <i type="logical" name="LFXCEPS"> F  </i>
   <i type="logical" name="LFXHEG"> F  </i>
   <i type="int" name="NATURALO">     0</i>
   <i type="logical" name="L2ORDER"> F  </i>
   <i type="logical" name="LUSEW"> F  </i>
   <i name="ENCUTGW">     -2.00000000</i>
   <i name="ENCUTGWSOFT">     -2.00000000</i>
   <i name="ENCUTLF">     -1.00000000</i>
   <i type="int" name="LMAXMP2">    -1</i>
   <i name="SCISSOR">      0.00000000</i>
   <i type="int" name="NOMEGA">     0</i>
   <i type="int" name="NOMEGAR">     0</i>
   <i type="int" name="NBANDSGW">    -1</i>
   <i type="int" name="NBANDSO">    -1</i>
   <i type="int" name="NBANDSV">    -1</i>
   <i type="int" name="NELM">     1</i>
   <i type="int" name="NELMHF">     1</i>
   <i type="int" name="DIM">     3</i>
   <i type="int" name="ANTIRES">     0</i>
   <i name="OMEGAMAX">    -30.00000000</i>
   <i name="OMEGAMIN">    -30.00000000</i>
   <i name="OMEGATL">   -200.00000000</i>
   <i type="int" name="OMEGAGRID">     0</i>
   <i name="CSHIFT">     -0.10000000</i>
   <i type="logical" name="SELFENERGY"> F  </i>
   <i type="logical" name="LSPECTRAL"> F  </i>
   <i type="logical" name="LSPECTRALGW"> F  </i>
   <i type="logical" name="LSINGLES"> F  </i>
   <i type="logical" name="LFERMIGW"> F  </i>
   <i type="logical" name="ODDONLYGW"> F  </i>
   <i type="logical" name="EVENONLYGW"> F  </i>
   <i type="int" name="NKREDLFX">     1</i>
   <i type="int" name="NKREDLFY">     1</i>
   <i type="int" name="NKREDLFZ">     1</i>
   <i type="int" name="MAXMEM">  1800</i>
   <i type="int" name="TELESCOPE">     0</i>
   <i type="int" name="TAUPAR">     1</i>
   <i type="int" name="OMEGAPAR">    -1</i>
   <i name="LAMBDA">      1.00000000</i>
  </separator>
  <separator name="External order field" >
   <i name="OFIELD_KAPPA">      0.00000000</i>
   <v name="OFIELD_K">      0.00000000      0.00000000      0.00000000</v>
   <i name="OFIELD_Q6_NEAR">      0.00000000</i>
   <i name="OFIELD_Q6_FAR">      0.00000000</i>
   <i name="OFIELD_A">      0.00000000</i>
  </separator>
 </parameters>
 <atominfo>
  <atoms>      27 </atoms>
  <types>       4 </types>
  <array name="atoms" >
   <dimension dim="1">ion</dimension>
   <field type="string">element</field>
   <field type="int">atomtype</field>
   <set>
    <rc><c>V </c><c>   1</c></rc>
    <rc><c>V </c><c>   1</c></rc>
    <rc><c>V </c><c>   1</c></rc>
    <rc><c>Mo</c><c>   2</c></rc>
    <rc><c>Mo</c><c>   2</c></rc>
    <rc><c>Mo</c><c>   2</c></rc>
    <rc><c>W </c><c>   3</c></rc>
    <rc><c>W </c><c>   3</c></rc>
    <rc><c>W </c><c>   3</c></rc>
    <rc><c>S </c><c>   4</c></rc>
    <rc><c>S </c><c>   4</c></rc>
    <rc><c>S </c><c>   4</c></rc>
    <rc><c>S </c><c>   4</c></rc>
    <rc><c>S </c><c>   4</c></rc>
    <rc><c>S </c><c>   4</c></rc>
    <rc><c>S </c><c>   4</c></rc>
    <rc><c>S </c><c>   4</c></rc>
    <rc><c>S </c><c>   4</c></rc>
    <rc><c>S </c><c>   4</c></rc>
    <rc><c>S </c><c>   4</c></rc>
    <rc><c>S </c><c>   4</c></rc>
    <rc><c>S </c><c>   4</c></rc>
    <rc><c>S </c><c>   4</c></rc>
    <rc><c>S </c><c>   4</c></rc>
    <rc><c>S </c><c>   4</c></rc>
    <rc><c>S </c><c>   4</c></rc>
    <rc><c>S </c><c>   4</c></rc>
   </set>
  </array>
  <array name="atomtypes" >
   <dimension dim="1">type</dimension>
   <field type="int">atomspertype</field>
   <field type="string">element</field>
   <field>mass</field>
   <field>valence</field>
   <field type="string">pseudopotential</field>
   <set>
    <rc><c>   3</c><c>V </c><c>     50.94100000</c><c>      5.00000000</c><c> PAW_PBE V 08Apr2002                    </c></rc>
    <rc><c>   3</c><c>Mo</c><c>     95.94000000</c><c>      6.00000000</c><c> PAW_PBE Mo 08Apr2002                   </c></rc>
    <rc><c>   3</c><c>W </c><c>    183.85000000</c><c>      6.00000000</c><c> PAW_PBE W 08Apr2002                    </c></rc>
    <rc><c>  18</c><c>S </c><c>     32.06600000</c><c>      6.00000000</c><c>  PAW_PBE S 17Jan2003                   </c></rc>
   </set>
  </array>
 </atominfo>
 <structure name="initialpos" >
  <crystal>
   <varray name="basis" >
    <v>       8.66999996       5.03999989       0.00000000 </v>
    <v>      -8.66999982       5.04000013       0.00000000 </v>
    <v>       0.00000000       0.00000000      30.00000000 </v>
   </varray>
   <i name="volume">   2621.80797419 </i>
   <varray name="rec_basis" >
    <v>       0.05767013       0.09920635       0.00000000 </v>
    <v>      -0.05767013       0.09920635       0.00000000 </v>
    <v>       0.00000000       0.00000000       0.03333333 </v>
   </varray>
  </crystal>
  <varray name="positions" >
   <v>       0.00000000       0.66666669       0.00000000 </v>
   <v>       0.33333334       0.00000000       0.00000000 </v>
   <v>       1.00000000       0.33333334       0.00000000 </v>
   <v>       0.33333334       0.66666669       0.00000000 </v>
   <v>       0.00000000       0.00000000       0.00000000 </v>
   <v>       0.66666669       0.33333334       0.00000000 </v>
   <v>       0.33333334       0.33333334       0.00000000 </v>
   <v>       0.66666669       0.00000000       0.00000000 </v>
   <v>       0.66666669       0.66666669       0.00000000 </v>
   <v>       0.11068511       0.22244981       0.95539999 </v>
   <v>       0.22244981       0.11068511       0.04460000 </v>
   <v>       0.11068511       0.55578315       0.95539999 </v>
   <v>       0.22244981       0.44401845       0.04460000 </v>
   <v>       0.11068511       0.88911647       0.95539999 </v>
   <v>       0.22244981       0.77735180       0.04460000 </v>
   <v>       0.44401845       0.22244981       0.95539999 </v>
   <v>       0.55578315       0.11068511       0.04460000 </v>
   <v>       0.44401845       0.55578315       0.95539999 </v>
   <v>       0.55578315       0.44401845       0.04460000 </v>
   <v>       0.44401845       0.88911647       0.95539999 </v>
   <v>       0.55578315       0.77735180       0.04460000 </v>
   <v>       0.77735180       0.22244981       0.95539999 </v>
   <v>       0.88911647       0.11068511       0.04460000 </v>
   <v>       0.77735180       0.55578315       0.95539999 </v>
   <v>       0.88911647       0.44401845       0.04460000 </v>
   <v>       0.77735180       0.88911647       0.95539999 </v>
   <v>       0.88911647       0.77735180       0.04460000 </v>
  </varray>
 </structure>
 <calculation>
  <scstep>
   <time name="dav">   21.63   21.68</time>
   <time name="total">   21.67   21.73</time>
   <energy>
    <i name="alphaZ">     81.65567618 </i>
    <i name="ewald">  41890.23010372 </i>
    <i name="hartreedc"> -47722.87971486 </i>
    <i name="XCdc">   -242.92665275 </i>
    <i name="pawpsdc">   3467.42045192 </i>
    <i name="pawaedc">  -2871.19716117 </i>
    <i name="eentropy">     -0.54372686 </i>
    <i name="bandstr">   -238.90177087 </i>
    <i name="atom">   6761.44252427 </i>
    <i name="e_fr_energy">   1124.29972957 </i>
    <i name="e_wo_entrp">   1124.84345643 </i>
    <i name="e_0_energy">   1124.57159300 </i>
   </energy>
  </scstep>
  <scstep>
   <time name="dav">   28.11   28.18</time>
   <time name="total">   28.12   28.19</time>
   <energy>
    <i name="e_fr_energy">     -1.66025965 </i>
    <i name="e_wo_entrp">     -1.45396609 </i>
    <i name="e_0_energy">     -1.55711287 </i>
   </energy>
  </scstep>
  <scstep>
   <time name="dav">   27.39   27.46</time>
   <time name="total">   27.39   27.46</time>
   <energy>
    <i name="e_fr_energy">   -199.97562306 </i>
    <i name="e_wo_entrp">   -199.69620131 </i>
    <i name="e_0_energy">   -199.83591218 </i>
   </energy>
  </scstep>
  <scstep>
   <time name="dav">   29.67   29.74</time>
   <time name="total">   29.68   29.75</time>
   <energy>
    <i name="e_fr_energy">   -209.06791743 </i>
    <i name="e_wo_entrp">   -208.74382091 </i>
    <i name="e_0_energy">   -208.90586917 </i>
   </energy>
  </scstep>
  <scstep>
   <time name="dav">   28.02   28.08</time>
   <time name="total">   28.48   28.55</time>
   <energy>
    <i name="e_fr_energy">   -209.39029026 </i>
    <i name="e_wo_entrp">   -209.06793855 </i>
    <i name="e_0_energy">   -209.22911440 </i>
   </energy>
  </scstep>
  <scstep>
   <time name="dav">   30.82   30.90</time>
   <time name="total">   31.32   31.41</time>
   <energy>
    <i name="e_fr_energy">   -237.07981472 </i>
    <i name="e_wo_entrp">   -236.78005486 </i>
    <i name="e_0_energy">   -236.92993479 </i>
   </energy>
  </scstep>
  <scstep>
   <time name="dav">   32.48   32.56</time>
   <time name="total">   32.99   33.08</time>
   <energy>
    <i name="e_fr_energy">   -196.37078186 </i>
    <i name="e_wo_entrp">   -196.08501585 </i>
    <i name="e_0_energy">   -196.22789886 </i>
   </energy>
  </scstep>
  <scstep>
   <time name="dav">   30.02   30.09</time>
   <time name="total">   30.53   30.62</time>
   <energy>
    <i name="e_fr_energy">   -189.11872998 </i>
    <i name="e_wo_entrp">   -188.81173913 </i>
    <i name="e_0_energy">   -188.96523455 </i>
   </energy>
  </scstep>
  <scstep>
   <time name="dav">   32.57   32.65</time>
   <time name="total">   33.10   33.18</time>
   <energy>
    <i name="e_fr_energy">   -187.44055861 </i>
    <i name="e_wo_entrp">   -187.12764721 </i>
    <i name="e_0_energy">   -187.28410291 </i>
   </energy>
  </scstep>
  <scstep>
   <time name="dav">   32.57   32.65</time>
   <time name="total">   33.11   33.20</time>
   <energy>
    <i name="e_fr_energy">   -186.96958098 </i>
    <i name="e_wo_entrp">   -186.61409531 </i>
    <i name="e_0_energy">   -186.79183814 </i>
   </energy>
  </scstep>
  <scstep>
   <time name="dav">   30.98   31.06</time>
   <time name="total">   31.51   31.60</time>
   <energy>
    <i name="e_fr_energy">   -186.97546965 </i>
    <i name="e_wo_entrp">   -186.63648822 </i>
    <i name="e_0_energy">   -186.80597893 </i>
   </energy>
  </scstep>
  <scstep>
   <time name="dav">   32.07   32.15</time>
   <time name="total">   32.61   32.70</time>
   <energy>
    <i name="e_fr_energy">   -186.91777288 </i>
    <i name="e_wo_entrp">   -186.57864066 </i>
    <i name="e_0_energy">   -186.74820677 </i>
   </energy>
  </scstep>
  <scstep>
   <time name="dav">   31.18   31.26</time>
   <time name="total">   31.72   31.80</time>
   <energy>
    <i name="e_fr_energy">   -186.86243437 </i>
    <i name="e_wo_entrp">   -186.51974057 </i>
    <i name="e_0_energy">   -186.69108747 </i>
   </energy>
  </scstep>
  <scstep>
   <time name="dav">   31.37   31.45</time>
   <time name="total">   31.91   31.99</time>
   <energy>
    <i name="e_fr_energy">   -186.84690298 </i>
    <i name="e_wo_entrp">   -186.49765953 </i>
    <i name="e_0_energy">   -186.67228126 </i>
   </energy>
  </scstep>
  <scstep>
   <time name="dav">   29.51   29.58</time>
   <time name="total">   30.03   30.12</time>
   <energy>
    <i name="e_fr_energy">   -186.83801852 </i>
    <i name="e_wo_entrp">   -186.48936747 </i>
    <i name="e_0_energy">   -186.66369299 </i>
   </energy>
  </scstep>
  <scstep>
   <time name="dav">   32.22   32.30</time>
   <time name="total">   32.76   32.85</time>
   <energy>
    <i name="e_fr_energy">   -186.83708399 </i>
    <i name="e_wo_entrp">   -186.48932186 </i>
    <i name="e_0_energy">   -186.66320292 </i>
   </energy>
  </scstep>
  <scstep>
   <time name="dav">   30.46   30.53</time>
   <time name="total">   31.00   31.08</time>
   <energy>
    <i name="e_fr_energy">   -186.83475200 </i>
    <i name="e_wo_entrp">   -186.48932863 </i>
    <i name="e_0_energy">   -186.66204031 </i>
   </energy>
  </scstep>
  <scstep>
   <time name="dav">   31.07   31.15</time>
   <time name="total">   31.61   31.69</time>
   <energy>
    <i name="e_fr_energy">   -186.83369208 </i>
    <i name="e_wo_entrp">   -186.48701982 </i>
    <i name="e_0_energy">   -186.66035595 </i>
   </energy>
  </scstep>
  <scstep>
   <time name="dav">   26.36   26.42</time>
   <time name="total">   26.89   26.97</time>
   <energy>
    <i name="e_fr_energy">   -186.83422675 </i>
    <i name="e_wo_entrp">   -186.48778272 </i>
    <i name="e_0_energy">   -186.66100474 </i>
   </energy>
  </scstep>
  <scstep>
   <time name="dav">   24.57   24.62</time>
   <time name="total">   25.10   25.17</time>
   <energy>
    <i name="e_fr_energy">   -186.83463579 </i>
    <i name="e_wo_entrp">   -186.48839567 </i>
    <i name="e_0_energy">   -186.66151573 </i>
   </energy>
  </scstep>
  <scstep>
   <time name="dav">   20.94   20.99</time>
   <time name="total">   21.47   21.53</time>
   <energy>
    <i name="e_fr_energy">   -186.83550395 </i>
    <i name="e_wo_entrp">   -186.48909782 </i>
    <i name="e_0_energy">   -186.66230089 </i>
   </energy>
  </scstep>
  <scstep>
   <time name="dav">   18.14   18.18</time>
   <time name="total">   18.67   18.72</time>
   <energy>
    <i name="e_fr_energy">   -186.83622808 </i>
    <i name="e_wo_entrp">   -186.48974370 </i>
    <i name="e_0_energy">   -186.66298589 </i>
   </energy>
  </scstep>
  <scstep>
   <time name="dav">   20.30   20.35</time>
   <time name="total">   20.84   20.90</time>
   <energy>
    <i name="e_fr_energy">   -186.83745770 </i>
    <i name="e_wo_entrp">   -186.49108909 </i>
    <i name="e_0_energy">   -186.66427339 </i>
   </energy>
  </scstep>
  <scstep>
   <time name="dav">   18.79   18.84</time>
   <time name="total">   19.33   19.38</time>
   <energy>
    <i name="e_fr_energy">   -186.83801173 </i>
    <i name="e_wo_entrp">   -186.49163249 </i>
    <i name="e_0_energy">   -186.66482211 </i>
   </energy>
  </scstep>
  <scstep>
   <time name="dav">   16.35   16.39</time>
   <time name="total">   16.88   16.93</time>
   <energy>
    <i name="e_fr_energy">   -186.83844026 </i>
    <i name="e_wo_entrp">   -186.49200592 </i>
    <i name="e_0_energy">   -186.66522309 </i>
   </energy>
  </scstep>
  <scstep>
   <time name="dav">   18.96   19.01</time>
   <time name="total">   19.50   19.55</time>
   <energy>
    <i name="e_fr_energy">   -186.83864349 </i>
    <i name="e_wo_entrp">   -186.49222994 </i>
    <i name="e_0_energy">   -186.66543672 </i>
   </energy>
  </scstep>
  <scstep>
   <time name="dav">   19.11   19.15</time>
   <time name="total">   19.64   19.70</time>
   <energy>
    <i name="e_fr_energy">   -186.83874548 </i>
    <i name="e_wo_entrp">   -186.49234154 </i>
    <i name="e_0_energy">   -186.66554351 </i>
   </energy>
  </scstep>
  <scstep>
   <time name="dav">   19.94   19.98</time>
   <time name="total">   19.97   20.03</time>
   <energy>
    <i name="alphaZ">     81.65567618 </i>
    <i name="ewald">  41890.23010372 </i>
    <i name="hartreedc"> -47832.77655178 </i>
    <i name="XCdc">   -231.61215735 </i>
    <i name="pawpsdc">   4191.98218022 </i>
    <i name="pawaedc">  -3609.97924050 </i>
    <i name="eentropy">     -0.34640378 </i>
    <i name="bandstr">  -1437.43492248 </i>
    <i name="atom">   6761.44252427 </i>
    <i name="e_fr_energy">   -186.83879150 </i>
    <i name="e_wo_entrp">   -186.49238771 </i>
    <i name="e_0_energy">   -186.66558961 </i>
   </energy>
  </scstep>
  <structure>
   <crystal>
    <varray name="basis" >
     <v>       8.66999996       5.03999989       0.00000000 </v>
     <v>      -8.66999982       5.04000013       0.00000000 </v>
     <v>       0.00000000       0.00000000      30.00000000 </v>
    </varray>
    <i name="volume">   2621.80797419 </i>
    <varray name="rec_basis" >
     <v>       0.05767013       0.09920635       0.00000000 </v>
     <v>      -0.05767013       0.09920635       0.00000000 </v>
     <v>       0.00000000       0.00000000       0.03333333 </v>
    </varray>
   </crystal>
   <varray name="positions" >
    <v>       0.00000000       0.66666669       0.00000000 </v>
    <v>       0.33333334       0.00000000       0.00000000 </v>
    <v>       1.00000000       0.33333334       0.00000000 </v>
    <v>       0.33333334       0.66666669       0.00000000 </v>
    <v>       0.00000000       0.00000000       0.00000000 </v>
    <v>       0.66666669       0.33333334       0.00000000 </v>
    <v>       0.33333334       0.33333334       0.00000000 </v>
    <v>       0.66666669       0.00000000       0.00000000 </v>
    <v>       0.66666669       0.66666669       0.00000000 </v>
    <v>       0.11068511       0.22244981       0.95539999 </v>
    <v>       0.22244981       0.11068511       0.04460000 </v>
    <v>       0.11068511       0.55578315       0.95539999 </v>
    <v>       0.22244981       0.44401845       0.04460000 </v>
    <v>       0.11068511       0.88911647       0.95539999 </v>
    <v>       0.22244981       0.77735180       0.04460000 </v>
    <v>       0.44401845       0.22244981       0.95539999 </v>
    <v>       0.55578315       0.11068511       0.04460000 </v>
    <v>       0.44401845       0.55578315       0.95539999 </v>
    <v>       0.55578315       0.44401845       0.04460000 </v>
    <v>       0.44401845       0.88911647       0.95539999 </v>
    <v>       0.55578315       0.77735180       0.04460000 </v>
    <v>       0.77735180       0.22244981       0.95539999 </v>
    <v>       0.88911647       0.11068511       0.04460000 </v>
    <v>       0.77735180       0.55578315       0.95539999 </v>
    <v>       0.88911647       0.44401845       0.04460000 </v>
    <v>       0.77735180       0.88911647       0.95539999 </v>
    <v>       0.88911647       0.77735180       0.04460000 </v>
   </varray>
  </structure>
  <varray name="forces" >
   <v>       0.09452320       0.05808968      -0.00419829 </v>
   <v>       0.00244180      -0.10243287      -0.10466434 </v>
   <v>      -0.09473974       0.03801289       0.10709375 </v>
   <v>      -0.04468546      -0.01639556       0.00918556 </v>
   <v>       0.03681196      -0.01542324      -0.04722840 </v>
   <v>       0.00738373       0.03205267       0.03802127 </v>
   <v>       0.00468280      -0.06294497      -0.13095454 </v>
   <v>      -0.07131722       0.03928211       0.13667805 </v>
   <v>       0.06792487       0.01286298      -0.00363696 </v>
   <v>      -0.64279412       0.16626679      -2.09832535 </v>
   <v>       0.65973187       0.14383201       2.10268439 </v>
   <v>      -0.32305754      -0.66261146      -1.41930886 </v>
   <v>      -0.39685936      -0.72013128       2.16647154 </v>
   <v>       0.89840711       0.02042861      -1.47153732 </v>
   <v>      -0.89138230      -0.00522542       1.46073451 </v>
   <v>       0.36157313      -0.72148978      -2.18068029 </v>
   <v>      -0.34741425      -0.69186999       2.14567867 </v>
   <v>       0.28890722      -0.00492541      -2.90946198 </v>
   <v>      -0.27246674       0.02934255       2.89230182 </v>
   <v>      -0.69529351       0.13728970      -2.12685599 </v>
   <v>      -0.05409630       0.15673652       2.91470453 </v>
   <v>       0.60602085       0.55522001      -2.14545285 </v>
   <v>      -0.62927619       0.55715447       2.17579490 </v>
   <v>       0.35708932       0.69465750      -2.16260115 </v>
   <v>       0.34614677       0.66115659       1.43484101 </v>
   <v>       0.07903027      -0.14411396      -2.89608872 </v>
   <v>       0.65270781      -0.15482114       2.11680504 </v>
  </varray>
  <varray name="stress" >
   <v>       7.31087609      -0.00346790      -1.52009595 </v>
   <v>      -0.00346795       4.41571219      -0.05273947 </v>
   <v>      -1.52009576      -0.05273952      30.32399001 </v>
  </varray>
  <energy>
   <i name="e_fr_energy">   -186.83879150 </i>
   <i name="e_wo_entrp">   -186.66558961 </i>
   <i name="e_0_energy">     -0.34640378 </i>
  </energy>
  <time name="totalsc">  799.67  801.83</time>
 </calculation>
 <calculation>
  <scstep>
   <time name="dav">   21.58   21.63</time>
   <time name="total">   22.12   22.18</time>
   <energy>
    <i name="alphaZ">     78.92769985 </i>
    <i name="ewald">  39382.52672501 </i>
    <i name="hartreedc"> -45339.92366626 </i>
    <i name="XCdc">   -239.06675749 </i>
    <i name="pawpsdc">   4191.98192589 </i>
    <i name="pawaedc">  -3609.97907146 </i>
    <i name="eentropy">     -0.29775398 </i>
    <i name="bandstr">  -1413.04630581 </i>
    <i name="atom">   6761.44252427 </i>
    <i name="e_fr_energy">   -187.43467997 </i>
    <i name="e_wo_entrp">   -187.13692599 </i>
    <i name="e_0_energy">   -187.28580298 </i>
   </energy>
  </scstep>
  <scstep>
   <time name="dav">   30.20   30.27</time>
   <time name="total">   30.74   30.82</time>
   <energy>
    <i name="e_fr_energy">   -189.15733304 </i>
    <i name="e_wo_entrp">   -188.84437558 </i>
    <i name="e_0_energy">   -189.00085431 </i>
   </energy>
  </scstep>
  <scstep>
   <time name="dav">   30.43   30.50</time>
   <time name="total">   30.97   31.06</time>
   <energy>
    <i name="e_fr_energy">   -189.35467081 </i>
    <i name="e_wo_entrp">   -189.06529852 </i>
    <i name="e_0_energy">   -189.20998466 </i>
   </energy>
  </scstep>
  <scstep>
   <time name="dav">   30.79   30.87</time>
   <time name="total">   31.34   31.42</time>
   <energy>
    <i name="e_fr_energy">   -188.72297287 </i>
    <i name="e_wo_entrp">   -188.42910636 </i>
    <i name="e_0_energy">   -188.57603961 </i>
   </energy>
  </scstep>
  <scstep>
   <time name="dav">   27.31   27.37</time>
   <time name="total">   27.85   27.93</time>
   <energy>
    <i name="e_fr_energy">   -188.70443934 </i>
    <i name="e_wo_entrp">   -188.40498660 </i>
    <i name="e_0_energy">   -188.55471297 </i>
   </energy>
  </scstep>
  <scstep>
   <time name="dav">   30.98   31.06</time>
   <time name="total">   31.52   31.61</time>
   <energy>
    <i name="e_fr_energy">   -188.75661100 </i>
    <i name="e_wo_entrp">   -188.45573066 </i>
    <i name="e_0_energy">   -188.60617083 </i>
   </energy>
  </scstep>
  <scstep>
   <time name="dav">   31.05   31.12</time>
   <time name="total">   31.59   31.68</time>
   <energy>
    <i name="e_fr_energy">   -188.62040680 </i>
    <i name="e_wo_entrp">   -188.32585385 </i>
    <i name="e_0_energy">   -188.47313032 </i>
   </energy>
  </scstep>
  <scstep>
   <time name="dav">   30.99   31.07</time>
   <time name="total">   31.53   31.62</time>
   <energy>
    <i name="e_fr_energy">   -188.61481188 </i>
    <i name="e_wo_entrp">   -188.31970068 </i>
    <i name="e_0_energy">   -188.46725628 </i>
   </energy>
  </scstep>
  <scstep>
   <time name="dav">   31.11   31.18</time>
   <time name="total">   31.65   31.73</time>
   <energy>
    <i name="e_fr_energy">   -188.60377568 </i>
    <i name="e_wo_entrp">   -188.30850591 </i>
    <i name="e_0_energy">   -188.45614079 </i>
   </energy>
  </scstep>
  <scstep>
   <time name="dav">   29.06   29.13</time>
   <time name="total">   29.61   29.69</time>
   <energy>
    <i name="e_fr_energy">   -188.60292837 </i>
    <i name="e_wo_entrp">   -188.30759268 </i>
    <i name="e_0_energy">   -188.45526053 </i>
   </energy>
  </scstep>
  <scstep>
   <time name="dav">   30.07   30.15</time>
   <time name="total">   30.62   30.70</time>
   <energy>
    <i name="e_fr_energy">   -188.60226730 </i>
    <i name="e_wo_entrp">   -188.30752233 </i>
    <i name="e_0_energy">   -188.45489481 </i>
   </energy>
  </scstep>
  <scstep>
   <time name="dav">   27.68   27.74</time>
   <time name="total">   28.22   28.29</time>
   <energy>
    <i name="e_fr_energy">   -188.60239638 </i>
    <i name="e_wo_entrp">   -188.30766133 </i>
    <i name="e_0_energy">   -188.45502886 </i>
   </energy>
  </scstep>
  <scstep>
   <time name="dav">   21.59   21.64</time>
   <time name="total">   21.63   21.69</time>
   <energy>
    <i name="alphaZ">     78.92769985 </i>
    <i name="ewald">  39382.52672501 </i>
    <i name="hartreedc"> -45350.73182381 </i>
    <i name="XCdc">   -237.98535857 </i>
    <i name="pawpsdc">   3950.06906686 </i>
    <i name="pawaedc">  -3364.56241470 </i>
    <i name="eentropy">     -0.29477340 </i>
    <i name="bandstr">  -1407.99402250 </i>
    <i name="atom">   6761.44252427 </i>
    <i name="e_fr_energy">   -188.60237698 </i>
    <i name="e_wo_entrp">   -188.30760358 </i>
    <i name="e_0_energy">   -188.45499028 </i>
   </energy>
  </scstep>
  <structure>
   <crystal>
    <varray name="basis" >
     <v>       8.85527907       5.10498321       0.00000000 </v>
     <v>      -8.85538114       5.10515928       0.00000000 </v>
     <v>       0.00000000       0.00000000      30.00000000 </v>
    </varray>
    <i name="volume">   2712.42546450 </i>
    <varray name="rec_basis" >
     <v>       0.05646414       0.09794239       0.00000000 </v>
     <v>      -0.05646220       0.09794126       0.00000000 </v>
     <v>       0.00000000       0.00000000       0.03333333 </v>
    </varray>
   </crystal>
   <varray name="positions" >
    <v>       0.00054099       0.66668172      -0.00000675 </v>
    <v>       0.33284990      -0.00049703      -0.00016831 </v>
    <v>       0.99991835       0.33377885       0.00017222 </v>
    <v>       0.33313055       0.66671254       0.00001477 </v>
    <v>       0.00002860      -0.00017623      -0.00007595 </v>
    <v>       0.66684063       0.33346620       0.00006114 </v>
    <v>       0.33304512       0.33301906      -0.00021059 </v>
    <v>       0.66665627       0.00038642       0.00021979 </v>
    <v>       0.66691723       0.66653927      -0.00000585 </v>
    <v>       0.10969250       0.22503391       0.95202570 </v>
    <v>       0.22497367       0.10953801       0.04798130 </v>
    <v>       0.10661507       0.55351071       0.95311762 </v>
    <v>       0.21789915       0.44167605       0.04808388 </v>
    <v>       0.11328239       0.88671472       0.95303363 </v>
    <v>       0.21994483       0.77980676       0.04694899 </v>
    <v>       0.44157137       0.21799082       0.95189326 </v>
    <v>       0.55150532       0.10834040       0.04805044 </v>
    <v>       0.44479867       0.55495579       0.95072132 </v>
    <v>       0.55516554       0.44491693       0.04925108 </v>
    <v>       0.44274110       0.89170795       0.95197982 </v>
    <v>       0.55638279       0.77825244       0.04928710 </v>
    <v>       0.78169511       0.22342103       0.95194991 </v>
    <v>       0.89003225       0.11510239       0.04809887 </v>
    <v>       0.78166989       0.55811429       0.95192234 </v>
    <v>       0.89324378       0.44621970       0.04690735 </v>
    <v>       0.77688195       0.88820686       0.95074282 </v>
    <v>       0.89019143       0.77479489       0.04800401 </v>
   </varray>
  </structure>
  <varray name="forces" >
   <v>       0.02216568       0.01559478      -0.00131372 </v>
   <v>      -0.01386760      -0.01784786      -0.03248882 </v>
   <v>      -0.02463046      -0.00546484       0.03500810 </v>
   <v>       0.23840033       0.13679926       0.00164437 </v>
   <v>      -0.10275517      -0.09376647      -0.00740716 </v>
   <v>      -0.13293753      -0.04710394       0.00554294 </v>
   <v>       0.01820594       0.11087149      -0.03669906 </v>
   <v>       0.09505978      -0.03502351       0.03618996 </v>
   <v>      -0.08502394      -0.05743563      -0.00126251 </v>
   <v>       0.00127851       0.11393455       0.00873489 </v>
   <v>      -0.01062631       0.10300789      -0.05428962 </v>
   <v>      -0.01654694      -0.04224933       0.06733588 </v>
   <v>       0.10519764      -0.07353512      -0.02491588 </v>
   <v>       0.05040541      -0.00040904       0.04281631 </v>
   <v>      -0.04477887      -0.00983213      -0.08158752 </v>
   <v>      -0.10749038      -0.07409069      -0.01498011 </v>
   <v>       0.10148190      -0.07076769      -0.02322047 </v>
   <v>       0.13049430      -0.00657426      -0.05212514 </v>
   <v>      -0.12953322      -0.00934525       0.00670013 </v>
   <v>       0.00140077       0.11006652       0.00064852 </v>
   <v>       0.08130999       0.12345897       0.04505654 </v>
   <v>       0.08494639      -0.03939598       0.06590901 </v>
   <v>      -0.09606721      -0.03788249       0.02067809 </v>
   <v>      -0.08879248       0.06640624       0.02965663 </v>
   <v>       0.01101838       0.05383145      -0.02796467 </v>
   <v>      -0.09108961      -0.11528877       0.00443727 </v>
   <v>       0.00277469      -0.09795816      -0.01210396 </v>
  </varray>
  <varray name="stress" >
   <v>     -19.86576633      -0.00745172       0.04673690 </v>
   <v>      -0.00745150     -19.44318812      -0.02655086 </v>
   <v>       0.04673695      -0.02655102      -1.71843996 </v>
  </varray>
  <energy>
   <i name="e_fr_energy">   -188.60237698 </i>
   <i name="e_wo_entrp">   -188.45499028 </i>
   <i name="e_0_energy">     -0.29477340 </i>
  </energy>
  <time name="totalsc">  421.24  422.36</time>
 </calculation>
 <calculation>
  <scstep>
   <time name="dav">   24.07   24.13</time>
   <time name="total">   24.60   24.67</time>
   <energy>
    <i name="alphaZ">     82.35615765 </i>
    <i name="ewald">  41307.69725430 </i>
    <i name="hartreedc"> -47306.57123370 </i>
    <i name="XCdc">   -233.85907391 </i>
    <i name="pawpsdc">   3949.70320759 </i>
    <i name="pawaedc">  -3364.19315082 </i>
    <i name="eentropy">     -0.24439984 </i>
    <i name="bandstr">  -1386.83601697 </i>
    <i name="atom">   6761.44252427 </i>
    <i name="e_fr_energy">   -190.50473142 </i>
    <i name="e_wo_entrp">   -190.26033158 </i>
    <i name="e_0_energy">   -190.38253150 </i>
   </energy>
  </scstep>
  <scstep>
   <time name="dav">   27.75   27.82</time>
   <time name="total">   28.26   28.34</time>
   <energy>
    <i name="e_fr_energy">   -190.56940158 </i>
    <i name="e_wo_entrp">   -190.31658388 </i>
    <i name="e_0_energy">   -190.44299273 </i>
   </energy>
  </scstep>
  <scstep>
   <time name="dav">   30.27   30.34</time>
   <time name="total">   30.79   30.88</time>
   <energy>
    <i name="e_fr_energy">   -189.97064977 </i>
    <i name="e_wo_entrp">   -189.71796956 </i>
    <i name="e_0_energy">   -189.84430966 </i>
   </energy>
  </scstep>
  <scstep>
   <time name="dav">   31.05   31.12</time>
   <time name="total">   31.58   31.67</time>
   <energy>
    <i name="e_fr_energy">   -189.76923538 </i>
    <i name="e_wo_entrp">   -189.51753049 </i>
    <i name="e_0_energy">   -189.64338294 </i>
   </energy>
  </scstep>
  <scstep>
   <time name="dav">   30.02   30.09</time>
   <time name="total">   30.55   30.63</time>
   <energy>
    <i name="e_fr_energy">   -189.70796648 </i>
    <i name="e_wo_entrp">   -189.45983196 </i>
    <i name="e_0_energy">   -189.58389922 </i>
   </energy>
  </scstep>
  <scstep>
   <time name="dav">   30.00   30.07</time>
   <time name="total">   30.53   30.61</time>
   <energy>
    <i name="e_fr_energy">   -189.67199816 </i>
    <i name="e_wo_entrp">   -189.42256777 </i>
    <i name="e_0_energy">   -189.54728297 </i>
   </energy>
  </scstep>
  <scstep>
   <time name="dav">   29.71   29.78</time>
   <time name="total">   30.24   30.32</time>
   <energy>
    <i name="e_fr_energy">   -189.66574920 </i>
    <i name="e_wo_entrp">   -189.41562045 </i>
    <i name="e_0_energy">   -189.54068483 </i>
   </energy>
  </scstep>
  <scstep>
   <time name="dav">   27.39   27.46</time>
   <time name="total">   27.92   28.00</time>
   <energy>
    <i name="e_fr_energy">   -189.66586182 </i>
    <i name="e_wo_entrp">   -189.41600931 </i>
    <i name="e_0_energy">   -189.54093556 </i>
   </energy>
  </scstep>
  <scstep>
   <time name="dav">   26.67   26.73</time>
   <time name="total">   27.20   27.27</time>
   <energy>
    <i name="e_fr_energy">   -189.66622382 </i>
    <i name="e_wo_entrp">   -189.41656170 </i>
    <i name="e_0_energy">   -189.54139276 </i>
   </energy>
  </scstep>
  <scstep>
   <time name="dav">   26.37   26.43</time>
   <time name="total">   26.90   26.98</time>
   <energy>
    <i name="e_fr_energy">   -189.66639745 </i>
    <i name="e_wo_entrp">   -189.41668281 </i>
    <i name="e_0_energy">   -189.54154013 </i>
   </energy>
  </scstep>
  <scstep>
   <time name="dav">   24.13   24.18</time>
   <time name="total">   24.66   24.73</time>
   <energy>
    <i name="e_fr_energy">   -189.66592054 </i>
    <i name="e_wo_entrp">   -189.41608555 </i>
    <i name="e_0_energy">   -189.54100304 </i>
   </energy>
  </scstep>
  <scstep>
   <time name="dav">   17.58   17.62</time>
   <time name="total">   17.62   17.67</time>
   <energy>
    <i name="alphaZ">     82.35615765 </i>
    <i name="ewald">  41307.69725430 </i>
    <i name="hartreedc"> -47279.89708494 </i>
    <i name="XCdc">   -235.25681501 </i>
    <i name="pawpsdc">   4038.27190613 </i>
    <i name="pawaedc">  -3453.96004942 </i>
    <i name="eentropy">     -0.24979713 </i>
    <i name="bandstr">  -1410.07003513 </i>
    <i name="atom">   6761.44252427 </i>
    <i name="e_fr_energy">   -189.66593928 </i>
    <i name="e_wo_entrp">   -189.41614215 </i>
    <i name="e_0_energy">   -189.54104072 </i>
   </energy>
  </scstep>
  <structure>
   <crystal>
    <varray name="basis" >
     <v>       8.66695567       4.99867832       0.00000000 </v>
     <v>      -8.66713700       4.99899197       0.00000000 </v>
     <v>       0.00000000       0.00000000      30.00000000 </v>
    </varray>
    <i name="volume">   2599.50814898 </i>
    <varray name="rec_basis" >
     <v>       0.05769159       0.10002435       0.00000000 </v>
     <v>      -0.05768797       0.10002226       0.00000000 </v>
     <v>       0.00000000       0.00000000       0.03333333 </v>
    </varray>
   </crystal>
   <varray name="positions" >
    <v>       0.00058843       0.66668643      -0.00000750 </v>
    <v>       0.33280669      -0.00051351      -0.00018680 </v>
    <v>       0.99988547       0.33379346       0.00019214 </v>
    <v>       0.33358903       0.66671148       0.00001571 </v>
    <v>      -0.00022720      -0.00023396      -0.00008016 </v>
    <v>       0.66663376       0.33351558       0.00006430 </v>
    <v>       0.33324802       0.33318687      -0.00023147 </v>
    <v>       0.66668934       0.00023625       0.00024038 </v>
    <v>       0.66673926       0.66652519      -0.00000657 </v>
    <v>       0.10988421       0.22522316       0.95203067 </v>
    <v>       0.22513563       0.10972046       0.04795041 </v>
    <v>       0.10652849       0.55345602       0.95315593 </v>
    <v>       0.21787760       0.44145172       0.04806970 </v>
    <v>       0.11333029       0.88666546       0.95305799 </v>
    <v>       0.21988524       0.77983348       0.04690257 </v>
    <v>       0.44134391       0.21797055       0.95188474 </v>
    <v>       0.55148481       0.10812428       0.04803723 </v>
    <v>       0.44491345       0.55481904       0.95069166 </v>
    <v>       0.55502507       0.44502615       0.04925489 </v>
    <v>       0.44292646       0.89189061       0.95198019 </v>
    <v>       0.55666755       0.77838047       0.04931274 </v>
    <v>       0.78171112       0.22327330       0.95198741 </v>
    <v>       0.88987632       0.11513164       0.04811063 </v>
    <v>       0.78169533       0.55831088       0.95193921 </v>
    <v>       0.89334440       0.44629907       0.04689144 </v>
    <v>       0.77660141       0.88810192       0.95074535 </v>
    <v>       0.89003034       0.77462845       0.04799712 </v>
   </varray>
  </structure>
  <varray name="forces" >
   <v>      -0.02298446      -0.00991564      -0.00018431 </v>
   <v>      -0.01933240       0.03208453      -0.00587722 </v>
   <v>       0.02043432      -0.03850269       0.00750072 </v>
   <v>       0.32664728       0.18794275      -0.00081194 </v>
   <v>      -0.15028280      -0.12098295       0.00635296 </v>
   <v>      -0.17778794      -0.07621511      -0.00559845 </v>
   <v>       0.02335173       0.17845183      -0.00035919 </v>
   <v>       0.16103702      -0.06733483      -0.00118793 </v>
   <v>      -0.14861352      -0.09175699      -0.00021915 </v>
   <v>      -0.12024116       0.04218132      -0.49002836 </v>
   <v>       0.09880589       0.03298450       0.43042978 </v>
   <v>      -0.04950277      -0.09937607      -0.37302166 </v>
   <v>      -0.00472237      -0.13142392       0.47487891 </v>
   <v>       0.12803856      -0.00652739      -0.41002607 </v>
   <v>      -0.11407315      -0.00740789       0.35918909 </v>
   <v>       0.01455736      -0.13904093      -0.52803768 </v>
   <v>      -0.02225237      -0.13958109       0.47429663 </v>
   <v>       0.06121612       0.00022144      -0.62393577 </v>
   <v>      -0.06413256      -0.01316951       0.56503803 </v>
   <v>      -0.10310246       0.04889893      -0.49397511 </v>
   <v>       0.04885137       0.06275667       0.61631570 </v>
   <v>       0.08011530       0.08751264      -0.41912702 </v>
   <v>      -0.09506940       0.09566059       0.53165630 </v>
   <v>       0.02961266       0.13558975      -0.46858687 </v>
   <v>       0.04125711       0.12315365       0.42475255 </v>
   <v>      -0.06149829      -0.05545300      -0.55262574 </v>
   <v>       0.11967091      -0.03075060       0.48319178 </v>
  </varray>
  <varray name="stress" >
   <v>     -10.16591738       0.00702091       0.02951083 </v>
   <v>       0.00702089      -9.85510037      -0.02287967 </v>
   <v>       0.02951092      -0.02287962       6.54900250 </v>
  </varray>
  <energy>
   <i name="e_fr_energy">   -189.66593928 </i>
   <i name="e_wo_entrp">   -189.54104072 </i>
   <i name="e_0_energy">     -0.24979713 </i>
  </energy>
  <time name="totalsc">  372.97  373.97</time>
 </calculation>
 <calculation>
  <scstep>
   <time name="dav">   21.59   21.64</time>
   <time name="total">   22.11   22.16</time>
   <energy>
    <i name="alphaZ">     85.86303621 </i>
    <i name="ewald">  42851.46064685 </i>
    <i name="hartreedc"> -48868.62936456 </i>
    <i name="XCdc">   -232.94866692 </i>
    <i name="pawpsdc">   4038.32767046 </i>
    <i name="pawaedc">  -3454.01246852 </i>
    <i name="eentropy">     -0.19683003 </i>
    <i name="bandstr">  -1372.48240559 </i>
    <i name="atom">   6761.44252427 </i>
    <i name="e_fr_energy">   -191.17585784 </i>
    <i name="e_wo_entrp">   -190.97902780 </i>
    <i name="e_0_energy">   -191.07744282 </i>
   </energy>
  </scstep>
  <scstep>
   <time name="dav">   32.62   32.70</time>
   <time name="total">   33.13   33.22</time>
   <energy>
    <i name="e_fr_energy">   -191.12934376 </i>
    <i name="e_wo_entrp">   -190.91809229 </i>
    <i name="e_0_energy">   -191.02371802 </i>
   </energy>
  </scstep>
  <scstep>
   <time name="dav">   30.01   30.08</time>
   <time name="total">   30.52   30.61</time>
   <energy>
    <i name="e_fr_energy">   -191.02496592 </i>
    <i name="e_wo_entrp">   -190.81316289 </i>
    <i name="e_0_energy">   -190.91906441 </i>
   </energy>
  </scstep>
  <scstep>
   <time name="dav">   32.08   32.16</time>
   <time name="total">   32.60   32.69</time>
   <energy>
    <i name="e_fr_energy">   -190.66086171 </i>
    <i name="e_wo_entrp">   -190.45553682 </i>
    <i name="e_0_energy">   -190.55819926 </i>
   </energy>
  </scstep>
  <scstep>
   <time name="dav">   30.02   30.09</time>
   <time name="total">   30.54   30.62</time>
   <energy>
    <i name="e_fr_energy">   -190.60598526 </i>
    <i name="e_wo_entrp">   -190.40135758 </i>
    <i name="e_0_energy">   -190.50367142 </i>
   </energy>
  </scstep>
  <scstep>
   <time name="dav">   30.34   30.42</time>
   <time name="total">   30.86   30.96</time>
   <energy>
    <i name="e_fr_energy">   -190.56562100 </i>
    <i name="e_wo_entrp">   -190.35923515 </i>
    <i name="e_0_energy">   -190.46242808 </i>
   </energy>
  </scstep>
  <scstep>
   <time name="dav">   30.02   30.09</time>
   <time name="total">   30.54   30.62</time>
   <energy>
    <i name="e_fr_energy">   -190.56112757 </i>
    <i name="e_wo_entrp">   -190.35489827 </i>
    <i name="e_0_energy">   -190.45801292 </i>
   </energy>
  </scstep>
  <scstep>
   <time name="dav">   26.66   26.73</time>
   <time name="total">   27.18   27.25</time>
   <energy>
    <i name="e_fr_energy">   -190.55741166 </i>
    <i name="e_wo_entrp">   -190.35179039 </i>
    <i name="e_0_energy">   -190.45460103 </i>
   </energy>
  </scstep>
  <scstep>
   <time name="dav">   28.46   28.53</time>
   <time name="total">   28.97   29.05</time>
   <energy>
    <i name="e_fr_energy">   -190.55818499 </i>
    <i name="e_wo_entrp">   -190.35269998 </i>
    <i name="e_0_energy">   -190.45544248 </i>
   </energy>
  </scstep>
  <scstep>
   <time name="dav">   27.72   27.79</time>
   <time name="total">   28.24   28.32</time>
   <energy>
    <i name="e_fr_energy">   -190.55767313 </i>
    <i name="e_wo_entrp">   -190.35226513 </i>
    <i name="e_0_energy">   -190.45496913 </i>
   </energy>
  </scstep>
  <scstep>
   <time name="dav">   22.52   22.57</time>
   <time name="total">   23.04   23.10</time>
   <energy>
    <i name="e_fr_energy">   -190.55754010 </i>
    <i name="e_wo_entrp">   -190.35209380 </i>
    <i name="e_0_energy">   -190.45481695 </i>
   </energy>
  </scstep>
  <scstep>
   <time name="dav">   20.10   20.15</time>
   <time name="total">   20.14   20.19</time>
   <energy>
    <i name="alphaZ">     85.86303621 </i>
    <i name="ewald">  42851.46064685 </i>
    <i name="hartreedc"> -48839.85221229 </i>
    <i name="XCdc">   -234.31215853 </i>
    <i name="pawpsdc">   4061.96852386 </i>
    <i name="pawaedc">  -3477.81409798 </i>
    <i name="eentropy">     -0.20543876 </i>
    <i name="bandstr">  -1399.10835820 </i>
    <i name="atom">   6761.44252427 </i>
    <i name="e_fr_energy">   -190.55753456 </i>
    <i name="e_wo_entrp">   -190.35209579 </i>
    <i name="e_0_energy">   -190.45481518 </i>
   </energy>
  </scstep>
  <structure>
   <crystal>
    <varray name="basis" >
     <v>       8.48432409       4.89829657       0.00000000 </v>
     <v>      -8.48400651       4.89774552       0.00000000 </v>
     <v>       0.00000000       0.00000000      30.00000000 </v>
    </varray>
    <i name="volume">   2493.33720767 </i>
    <varray name="rec_basis" >
     <v>       0.05893000       0.10208013       0.00000000 </v>
     <v>      -0.05893663       0.10208395       0.00000000 </v>
     <v>       0.00000000       0.00000000       0.03333333 </v>
    </varray>
   </crystal>
   <varray name="positions" >
    <v>       0.00031381       0.66670872      -0.00000692 </v>
    <v>       0.33305531      -0.00010906      -0.00017630 </v>
    <v>       0.99970004       0.33332985       0.00018425 </v>
    <v>       0.33620800       0.66670910       0.00001193 </v>
    <v>      -0.00166809      -0.00044882      -0.00005525 </v>
    <v>       0.66537346       0.33367284       0.00004318 </v>
    <v>       0.33462988       0.33438467      -0.00020123 </v>
    <v>       0.66686421      -0.00094607       0.00020605 </v>
    <v>       0.66544694       0.66649319      -0.00000613 </v>
    <v>       0.10935831       0.22591931       0.95058874 </v>
    <v>       0.22568331       0.10923627       0.04925671 </v>
    <v>       0.10553447       0.55291583       0.95200657 </v>
    <v>       0.21673151       0.44065731       0.04948107 </v>
    <v>       0.11384990       0.88603327       0.95182120 </v>
    <v>       0.21933150       0.78030629       0.04802359 </v>
    <v>       0.44053710       0.21670584       0.95035176 </v>
    <v>       0.55017669       0.10733473       0.04944545 </v>
    <v>       0.44505357       0.55471575       0.94890962 </v>
    <v>       0.55479492       0.44507174       0.05090323 </v>
    <v>       0.44255592       0.89256880       0.95053360 </v>
    <v>       0.55703967       0.77849241       0.05107849 </v>
    <v>       0.78286177       0.22385747       0.95070430 </v>
    <v>       0.89046856       0.11640973       0.04964935 </v>
    <v>       0.78299829       0.55905733       0.95054222 </v>
    <v>       0.89448448       0.44705291       0.04815867 </v>
    <v>       0.77622303       0.88808362       0.94912384 </v>
    <v>       0.89060789       0.77400143       0.04942191 </v>
   </varray>
  </structure>
  <varray name="forces" >
   <v>      -0.05698803      -0.03402478       0.00013651 </v>
   <v>      -0.02662190       0.09633740       0.05237514 </v>
   <v>       0.06993485      -0.07935451      -0.05204543 </v>
   <v>       0.38986411       0.22224151      -0.00051380 </v>
   <v>      -0.19177985      -0.13967120       0.01672644 </v>
   <v>      -0.21722968      -0.09884574      -0.01626360 </v>
   <v>       0.02700026       0.26925834       0.03490046 </v>
   <v>       0.23773676      -0.10685064      -0.03443143 </v>
   <v>      -0.23608056      -0.14719616      -0.00043760 </v>
   <v>      -0.04081115       0.01360911      -0.29618032 </v>
   <v>       0.01068050      -0.01502325       0.22885663 </v>
   <v>       0.01759027       0.01460310      -0.23949019 </v>
   <v>      -0.01091961      -0.02532027       0.32100224 </v>
   <v>       0.02488400      -0.01621940      -0.32226693 </v>
   <v>       0.01460838      -0.00041761       0.23652756 </v>
   <v>       0.00604642      -0.06420551      -0.40795884 </v>
   <v>      -0.01627001      -0.05054095       0.29340848 </v>
   <v>       0.03502233       0.00042297      -0.50200997 </v>
   <v>      -0.01738248      -0.00006693       0.40541445 </v>
   <v>      -0.01698078       0.00489996      -0.32975838 </v>
   <v>       0.01754249       0.03110866       0.50086798 </v>
   <v>      -0.00288647       0.03015879      -0.22412870 </v>
   <v>      -0.05500635       0.03902362       0.40839393 </v>
   <v>       0.01853442       0.05274230      -0.30553785 </v>
   <v>      -0.01482655       0.02967425       0.32362206 </v>
   <v>      -0.00848675      -0.01524759      -0.40360558 </v>
   <v>       0.04282535      -0.01109546       0.31239672 </v>
  </varray>
  <varray name="stress" >
   <v>      -5.88042894       0.00425763      -0.05889526 </v>
   <v>       0.00425762      -5.89051314      -0.02185334 </v>
   <v>      -0.05889510      -0.02185351       4.52379205 </v>
  </varray>
  <energy>
   <i name="e_fr_energy">   -190.55753456 </i>
   <i name="e_wo_entrp">   -190.45481518 </i>
   <i name="e_0_energy">     -0.20543876 </i>
  </energy>
  <time name="totalsc">  380.05  381.08</time>
 </calculation>
 <calculation>
  <scstep>
   <time name="dav">   21.60   21.66</time>
   <time name="total">   22.12   22.17</time>
   <energy>
    <i name="alphaZ">     90.47042312 </i>
    <i name="ewald">  44794.07147705 </i>
    <i name="hartreedc"> -50840.92728303 </i>
    <i name="XCdc">   -231.68256753 </i>
    <i name="pawpsdc">   4061.85309818 </i>
    <i name="pawaedc">  -3477.69420181 </i>
    <i name="eentropy">     -0.15983120 </i>
    <i name="bandstr">  -1349.35612042 </i>
    <i name="atom">   6761.44252427 </i>
    <i name="e_fr_energy">   -191.98248136 </i>
    <i name="e_wo_entrp">   -191.82265016 </i>
    <i name="e_0_energy">   -191.90256576 </i>
   </energy>
  </scstep>
  <scstep>
   <time name="dav">   31.69   31.77</time>
   <time name="total">   32.19   32.28</time>
   <energy>
    <i name="e_fr_energy">   -191.66922105 </i>
    <i name="e_wo_entrp">   -191.48845754 </i>
    <i name="e_0_energy">   -191.57883929 </i>
   </energy>
  </scstep>
  <scstep>
   <time name="dav">   29.86   29.94</time>
   <time name="total">   30.38   30.46</time>
   <energy>
    <i name="e_fr_energy">   -191.98683837 </i>
    <i name="e_wo_entrp">   -191.81028013 </i>
    <i name="e_0_energy">   -191.89855925 </i>
   </energy>
  </scstep>
  <scstep>
   <time name="dav">   30.01   30.08</time>
   <time name="total">   30.52   30.60</time>
   <energy>
    <i name="e_fr_energy">   -191.34496235 </i>
    <i name="e_wo_entrp">   -191.17177716 </i>
    <i name="e_0_energy">   -191.25836976 </i>
   </energy>
  </scstep>
  <scstep>
   <time name="dav">   29.94   30.01</time>
   <time name="total">   30.45   30.53</time>
   <energy>
    <i name="e_fr_energy">   -191.29652501 </i>
    <i name="e_wo_entrp">   -191.12735945 </i>
    <i name="e_0_energy">   -191.21194223 </i>
   </energy>
  </scstep>
  <scstep>
   <time name="dav">   29.65   29.72</time>
   <time name="total">   30.16   30.24</time>
   <energy>
    <i name="e_fr_energy">   -191.12382439 </i>
    <i name="e_wo_entrp">   -190.95276228 </i>
    <i name="e_0_energy">   -191.03829333 </i>
   </energy>
  </scstep>
  <scstep>
   <time name="dav">   30.07   30.14</time>
   <time name="total">   30.58   30.66</time>
   <energy>
    <i name="e_fr_energy">   -191.12223652 </i>
    <i name="e_wo_entrp">   -190.95103745 </i>
    <i name="e_0_energy">   -191.03663699 </i>
   </energy>
  </scstep>
  <scstep>
   <time name="dav">   27.11   27.17</time>
   <time name="total">   27.62   27.69</time>
   <energy>
    <i name="e_fr_energy">   -191.11896298 </i>
    <i name="e_wo_entrp">   -190.94856803 </i>
    <i name="e_0_energy">   -191.03376551 </i>
   </energy>
  </scstep>
  <scstep>
   <time name="dav">   28.24   28.31</time>
   <time name="total">   28.75   28.83</time>
   <energy>
    <i name="e_fr_energy">   -191.11978670 </i>
    <i name="e_wo_entrp">   -190.94962023 </i>
    <i name="e_0_energy">   -191.03470346 </i>
   </energy>
  </scstep>
  <scstep>
   <time name="dav">   30.00   30.07</time>
   <time name="total">   30.51   30.59</time>
   <energy>
    <i name="e_fr_energy">   -191.11939468 </i>
    <i name="e_wo_entrp">   -190.94929517 </i>
    <i name="e_0_energy">   -191.03434493 </i>
   </energy>
  </scstep>
  <scstep>
   <time name="dav">   25.04   25.10</time>
   <time name="total">   25.56   25.63</time>
   <energy>
    <i name="e_fr_energy">   -191.11915598 </i>
    <i name="e_wo_entrp">   -190.94906918 </i>
    <i name="e_0_energy">   -191.03411258 </i>
   </energy>
  </scstep>
  <scstep>
   <time name="dav">   19.93   19.98</time>
   <time name="total">   19.96   20.02</time>
   <energy>
    <i name="alphaZ">     90.47042312 </i>
    <i name="ewald">  44794.07147705 </i>
    <i name="hartreedc"> -50804.52142092 </i>
    <i name="XCdc">   -233.36406777 </i>
    <i name="pawpsdc">   4081.22007780 </i>
    <i name="pawaedc">  -3497.08995509 </i>
    <i name="eentropy">     -0.17014534 </i>
    <i name="bandstr">  -1383.17802150 </i>
    <i name="atom">   6761.44252427 </i>
    <i name="e_fr_energy">   -191.11910837 </i>
    <i name="e_wo_entrp">   -190.94896304 </i>
    <i name="e_0_energy">   -191.03403571 </i>
   </energy>
  </scstep>
  <structure>
   <crystal>
    <varray name="basis" >
     <v>       8.26589860       4.77238337       0.00000000 </v>
     <v>      -8.26498570       4.77080061       0.00000000 </v>
     <v>       0.00000000       0.00000000      30.00000000 </v>
    </varray>
    <i name="volume">   2366.35903273 </i>
    <varray name="rec_basis" >
     <v>       0.06048280       0.10478104       0.00000000 </v>
     <v>      -0.06050287       0.10479262       0.00000000 </v>
     <v>       0.00000000       0.00000000       0.03333333 </v>
    </varray>
   </crystal>
   <varray name="positions" >
    <v>      -0.00061094       0.66670396      -0.00000537 </v>
    <v>       0.33411446       0.00134279       0.00003383 </v>
    <v>       0.99920772       0.33176036      -0.00002473 </v>
    <v>       0.34204413       0.66667797       0.00000711 </v>
    <v>      -0.00492208      -0.00082336       0.00002192 </v>
    <v>       0.66245344       0.33399839      -0.00002923 </v>
    <v>       0.33827919       0.33762961      -0.00004003 </v>
    <v>       0.66725717      -0.00409608       0.00004457 </v>
    <v>       0.66183642       0.66637121      -0.00000674 </v>
    <v>       0.10877286       0.22651461       0.94874628 </v>
    <v>       0.22572417       0.10856050       0.05081194 </v>
    <v>       0.10534840       0.55272433       0.95049167 </v>
    <v>       0.21578461       0.44024087       0.05140421 </v>
    <v>       0.11406514       0.88540518       0.94997855 </v>
    <v>       0.21917633       0.78044099       0.04952059 </v>
    <v>       0.43966347       0.21530065       0.94807610 </v>
    <v>       0.54883255       0.10667203       0.05126790 </v>
    <v>       0.44524024       0.55458019       0.94618524 </v>
    <v>       0.55469941       0.44509636       0.05323740 </v>
    <v>       0.44211631       0.89291648       0.94857391 </v>
    <v>       0.55740762       0.77865424       0.05379395 </v>
    <v>       0.78378259       0.22466886       0.94917191 </v>
    <v>       0.89102538       0.11784681       0.05192646 </v>
    <v>       0.78437287       0.55972571       0.94867915 </v>
    <v>       0.89523513       0.44780051       0.05001432 </v>
    <v>       0.77607685       0.88806550       0.94680442 </v>
    <v>       0.89123101       0.77343580       0.05131453 </v>
   </varray>
  </structure>
  <varray name="forces" >
   <v>      -0.05416017      -0.03080356       0.00060975 </v>
   <v>      -0.04113340       0.12184030       0.02127282 </v>
   <v>       0.08698309      -0.10612105      -0.02323287 </v>
   <v>       0.26940282       0.15448590       0.00101580 </v>
   <v>      -0.16701404      -0.14768126       0.00322805 </v>
   <v>      -0.21046932      -0.07201501      -0.00412933 </v>
   <v>       0.02780056       0.30277579      -0.01333005 </v>
   <v>       0.27476894      -0.12617403       0.01258747 </v>
   <v>      -0.21901461      -0.12812350       0.00204789 </v>
   <v>       0.07558360       0.02281347       0.04310374 </v>
   <v>      -0.11477965      -0.01788100      -0.07418365 </v>
   <v>       0.09482677       0.13123221       0.06975572 </v>
   <v>       0.03159509       0.09737494       0.01183047 </v>
   <v>      -0.08879667      -0.00118894       0.00734460 </v>
   <v>       0.16146790       0.02014627      -0.06666404 </v>
   <v>      -0.06084103       0.00841870      -0.10018929 </v>
   <v>       0.05399985       0.05381743      -0.03699251 </v>
   <v>       0.04038603       0.00697028      -0.25127252 </v>
   <v>      -0.00331132       0.05380779       0.17620858 </v>
   <v>       0.09641500      -0.01620205      -0.00923602 </v>
   <v>       0.02273065       0.02918673       0.24682846 </v>
   <v>      -0.07654348      -0.08996963       0.06696891 </v>
   <v>      -0.02886566      -0.05744992       0.10283481 </v>
   <v>      -0.08566908      -0.05265217      -0.00400007 </v>
   <v>      -0.04529636      -0.07651937      -0.00915224 </v>
   <v>       0.04946382      -0.03043334      -0.17336717 </v>
   <v>      -0.08952930      -0.04965499       0.00011271 </v>
  </varray>
  <varray name="stress" >
   <v>      -0.37033958       0.11375414      -0.06302048 </v>
   <v>       0.11375413      -0.47576019       0.08491362 </v>
   <v>      -0.06302045       0.08491348      -0.46775688 </v>
  </varray>
  <energy>
   <i name="e_fr_energy">   -191.11910837 </i>
   <i name="e_wo_entrp">   -191.03403571 </i>
   <i name="e_0_energy">     -0.17014534 </i>
  </energy>
  <time name="totalsc">  380.64  381.65</time>
 </calculation>
 <calculation>
  <scstep>
   <time name="dav">   21.59   21.64</time>
   <time name="total">   22.10   22.15</time>
   <energy>
    <i name="alphaZ">     90.78804150 </i>
    <i name="ewald">  44920.66913770 </i>
    <i name="hartreedc"> -50935.30655040 </i>
    <i name="XCdc">   -233.21176746 </i>
    <i name="pawpsdc">   4081.07447037 </i>
    <i name="pawaedc">  -3496.93886618 </i>
    <i name="eentropy">     -0.17325547 </i>
    <i name="bandstr">  -1379.50982067 </i>
    <i name="atom">   6761.44252427 </i>
    <i name="e_fr_energy">   -191.16608634 </i>
    <i name="e_wo_entrp">   -190.99283087 </i>
    <i name="e_0_energy">   -191.07945860 </i>
   </energy>
  </scstep>
  <scstep>
   <time name="dav">   32.65   32.73</time>
   <time name="total">   33.15   33.24</time>
   <energy>
    <i name="e_fr_energy">   -191.19765687 </i>
    <i name="e_wo_entrp">   -191.02474856 </i>
    <i name="e_0_energy">   -191.11120271 </i>
   </energy>
  </scstep>
  <scstep>
   <time name="dav">   30.58   30.65</time>
   <time name="total">   31.09   31.17</time>
   <energy>
    <i name="e_fr_energy">   -191.17264297 </i>
    <i name="e_wo_entrp">   -190.99837999 </i>
    <i name="e_0_energy">   -191.08551148 </i>
   </energy>
  </scstep>
  <scstep>
   <time name="dav">   26.76   26.82</time>
   <time name="total">   27.26   27.34</time>
   <energy>
    <i name="e_fr_energy">   -191.16949500 </i>
    <i name="e_wo_entrp">   -190.99518579 </i>
    <i name="e_0_energy">   -191.08234040 </i>
   </energy>
  </scstep>
  <scstep>
   <time name="dav">   28.70   28.77</time>
   <time name="total">   29.21   29.29</time>
   <energy>
    <i name="e_fr_energy">   -191.16867467 </i>
    <i name="e_wo_entrp">   -190.99546965 </i>
    <i name="e_0_energy">   -191.08207216 </i>
   </energy>
  </scstep>
  <scstep>
   <time name="dav">   28.83   28.90</time>
   <time name="total">   29.34   29.41</time>
   <energy>
    <i name="e_fr_energy">   -191.16727386 </i>
    <i name="e_wo_entrp">   -190.99344099 </i>
    <i name="e_0_energy">   -191.08035743 </i>
   </energy>
  </scstep>
  <scstep>
   <time name="dav">   26.28   26.35</time>
   <time name="total">   26.79   26.86</time>
   <energy>
    <i name="e_fr_energy">   -191.16700421 </i>
    <i name="e_wo_entrp">   -190.99299542 </i>
    <i name="e_0_energy">   -191.07999981 </i>
   </energy>
  </scstep>
  <scstep>
   <time name="dav">   19.25   19.29</time>
   <time name="total">   19.28   19.33</time>
   <energy>
    <i name="alphaZ">     90.78804150 </i>
    <i name="ewald">  44920.66913770 </i>
    <i name="hartreedc"> -50933.57304995 </i>
    <i name="XCdc">   -233.31391150 </i>
    <i name="pawpsdc">   4081.11846173 </i>
    <i name="pawaedc">  -3496.96795670 </i>
    <i name="eentropy">     -0.17388225 </i>
    <i name="bandstr">  -1381.15632018 </i>
    <i name="atom">   6761.44252427 </i>
    <i name="e_fr_energy">   -191.16695538 </i>
    <i name="e_wo_entrp">   -190.99307313 </i>
    <i name="e_0_energy">   -191.08001425 </i>
   </energy>
  </scstep>
  <structure>
   <crystal>
    <varray name="basis" >
     <v>       8.25417723       4.76597716       0.00000000 </v>
     <v>      -8.25020370       4.75909314       0.00000000 </v>
     <v>       0.00000000       0.00000000      30.00000000 </v>
    </varray>
    <i name="volume">   2358.08041893 </i>
    <varray name="rec_basis" >
     <v>       0.06054619       0.10496084       0.00000000 </v>
     <v>      -0.06063377       0.10501140       0.00000000 </v>
     <v>       0.00000000       0.00000000       0.03333333 </v>
    </varray>
   </crystal>
   <varray name="positions" >
    <v>      -0.00097807       0.66670650      -0.00000426 </v>
    <v>       0.33467826       0.00217502       0.00007745 </v>
    <v>       0.99889084       0.33086599      -0.00007164 </v>
    <v>       0.34391661       0.66667131       0.00000861 </v>
    <v>      -0.00634712      -0.00111132       0.00003037 </v>
    <v>       0.66131117       0.33427478      -0.00003897 </v>
    <v>       0.34011746       0.33928153      -0.00005655 </v>
    <v>       0.66744503      -0.00573496       0.00005977 </v>
    <v>       0.66034404       0.66635824      -0.00000324 </v>
    <v>       0.10909694       0.22642736       0.94873941 </v>
    <v>       0.22527885       0.10878592       0.05075538 </v>
    <v>       0.10632559       0.55312117       0.95054407 </v>
    <v>       0.21635688       0.44064546       0.05150700 </v>
    <v>       0.11379764       0.88564517       0.94991325 </v>
    <v>       0.21977153       0.78006031       0.04947268 </v>
    <v>       0.43948681       0.21547076       0.94781038 </v>
    <v>       0.54922577       0.10676618       0.05128426 </v>
    <v>       0.44540730       0.55449046       0.94564482 </v>
    <v>       0.55497446       0.44539316       0.05363622 </v>
    <v>       0.44230305       0.89254798       0.94847422 </v>
    <v>       0.55764373       0.77874365       0.05432639 </v>
    <v>       0.78311047       0.22446230       0.94921709 </v>
    <v>       0.89065935       0.11769246       0.05219672 </v>
    <v>       0.78388882       0.55973573       0.94859176 </v>
    <v>       0.89472366       0.44756378       0.05007718 </v>
    <v>       0.77606403       0.88775168       0.94641113 </v>
    <v>       0.89072135       0.77342383       0.05139640 </v>
   </varray>
  </structure>
  <varray name="forces" >
   <v>      -0.02975889      -0.01603786      -0.00050197 </v>
   <v>      -0.04924572       0.10070876       0.02575942 </v>
   <v>       0.06337167      -0.10244334      -0.02577934 </v>
   <v>       0.24922994       0.14407016      -0.00145819 </v>
   <v>      -0.16804957      -0.19330291       0.00442358 </v>
   <v>      -0.24816581      -0.04898721      -0.00320113 </v>
   <v>       0.04551987       0.31314320       0.01112891 </v>
   <v>       0.29303071      -0.11417783      -0.01097444 </v>
   <v>      -0.17730348      -0.10338570      -0.00005790 </v>
   <v>       0.05689756       0.02898055       0.06629881 </v>
   <v>      -0.09697176       0.00020828      -0.10887718 </v>
   <v>       0.07164135       0.08946506       0.10719861 </v>
   <v>       0.03479180       0.06497999      -0.01534059 </v>
   <v>      -0.06140830       0.00702988       0.04640018 </v>
   <v>       0.11412120       0.01894192      -0.10320186 </v>
   <v>      -0.04755396       0.00101256      -0.08493411 </v>
   <v>       0.05145543       0.03559570      -0.06328071 </v>
   <v>       0.02948318       0.01217983      -0.20364017 </v>
   <v>      -0.01923860       0.04597025       0.14092157 </v>
   <v>       0.07261658       0.00064849       0.01474920 </v>
   <v>       0.02269519       0.01888094       0.20308496 </v>
   <v>      -0.04954731      -0.08330020       0.10376078 </v>
   <v>      -0.02682322      -0.04189083       0.08600834 </v>
   <v>      -0.07295160      -0.03469176       0.01219223 </v>
   <v>      -0.02363680      -0.05655860      -0.04884191 </v>
   <v>       0.03302067      -0.04002575      -0.13977887 </v>
   <v>      -0.06722015      -0.04701357      -0.01205822 </v>
  </varray>
  <varray name="stress" >
   <v>       0.11321782       0.05237139      -0.04762660 </v>
   <v>       0.05237146       0.05949283       0.06565786 </v>
   <v>      -0.04762665       0.06565772      -1.03849053 </v>
  </varray>
  <energy>
   <i name="e_fr_energy">   -191.16695538 </i>
   <i name="e_wo_entrp">   -191.08001425 </i>
   <i name="e_0_energy">     -0.17388225 </i>
  </energy>
  <time name="totalsc">  260.12  260.81</time>
 </calculation>
 <calculation>
  <scstep>
   <time name="dav">   21.61   21.66</time>
   <time name="total">   22.12   22.17</time>
   <energy>
    <i name="alphaZ">     90.74993234 </i>
    <i name="ewald">  44893.53847300 </i>
    <i name="hartreedc"> -50906.32397126 </i>
    <i name="XCdc">   -233.37720814 </i>
    <i name="pawpsdc">   4081.23866733 </i>
    <i name="pawaedc">  -3497.08927119 </i>
    <i name="eentropy">     -0.18048396 </i>
    <i name="bandstr">  -1381.20165325 </i>
    <i name="atom">   6761.44252427 </i>
    <i name="e_fr_energy">   -191.20299085 </i>
    <i name="e_wo_entrp">   -191.02250689 </i>
    <i name="e_0_energy">   -191.11274887 </i>
   </energy>
  </scstep>
  <scstep>
   <time name="dav">   32.98   33.06</time>
   <time name="total">   33.49   33.58</time>
   <energy>
    <i name="e_fr_energy">   -191.24411646 </i>
    <i name="e_wo_entrp">   -191.06489640 </i>
    <i name="e_0_energy">   -191.15450643 </i>
   </energy>
  </scstep>
  <scstep>
   <time name="dav">   30.84   30.91</time>
   <time name="total">   31.35   31.43</time>
   <energy>
    <i name="e_fr_energy">   -191.20686237 </i>
    <i name="e_wo_entrp">   -191.02643691 </i>
    <i name="e_0_energy">   -191.11664964 </i>
   </energy>
  </scstep>
  <scstep>
   <time name="dav">   28.61   28.68</time>
   <time name="total">   29.12   29.20</time>
   <energy>
    <i name="e_fr_energy">   -191.20659210 </i>
    <i name="e_wo_entrp">   -191.02584663 </i>
    <i name="e_0_energy">   -191.11621937 </i>
   </energy>
  </scstep>
  <scstep>
   <time name="dav">   29.27   29.34</time>
   <time name="total">   29.79   29.86</time>
   <energy>
    <i name="e_fr_energy">   -191.20629617 </i>
    <i name="e_wo_entrp">   -191.02618860 </i>
    <i name="e_0_energy">   -191.11624238 </i>
   </energy>
  </scstep>
  <scstep>
   <time name="dav">   25.91   25.97</time>
   <time name="total">   26.42   26.49</time>
   <energy>
    <i name="e_fr_energy">   -191.20566131 </i>
    <i name="e_wo_entrp">   -191.02524526 </i>
    <i name="e_0_energy">   -191.11545328 </i>
   </energy>
  </scstep>
  <scstep>
   <time name="dav">   25.69   25.75</time>
   <time name="total">   25.72   25.79</time>
   <energy>
    <i name="alphaZ">     90.74993234 </i>
    <i name="ewald">  44893.53847300 </i>
    <i name="hartreedc"> -50907.16213738 </i>
    <i name="XCdc">   -233.35621190 </i>
[...]
      <set comment="kpoint 31">
       <r>  -17.5778    1.0000 </r>
       <r>  -17.3230    1.0000 </r>
       <r>  -16.8668    1.0000 </r>
       <r>  -16.7672    1.0000 </r>
       <r>  -16.5262    1.0000 </r>
       <r>  -16.4447    1.0000 </r>
       <r>  -16.3733    1.0000 </r>
       <r>  -16.2121    1.0000 </r>
       <r>  -16.1632    1.0000 </r>
       <r>  -16.0344    1.0000 </r>
       <r>  -15.8906    1.0000 </r>
       <r>  -15.8090    1.0000 </r>
       <r>  -15.7650    1.0000 </r>
       <r>  -15.6180    1.0000 </r>
       <r>  -15.5928    1.0000 </r>
       <r>  -15.4368    1.0000 </r>
       <r>  -15.3661    1.0000 </r>
       <r>  -15.2115    1.0000 </r>
       <r>   -9.8485    1.0000 </r>
       <r>   -9.4835    1.0000 </r>
       <r>   -9.4153    1.0000 </r>
       <r>   -9.1643    1.0000 </r>
       <r>   -8.8165    1.0000 </r>
       <r>   -8.6880    1.0000 </r>
       <r>   -8.6549    1.0000 </r>
       <r>   -8.5921    1.0000 </r>
       <r>   -8.3821    1.0000 </r>
       <r>   -8.2731    1.0000 </r>
       <r>   -8.2239    1.0000 </r>
       <r>   -8.1831    1.0000 </r>
       <r>   -8.0958    1.0000 </r>
       <r>   -8.0755    1.0000 </r>
       <r>   -7.9521    1.0000 </r>
       <r>   -7.9252    1.0000 </r>
       <r>   -7.8736    1.0000 </r>
       <r>   -7.8067    1.0000 </r>
       <r>   -7.4923    1.0000 </r>
       <r>   -7.4330    1.0000 </r>
       <r>   -7.3636    1.0000 </r>
       <r>   -7.3251    1.0000 </r>
       <r>   -7.1353    1.0000 </r>
       <r>   -7.0560    1.0000 </r>
       <r>   -6.9601    1.0000 </r>
       <r>   -6.9232    1.0000 </r>
       <r>   -6.8685    1.0000 </r>
       <r>   -6.7477    1.0000 </r>
       <r>   -6.6605    1.0000 </r>
       <r>   -6.6173    1.0000 </r>
       <r>   -6.5520    1.0000 </r>
       <r>   -6.4748    1.0000 </r>
       <r>   -6.4088    1.0000 </r>
       <r>   -6.3422    1.0000 </r>
       <r>   -6.2900    1.0000 </r>
       <r>   -6.1659    1.0000 </r>
       <r>   -6.0957    1.0000 </r>
       <r>   -6.0309    1.0000 </r>
       <r>   -5.9605    1.0000 </r>
       <r>   -5.9408    1.0000 </r>
       <r>   -5.8517    1.0000 </r>
       <r>   -5.7537    1.0000 </r>
       <r>   -5.6564    1.0000 </r>
       <r>   -5.5965    1.0000 </r>
       <r>   -5.4866    1.0000 </r>
       <r>   -5.3889    1.0000 </r>
       <r>   -5.2813    1.0000 </r>
       <r>   -5.1666    1.0000 </r>
       <r>   -5.0857    1.0000 </r>
       <r>   -4.8651    1.0000 </r>
       <r>   -4.7214    1.0000 </r>
       <r>   -4.6800    1.0000 </r>
       <r>   -4.5811    1.0000 </r>
       <r>   -4.4665    1.0000 </r>
       <r>   -4.4181    1.0000 </r>
       <r>   -4.3948    1.0000 </r>
       <r>   -4.1419    1.0000 </r>
       <r>   -4.0204    1.0000 </r>
       <r>   -3.8653    0.9999 </r>
       <r>   -3.5397    0.9246 </r>
       <r>   -3.4352    0.7572 </r>
       <r>   -3.3148    0.4388 </r>
       <r>   -3.0951    0.0439 </r>
       <r>   -2.9533    0.0034 </r>
       <r>   -2.8577    0.0004 </r>
       <r>   -2.6373    0.0000 </r>
       <r>   -2.5728    0.0000 </r>
       <r>   -2.5091    0.0000 </r>
       <r>   -2.2903    0.0000 </r>
       <r>   -2.2398    0.0000 </r>
       <r>   -2.1508    0.0000 </r>
       <r>   -1.9763    0.0000 </r>
       <r>   -1.8118    0.0000 </r>
       <r>   -1.6440    0.0000 </r>
       <r>   -1.3285    0.0000 </r>
       <r>   -1.2252    0.0000 </r>
       <r>   -1.0874    0.0000 </r>
       <r>   -1.0357    0.0000 </r>
       <r>   -0.9989    0.0000 </r>
       <r>   -0.9371    0.0000 </r>
       <r>   -0.8478    0.0000 </r>
       <r>   -0.8191    0.0000 </r>
       <r>   -0.7886    0.0000 </r>
       <r>   -0.7308    0.0000 </r>
       <r>   -0.6328    0.0000 </r>
       <r>   -0.5681    0.0000 </r>
       <r>   -0.4971    0.0000 </r>
       <r>   -0.4617    0.0000 </r>
       <r>   -0.2308    0.0000 </r>
       <r>   -0.0616    0.0000 </r>
       <r>   -0.0179    0.0000 </r>
       <r>    0.2163    0.0000 </r>
       <r>    0.2628    0.0000 </r>
       <r>    0.4911    0.0000 </r>
       <r>    0.6659    0.0000 </r>
       <r>    0.9035    0.0000 </r>
       <r>    1.2103    0.0000 </r>
       <r>    1.2464    0.0000 </r>
       <r>    1.3342    0.0000 </r>
       <r>    2.1079    0.0000 </r>
       <r>    2.3020    0.0000 </r>
       <r>    2.3698    0.0000 </r>
      </set>
      <set comment="kpoint 32">
       <r>  -17.6077    1.0000 </r>
       <r>  -17.2371    1.0000 </r>
       <r>  -16.9693    1.0000 </r>
       <r>  -16.7695    1.0000 </r>
       <r>  -16.5127    1.0000 </r>
       <r>  -16.4121    1.0000 </r>
       <r>  -16.3089    1.0000 </r>
       <r>  -16.2446    1.0000 </r>
       <r>  -16.1202    1.0000 </r>
       <r>  -16.0528    1.0000 </r>
       <r>  -15.9347    1.0000 </r>
       <r>  -15.8416    1.0000 </r>
       <r>  -15.7649    1.0000 </r>
       <r>  -15.6235    1.0000 </r>
       <r>  -15.5852    1.0000 </r>
       <r>  -15.4263    1.0000 </r>
       <r>  -15.3649    1.0000 </r>
       <r>  -15.2042    1.0000 </r>
       <r>   -9.7993    1.0000 </r>
       <r>   -9.5610    1.0000 </r>
       <r>   -9.4411    1.0000 </r>
       <r>   -9.2061    1.0000 </r>
       <r>   -8.7048    1.0000 </r>
       <r>   -8.6500    1.0000 </r>
       <r>   -8.5639    1.0000 </r>
       <r>   -8.4414    1.0000 </r>
       <r>   -8.4227    1.0000 </r>
       <r>   -8.3497    1.0000 </r>
       <r>   -8.2803    1.0000 </r>
       <r>   -8.2414    1.0000 </r>
       <r>   -8.1145    1.0000 </r>
       <r>   -8.0891    1.0000 </r>
       <r>   -8.0056    1.0000 </r>
       <r>   -7.9453    1.0000 </r>
       <r>   -7.8601    1.0000 </r>
       <r>   -7.8111    1.0000 </r>
       <r>   -7.5729    1.0000 </r>
       <r>   -7.4006    1.0000 </r>
       <r>   -7.2809    1.0000 </r>
       <r>   -7.2454    1.0000 </r>
       <r>   -7.1718    1.0000 </r>
       <r>   -7.0759    1.0000 </r>
       <r>   -7.0201    1.0000 </r>
       <r>   -6.9196    1.0000 </r>
       <r>   -6.8515    1.0000 </r>
       <r>   -6.7463    1.0000 </r>
       <r>   -6.6815    1.0000 </r>
       <r>   -6.5600    1.0000 </r>
       <r>   -6.5320    1.0000 </r>
       <r>   -6.4668    1.0000 </r>
       <r>   -6.4116    1.0000 </r>
       <r>   -6.3747    1.0000 </r>
       <r>   -6.2882    1.0000 </r>
       <r>   -6.2410    1.0000 </r>
       <r>   -6.1408    1.0000 </r>
       <r>   -6.0282    1.0000 </r>
       <r>   -5.9636    1.0000 </r>
       <r>   -5.8860    1.0000 </r>
       <r>   -5.8598    1.0000 </r>
       <r>   -5.7018    1.0000 </r>
       <r>   -5.6620    1.0000 </r>
       <r>   -5.5475    1.0000 </r>
       <r>   -5.4822    1.0000 </r>
       <r>   -5.3895    1.0000 </r>
       <r>   -5.2282    1.0000 </r>
       <r>   -5.1732    1.0000 </r>
       <r>   -5.0671    1.0000 </r>
       <r>   -4.9449    1.0000 </r>
       <r>   -4.8134    1.0000 </r>
       <r>   -4.6741    1.0000 </r>
       <r>   -4.5981    1.0000 </r>
       <r>   -4.5136    1.0000 </r>
       <r>   -4.4014    1.0000 </r>
       <r>   -4.3547    1.0000 </r>
       <r>   -4.1106    1.0000 </r>
       <r>   -4.0017    1.0000 </r>
       <r>   -3.8027    0.9995 </r>
       <r>   -3.5986    0.9681 </r>
       <r>   -3.4919    0.8639 </r>
       <r>   -3.3341    0.4930 </r>
       <r>   -3.0711    0.0302 </r>
       <r>   -2.9146    0.0014 </r>
       <r>   -2.7850    0.0000 </r>
       <r>   -2.6025    0.0000 </r>
       <r>   -2.5653    0.0000 </r>
       <r>   -2.4918    0.0000 </r>
       <r>   -2.3084    0.0000 </r>
       <r>   -2.2351    0.0000 </r>
       <r>   -2.1759    0.0000 </r>
       <r>   -2.0123    0.0000 </r>
       <r>   -1.7856    0.0000 </r>
       <r>   -1.6577    0.0000 </r>
       <r>   -1.3742    0.0000 </r>
       <r>   -1.2001    0.0000 </r>
       <r>   -1.1494    0.0000 </r>
       <r>   -1.0389    0.0000 </r>
       <r>   -1.0011    0.0000 </r>
       <r>   -0.9728    0.0000 </r>
       <r>   -0.8824    0.0000 </r>
       <r>   -0.8380    0.0000 </r>
       <r>   -0.7772    0.0000 </r>
       <r>   -0.7505    0.0000 </r>
       <r>   -0.5900    0.0000 </r>
       <r>   -0.5699    0.0000 </r>
       <r>   -0.4616    0.0000 </r>
       <r>   -0.3641    0.0000 </r>
       <r>   -0.2047    0.0000 </r>
       <r>   -0.1130    0.0000 </r>
       <r>    0.0338    0.0000 </r>
       <r>    0.1835    0.0000 </r>
       <r>    0.2655    0.0000 </r>
       <r>    0.4715    0.0000 </r>
       <r>    0.6508    0.0000 </r>
       <r>    0.9207    0.0000 </r>
       <r>    1.1539    0.0000 </r>
       <r>    1.2460    0.0000 </r>
       <r>    1.3386    0.0000 </r>
       <r>    2.0726    0.0000 </r>
       <r>    2.2693    0.0000 </r>
       <r>    2.4837    0.0000 </r>
      </set>
      <set comment="kpoint 33">
       <r>  -17.6185    1.0000 </r>
       <r>  -17.2410    1.0000 </r>
       <r>  -16.9032    1.0000 </r>
       <r>  -16.7716    1.0000 </r>
       <r>  -16.5289    1.0000 </r>
       <r>  -16.4893    1.0000 </r>
       <r>  -16.3714    1.0000 </r>
       <r>  -16.1800    1.0000 </r>
       <r>  -16.0611    1.0000 </r>
       <r>  -16.0086    1.0000 </r>
       <r>  -15.9607    1.0000 </r>
       <r>  -15.8644    1.0000 </r>
       <r>  -15.7517    1.0000 </r>
       <r>  -15.6495    1.0000 </r>
       <r>  -15.5887    1.0000 </r>
       <r>  -15.4194    1.0000 </r>
       <r>  -15.3747    1.0000 </r>
       <r>  -15.2003    1.0000 </r>
       <r>   -9.8241    1.0000 </r>
       <r>   -9.4962    1.0000 </r>
       <r>   -9.3990    1.0000 </r>
       <r>   -9.2049    1.0000 </r>
       <r>   -8.8380    1.0000 </r>
       <r>   -8.7014    1.0000 </r>
       <r>   -8.5480    1.0000 </r>
       <r>   -8.4905    1.0000 </r>
       <r>   -8.4155    1.0000 </r>
       <r>   -8.3393    1.0000 </r>
       <r>   -8.2638    1.0000 </r>
       <r>   -8.2164    1.0000 </r>
       <r>   -8.1138    1.0000 </r>
       <r>   -8.0475    1.0000 </r>
       <r>   -8.0123    1.0000 </r>
       <r>   -7.9240    1.0000 </r>
       <r>   -7.8310    1.0000 </r>
       <r>   -7.7349    1.0000 </r>
       <r>   -7.6284    1.0000 </r>
       <r>   -7.3932    1.0000 </r>
       <r>   -7.2936    1.0000 </r>
       <r>   -7.1931    1.0000 </r>
       <r>   -7.1159    1.0000 </r>
       <r>   -7.0956    1.0000 </r>
       <r>   -7.0317    1.0000 </r>
       <r>   -6.9154    1.0000 </r>
       <r>   -6.8247    1.0000 </r>
       <r>   -6.7699    1.0000 </r>
       <r>   -6.6960    1.0000 </r>
       <r>   -6.6006    1.0000 </r>
       <r>   -6.5385    1.0000 </r>
       <r>   -6.4922    1.0000 </r>
       <r>   -6.4144    1.0000 </r>
       <r>   -6.3498    1.0000 </r>
       <r>   -6.2998    1.0000 </r>
       <r>   -6.2403    1.0000 </r>
       <r>   -6.1397    1.0000 </r>
       <r>   -6.0719    1.0000 </r>
       <r>   -5.9562    1.0000 </r>
       <r>   -5.8979    1.0000 </r>
       <r>   -5.8546    1.0000 </r>
       <r>   -5.7835    1.0000 </r>
       <r>   -5.6843    1.0000 </r>
       <r>   -5.6081    1.0000 </r>
       <r>   -5.4687    1.0000 </r>
       <r>   -5.3440    1.0000 </r>
       <r>   -5.2766    1.0000 </r>
       <r>   -5.1153    1.0000 </r>
       <r>   -5.0529    1.0000 </r>
       <r>   -4.8668    1.0000 </r>
       <r>   -4.8084    1.0000 </r>
       <r>   -4.6640    1.0000 </r>
       <r>   -4.6097    1.0000 </r>
       <r>   -4.5303    1.0000 </r>
       <r>   -4.4089    1.0000 </r>
       <r>   -4.2545    1.0000 </r>
       <r>   -4.1164    1.0000 </r>
       <r>   -3.9885    1.0000 </r>
       <r>   -3.8009    0.9995 </r>
       <r>   -3.6814    0.9926 </r>
       <r>   -3.5209    0.9037 </r>
       <r>   -3.4034    0.6816 </r>
       <r>   -2.9913    0.0073 </r>
       <r>   -2.8931    0.0009 </r>
       <r>   -2.7458    0.0000 </r>
       <r>   -2.6038    0.0000 </r>
       <r>   -2.5410    0.0000 </r>
       <r>   -2.4548    0.0000 </r>
       <r>   -2.3478    0.0000 </r>
       <r>   -2.2286    0.0000 </r>
       <r>   -2.1773    0.0000 </r>
       <r>   -2.0125    0.0000 </r>
       <r>   -1.7580    0.0000 </r>
       <r>   -1.6515    0.0000 </r>
       <r>   -1.4300    0.0000 </r>
       <r>   -1.2086    0.0000 </r>
       <r>   -1.1502    0.0000 </r>
       <r>   -1.0505    0.0000 </r>
       <r>   -1.0184    0.0000 </r>
       <r>   -0.9859    0.0000 </r>
       <r>   -0.9332    0.0000 </r>
       <r>   -0.8886    0.0000 </r>
       <r>   -0.7758    0.0000 </r>
       <r>   -0.7267    0.0000 </r>
       <r>   -0.6090    0.0000 </r>
       <r>   -0.5752    0.0000 </r>
       <r>   -0.3904    0.0000 </r>
       <r>   -0.3337    0.0000 </r>
       <r>   -0.1858    0.0000 </r>
       <r>   -0.1513    0.0000 </r>
       <r>   -0.0259    0.0000 </r>
       <r>    0.2342    0.0000 </r>
       <r>    0.3328    0.0000 </r>
       <r>    0.4873    0.0000 </r>
       <r>    0.5961    0.0000 </r>
       <r>    0.9308    0.0000 </r>
       <r>    1.1190    0.0000 </r>
       <r>    1.2707    0.0000 </r>
       <r>    1.3635    0.0000 </r>
       <r>    2.0886    0.0000 </r>
       <r>    2.2991    0.0000 </r>
       <r>    2.3582    0.0000 </r>
      </set>
      <set comment="kpoint 34">
       <r>  -17.6192    1.0000 </r>
       <r>  -17.2649    1.0000 </r>
       <r>  -16.7810    1.0000 </r>
       <r>  -16.7724    1.0000 </r>
       <r>  -16.6503    1.0000 </r>
       <r>  -16.4984    1.0000 </r>
       <r>  -16.3834    1.0000 </r>
       <r>  -16.1644    1.0000 </r>
       <r>  -16.0487    1.0000 </r>
       <r>  -16.0069    1.0000 </r>
       <r>  -15.9058    1.0000 </r>
       <r>  -15.8840    1.0000 </r>
       <r>  -15.7161    1.0000 </r>
       <r>  -15.6991    1.0000 </r>
       <r>  -15.5923    1.0000 </r>
       <r>  -15.4153    1.0000 </r>
       <r>  -15.3819    1.0000 </r>
       <r>  -15.2000    1.0000 </r>
       <r>   -9.8485    1.0000 </r>
       <r>   -9.4294    1.0000 </r>
       <r>   -9.3626    1.0000 </r>
       <r>   -9.1428    1.0000 </r>
       <r>   -8.9933    1.0000 </r>
       <r>   -8.7866    1.0000 </r>
       <r>   -8.5749    1.0000 </r>
       <r>   -8.4895    1.0000 </r>
       <r>   -8.3843    1.0000 </r>
       <r>   -8.3266    1.0000 </r>
       <r>   -8.2705    1.0000 </r>
       <r>   -8.1801    1.0000 </r>
       <r>   -8.1278    1.0000 </r>
       <r>   -8.0281    1.0000 </r>
       <r>   -7.9976    1.0000 </r>
       <r>   -7.9463    1.0000 </r>
       <r>   -7.7677    1.0000 </r>
       <r>   -7.7313    1.0000 </r>
       <r>   -7.5258    1.0000 </r>
       <r>   -7.3993    1.0000 </r>
       <r>   -7.3284    1.0000 </r>
       <r>   -7.2556    1.0000 </r>
       <r>   -7.1158    1.0000 </r>
       <r>   -7.0578    1.0000 </r>
       <r>   -7.0095    1.0000 </r>
       <r>   -6.9272    1.0000 </r>
       <r>   -6.8472    1.0000 </r>
       <r>   -6.7212    1.0000 </r>
       <r>   -6.6703    1.0000 </r>
       <r>   -6.6220    1.0000 </r>
       <r>   -6.5705    1.0000 </r>
       <r>   -6.5206    1.0000 </r>
       <r>   -6.4417    1.0000 </r>
       <r>   -6.3577    1.0000 </r>
       <r>   -6.2956    1.0000 </r>
       <r>   -6.2166    1.0000 </r>
       <r>   -6.1326    1.0000 </r>
       <r>   -6.0509    1.0000 </r>
       <r>   -5.9632    1.0000 </r>
       <r>   -5.9155    1.0000 </r>
       <r>   -5.8608    1.0000 </r>
       <r>   -5.8356    1.0000 </r>
       <r>   -5.7450    1.0000 </r>
       <r>   -5.5808    1.0000 </r>
       <r>   -5.5246    1.0000 </r>
       <r>   -5.3421    1.0000 </r>
       <r>   -5.2946    1.0000 </r>
       <r>   -5.1092    1.0000 </r>
       <r>   -4.9160    1.0000 </r>
       <r>   -4.8786    1.0000 </r>
       <r>   -4.7657    1.0000 </r>
       <r>   -4.7165    1.0000 </r>
       <r>   -4.5903    1.0000 </r>
       <r>   -4.5307    1.0000 </r>
       <r>   -4.4138    1.0000 </r>
       <r>   -4.1945    1.0000 </r>
       <r>   -4.0942    1.0000 </r>
       <r>   -3.9839    1.0000 </r>
       <r>   -3.8366    0.9998 </r>
       <r>   -3.7356    0.9976 </r>
       <r>   -3.5258    0.9095 </r>
       <r>   -3.4338    0.7541 </r>
       <r>   -2.9396    0.0025 </r>
       <r>   -2.9038    0.0011 </r>
       <r>   -2.7358    0.0000 </r>
       <r>   -2.6117    0.0000 </r>
       <r>   -2.5268    0.0000 </r>
       <r>   -2.4314    0.0000 </r>
       <r>   -2.3690    0.0000 </r>
       <r>   -2.2301    0.0000 </r>
       <r>   -2.1741    0.0000 </r>
       <r>   -1.9972    0.0000 </r>
       <r>   -1.7474    0.0000 </r>
       <r>   -1.6413    0.0000 </r>
       <r>   -1.4622    0.0000 </r>
       <r>   -1.2204    0.0000 </r>
       <r>   -1.1265    0.0000 </r>
       <r>   -1.0627    0.0000 </r>
       <r>   -1.0181    0.0000 </r>
       <r>   -1.0014    0.0000 </r>
       <r>   -0.9359    0.0000 </r>
       <r>   -0.9228    0.0000 </r>
       <r>   -0.7825    0.0000 </r>
       <r>   -0.7072    0.0000 </r>
       <r>   -0.6477    0.0000 </r>
       <r>   -0.5719    0.0000 </r>
       <r>   -0.3737    0.0000 </r>
       <r>   -0.2960    0.0000 </r>
       <r>   -0.2207    0.0000 </r>
       <r>   -0.1429    0.0000 </r>
       <r>   -0.0771    0.0000 </r>
       <r>    0.2907    0.0000 </r>
       <r>    0.3941    0.0000 </r>
       <r>    0.4842    0.0000 </r>
       <r>    0.5478    0.0000 </r>
       <r>    0.9285    0.0000 </r>
       <r>    1.1150    0.0000 </r>
       <r>    1.2957    0.0000 </r>
       <r>    1.3746    0.0000 </r>
       <r>    2.1225    0.0000 </r>
       <r>    2.2615    0.0000 </r>
       <r>    2.3847    0.0000 </r>
      </set>
     </set>
    </set>
   </array>
  </eigenvalues>
  <separator name="orbital magnetization" >
   <v name="MAGDIPOLOUT">      0.00000000      0.00000000      0.00000000</v>
  </separator>
 </calculation>
 <structure name="finalpos" >
  <crystal>
   <varray name="basis" >
    <v>       8.35463652       4.82486912       0.00000000 </v>
    <v>      -8.33803221       4.79606429       0.00000000 </v>
    <v>       0.00000000       0.00000000      30.00000000 </v>
   </varray>
   <i name="volume">   2408.97864110 </i>
   <varray name="rec_basis" >
    <v>       0.05972736       0.10383694       0.00000000 </v>
    <v>      -0.06008608       0.10404372       0.00000000 </v>
    <v>       0.00000000       0.00000000       0.03333333 </v>
   </varray>
  </crystal>
  <varray name="positions" >
   <v>      -0.02192686       0.66645133       0.00005873 </v>
   <v>       0.31702978       0.01901543      -0.00085172 </v>
   <v>       0.96379583       0.31213370       0.00139908 </v>
   <v>       0.37071122       0.66793707      -0.00028749 </v>
   <v>      -0.02469043      -0.01837189       0.00050090 </v>
   <v>       0.66033494       0.35163919      -0.00044385 </v>
   <v>       0.36802703       0.35581525      -0.00065127 </v>
   <v>       0.67915198      -0.02181584       0.00044739 </v>
   <v>       0.66866439       0.66652738      -0.00001033 </v>
   <v>       0.11308578       0.22947222       0.95666133 </v>
   <v>       0.22150565       0.11901682       0.04972701 </v>
   <v>       0.11105471       0.55326151       0.95822776 </v>
   <v>       0.21861634       0.44115475       0.04747965 </v>
   <v>       0.10820528       0.88545192       0.94920197 </v>
   <v>       0.22415068       0.77968064       0.04207133 </v>
   <v>       0.44134022       0.22046296       0.94553986 </v>
   <v>       0.55008454       0.10355932       0.04331543 </v>
   <v>       0.45543663       0.55570535       0.94280595 </v>
   <v>       0.56165853       0.45141907       0.05660264 </v>
   <v>       0.44531217       0.89309561       0.95187227 </v>
   <v>       0.56605835       0.77773746       0.05694730 </v>
   <v>       0.77006223       0.21500744       0.95022615 </v>
   <v>       0.88685677       0.11160904       0.05479242 </v>
   <v>       0.78483827       0.55849901       0.94548908 </v>
   <v>       0.88881371       0.44746323       0.05095200 </v>
   <v>       0.77722146       0.88175771       0.94336044 </v>
   <v>       0.89281523       0.77452880       0.05456585 </v>
  </varray>
 </structure>
</modeling>
