unknown system                          
           1
     8.855279    5.104983    0.000000
    -8.855381    5.105159    0.000000
     0.000000    0.000000   30.000000
   V    Mo   W    S 
   3   3   3  18
Direct configuration=     1
   0.00000000  0.66666669  0.00000000
   0.33333334  0.00000000  0.00000000
   1.00000000  0.33333334  0.00000000
   0.33333334  0.66666669  0.00000000
   0.00000000  0.00000000  0.00000000
   0.66666669  0.33333334  0.00000000
   0.33333334  0.33333334  0.00000000
   0.66666669  0.00000000  0.00000000
   0.66666669  0.66666669  0.00000000
   0.11068511  0.22244981  0.95539999
   0.22244981  0.11068511  0.04460000
   0.11068511  0.55578315  0.95539999
   0.22244981  0.44401845  0.04460000
   0.11068511  0.88911647  0.95539999
   0.22244981  0.77735180  0.04460000
   0.44401845  0.22244981  0.95539999
   0.55578315  0.11068511  0.04460000
   0.44401845  0.55578315  0.95539999
   0.55578315  0.44401845  0.04460000
   0.44401845  0.88911647  0.95539999
   0.55578315  0.77735180  0.04460000
   0.77735180  0.22244981  0.95539999
   0.88911647  0.11068511  0.04460000
   0.77735180  0.55578315  0.95539999
   0.88911647  0.44401845  0.04460000
   0.77735180  0.88911647  0.95539999
   0.88911647  0.77735180  0.04460000
unknown system                          
           1
     8.666956    4.998678    0.000000
    -8.667137    4.998992    0.000000
     0.000000    0.000000   30.000000
   V    Mo   W    S 
   3   3   3  18
Direct configuration=     2
   0.00054099  0.66668172 -0.00000675
   0.33284990 -0.00049703 -0.00016831
   0.99991835  0.33377885  0.00017222
   0.33313055  0.66671254  0.00001477
   0.00002860 -0.00017623 -0.00007595
   0.66684063  0.33346620  0.00006114
   0.33304512  0.33301906 -0.00021059
   0.66665627  0.00038642  0.00021979
   0.66691723  0.66653927 -0.00000585
   0.10969250  0.22503391  0.95202570
   0.22497367  0.10953801  0.04798130
   0.10661507  0.55351071  0.95311762
   0.21789915  0.44167605  0.04808388
   0.11328239  0.88671472  0.95303363
   0.21994483  0.77980676  0.04694899
   0.44157137  0.21799082  0.95189326
   0.55150532  0.10834040  0.04805044
   0.44479867  0.55495579  0.95072132
   0.55516554  0.44491693  0.04925108
   0.44274110  0.89170795  0.95197982
   0.55638279  0.77825244  0.04928710
   0.78169511  0.22342103  0.95194991
   0.89003225  0.11510239  0.04809887
   0.78166989  0.55811429  0.95192234
   0.89324378  0.44621970  0.04690735
   0.77688195  0.88820686  0.95074282
   0.89019143  0.77479489  0.04800401
unknown system                          
           1
     8.484324    4.898297    0.000000
    -8.484007    4.897746    0.000000
     0.000000    0.000000   30.000000
   V    Mo   W    S 
   3   3   3  18
Direct configuration=     3
   0.00058843  0.66668643 -0.00000750
   0.33280669 -0.00051351 -0.00018680
   0.99988547  0.33379346  0.00019214
   0.33358903  0.66671148  0.00001571
  -0.00022720 -0.00023396 -0.00008016
   0.66663376  0.33351558  0.00006430
   0.33324802  0.33318687 -0.00023147
   0.66668934  0.00023625  0.00024038
   0.66673926  0.66652519 -0.00000657
   0.10988421  0.22522316  0.95203067
   0.22513563  0.10972046  0.04795041
   0.10652849  0.55345602  0.95315593
   0.21787760  0.44145172  0.04806970
   0.11333029  0.88666546  0.95305799
   0.21988524  0.77983348  0.04690257
   0.44134391  0.21797055  0.95188474
   0.55148481  0.10812428  0.04803723
   0.44491345  0.55481904  0.95069166
   0.55502507  0.44502615  0.04925489
   0.44292646  0.89189061  0.95198019
   0.55666755  0.77838047  0.04931274
   0.78171112  0.22327330  0.95198741
   0.88987632  0.11513164  0.04811063
   0.78169533  0.55831088  0.95193921
   0.89334440  0.44629907  0.04689144
   0.77660141  0.88810192  0.95074535
   0.89003034  0.77462845  0.04799712
unknown system                          
           1
     8.265899    4.772383    0.000000
    -8.264986    4.770801    0.000000
     0.000000    0.000000   30.000000
   V    Mo   W    S 
   3   3   3  18
Direct configuration=     4
   0.00031381  0.66670872 -0.00000692
   0.33305531 -0.00010906 -0.00017630
   0.99970004  0.33332985  0.00018425
   0.33620800  0.66670910  0.00001193
  -0.00166809 -0.00044882 -0.00005525
   0.66537346  0.33367284  0.00004318
   0.33462988  0.33438467 -0.00020123
   0.66686421 -0.00094607  0.00020605
   0.66544694  0.66649319 -0.00000613
   0.10935831  0.22591931  0.95058874
   0.22568331  0.10923627  0.04925671
   0.10553447  0.55291583  0.95200657
   0.21673151  0.44065731  0.04948107
   0.11384990  0.88603327  0.95182120
   0.21933150  0.78030629  0.04802359
   0.44053710  0.21670584  0.95035176
   0.55017669  0.10733473  0.04944545
   0.44505357  0.55471575  0.94890962
   0.55479492  0.44507174  0.05090323
   0.44255592  0.89256880  0.95053360
   0.55703967  0.77849241  0.05107849
   0.78286177  0.22385747  0.95070430
   0.89046856  0.11640973  0.04964935
   0.78299829  0.55905733  0.95054222
   0.89448448  0.44705291  0.04815867
   0.77622303  0.88808362  0.94912384
   0.89060789  0.77400143  0.04942191
unknown system                          
           1
     8.254177    4.765977    0.000000
    -8.250204    4.759093    0.000000
     0.000000    0.000000   30.000000
   V    Mo   W    S 
   3   3   3  18
Direct configuration=     5
  -0.00061094  0.66670396 -0.00000537
   0.33411446  0.00134279  0.00003383
   0.99920772  0.33176036 -0.00002473
   0.34204413  0.66667797  0.00000711
  -0.00492208 -0.00082336  0.00002192
   0.66245344  0.33399839 -0.00002923
   0.33827919  0.33762961 -0.00004003
   0.66725717 -0.00409608  0.00004457
   0.66183642  0.66637121 -0.00000674
   0.10877286  0.22651461  0.94874628
   0.22572417  0.10856050  0.05081194
   0.10534840  0.55272433  0.95049167
   0.21578461  0.44024087  0.05140421
   0.11406514  0.88540518  0.94997855
   0.21917633  0.78044099  0.04952059
   0.43966347  0.21530065  0.94807610
   0.54883255  0.10667203  0.05126790
   0.44524024  0.55458019  0.94618524
   0.55469941  0.44509636  0.05323740
   0.44211631  0.89291648  0.94857391
   0.55740762  0.77865424  0.05379395
   0.78378259  0.22466886  0.94917191
   0.89102538  0.11784681  0.05192646
   0.78437287  0.55972571  0.94867915
   0.89523513  0.44780051  0.05001432
   0.77607685  0.88806550  0.94680442
   0.89123101  0.77343580  0.05131453
unknown system                          
           1
     8.257209    4.767817    0.000000
    -8.251859    4.758549    0.000000
     0.000000    0.000000   30.000000
   V    Mo   W    S 
   3   3   3  18
Direct configuration=     6
  -0.00097807  0.66670650 -0.00000426
   0.33467826  0.00217502  0.00007745
   0.99889084  0.33086599 -0.00007164
   0.34391661  0.66667131  0.00000861
  -0.00634712 -0.00111132  0.00003037
   0.66131117  0.33427478 -0.00003897
   0.34011746  0.33928153 -0.00005655
   0.66744503 -0.00573496  0.00005977
   0.66034404  0.66635824 -0.00000324
   0.10909694  0.22642736  0.94873941
   0.22527885  0.10878592  0.05075538
   0.10632559  0.55312117  0.95054407
   0.21635688  0.44064546  0.05150700
   0.11379764  0.88564517  0.94991325
   0.21977153  0.78006031  0.04947268
   0.43948681  0.21547076  0.94781038
   0.54922577  0.10676618  0.05128426
   0.44540730  0.55449046  0.94564482
   0.55497446  0.44539316  0.05363622
   0.44230305  0.89254798  0.94847422
   0.55764373  0.77874365  0.05432639
   0.78311047  0.22446230  0.94921709
   0.89065935  0.11769246  0.05219672
   0.78388882  0.55973573  0.94859176
   0.89472366  0.44756378  0.05007718
   0.77606403  0.88775168  0.94641113
   0.89072135  0.77342383  0.05139640
unknown system                          
           1
     8.260415    4.769766    0.000000
    -8.252154    4.755457    0.000000
     0.000000    0.000000   30.000000
   V    Mo   W    S 
   3   3   3  18
Direct configuration=     7
  -0.00115550  0.66671255 -0.00000509
   0.33506258  0.00286076  0.00012101
   0.99854177  0.33012771 -0.00011524
   0.34544808  0.66667212  0.00000616
  -0.00788648 -0.00162071  0.00003792
   0.66029054  0.33477368 -0.00004447
   0.34191768  0.34080425 -0.00003769
   0.66773546 -0.00723914  0.00004117
   0.65925032  0.66635272 -0.00000333
   0.10942251  0.22640767  0.94884731
   0.22498398  0.10908178  0.05057558
   0.10701721  0.55337549  0.95072118
   0.21680510  0.44088262  0.05148481
   0.11364773  0.88586889  0.94998776
   0.22021973  0.77981200  0.04930225
   0.43934567  0.21561894  0.94766368
   0.54956865  0.10679639  0.05118141
   0.44556188  0.55446459  0.94529788
   0.55515898  0.44569509  0.05387719
   0.44252695  0.89232986  0.94849537
   0.55781335  0.77877449  0.05467236
   0.78252043  0.22417465  0.94938832
   0.89035706  0.11755527  0.05234524
   0.78348510  0.55977605  0.94860879
   0.89435363  0.44733802  0.04999860
   0.77595321  0.88743910  0.94617211
   0.89026883  0.77337961  0.05137962
unknown system                          
           1
     8.260133    4.769565    0.000000
    -8.252676    4.756647    0.000000
     0.000000    0.000000   30.000000
   V    Mo   W    S 
   3   3   3  18
Direct configuration=     8
  -0.00118875  0.66671273 -0.00000708
   0.33557282  0.00382709  0.00019384
   0.99798927  0.32905523 -0.00019004
   0.34758863  0.66667370  0.00000517
  -0.01057848 -0.00266114  0.00006599
   0.65870280  0.33581411 -0.00007000
   0.34475178  0.34316799 -0.00005099
   0.66826468 -0.00955545  0.00005457
   0.65784575  0.66635333  0.00000014
   0.10990174  0.22637068  0.94908718
   0.22459755  0.10957394  0.05023595
   0.10783501  0.55361657  0.95102025
   0.21739581  0.44113833  0.05141331
   0.11347303  0.88616542  0.95013692
   0.22080415  0.77956984  0.04901305
   0.43913987  0.21582793  0.94748046
   0.55008781  0.10684486  0.05094817
   0.44575350  0.55443245  0.94483994
   0.55546046  0.44623290  0.05425269
   0.44287864  0.89209378  0.94855954
   0.55802569  0.77881131  0.05512545
   0.78165153  0.22369537  0.94971775
   0.88993532  0.11736496  0.05253564
   0.78301802  0.55987840  0.94864133
   0.89389486  0.44704211  0.04984642
   0.77572104  0.88689424  0.94579515
   0.88969194  0.77327376  0.05134909
unknown system                          
           1
     8.260419    4.769776    0.000000
    -8.253484    4.757763    0.000000
     0.000000    0.000000   30.000000
   V    Mo   W    S 
   3   3   3  18
Direct configuration=     9
  -0.00116117  0.66671218 -0.00000663
   0.33541396  0.00353684  0.00017206
   0.99814706  0.32937485 -0.00016759
   0.34691305  0.66667378  0.00000530
  -0.00981509 -0.00238895  0.00005721
   0.65917842  0.33554324 -0.00006194
   0.34391342  0.34245039 -0.00004799
   0.66812866 -0.00885080  0.00005149
   0.65831740  0.66635375 -0.00000092
   0.10975669  0.22637575  0.94902174
   0.22471065  0.10942878  0.05033184
   0.10757129  0.55353297  0.95093083
   0.21721136  0.44105236  0.05143189
   0.11352932  0.88607436  0.95009443
   0.22062103  0.77965240  0.04909965
   0.43920394  0.21576509  0.94753633
   0.54993738  0.10683584  0.05101150
   0.44569343  0.55444518  0.94498189
   0.55537178  0.44607880  0.05414088
   0.44277555  0.89217301  0.94854294
   0.55795711  0.77879770  0.05498512
   0.78190773  0.22383662  0.94962464
   0.89006522  0.11742261  0.05247805
   0.78316896  0.55985125  0.94862995
   0.89403964  0.44713317  0.04989018
   0.77578467  0.88705085  0.94590705
   0.88987300  0.77330241  0.05136002
unknown system                          
           1
     8.259933    4.769041    0.000000
    -8.251915    4.755153    0.000000
     0.000000    0.000000   30.000000
   V    Mo   W    S 
   3   3   3  18
Direct configuration=    10
  -0.00107216  0.66674639 -0.00000591
   0.33537997  0.00347636  0.00016315
   0.99817926  0.32944908 -0.00015381
   0.34690901  0.66670594  0.00000497
  -0.01001072 -0.00257595  0.00005679
   0.65911140  0.33568342 -0.00006121
   0.34408356  0.34256375 -0.00005102
   0.66812976 -0.00900524  0.00005457
   0.65832384  0.66636545 -0.00000152
   0.10976014  0.22634261  0.94903810
   0.22470236  0.10940293  0.05030640
   0.10751320  0.55350319  0.95092038
   0.21714682  0.44099355  0.05142015
   0.11355347  0.88607761  0.95010546
   0.22059839  0.77970282  0.04910466
   0.43919907  0.21572881  0.94755118
   0.54994903  0.10685450  0.05098773
   0.44571868  0.55447634  0.94500934
   0.55538885  0.44611808  0.05413971
   0.44276358  0.89223903  0.94855969
   0.55795295  0.77876822  0.05495814
   0.78190097  0.22384655  0.94964185
   0.89009279  0.11744002  0.05246811
   0.78323732  0.55990625  0.94863759
   0.89405257  0.44714415  0.04988429
   0.77576250  0.88701265  0.94590743
   0.88988784  0.77324795  0.05135367
unknown system                          
           1
     8.252738    4.764131    0.000000
    -8.241189    4.744130    0.000000
     0.000000    0.000000   30.000000
   V    Mo   W    S 
   3   3   3  18
Direct configuration=    11
  -0.00162007  0.66660368 -0.00000401
   0.33557340  0.00390390  0.00014384
   0.99789343  0.32889394 -0.00014295
   0.34783750  0.66660961  0.00000658
  -0.00973932 -0.00206351  0.00004068
   0.65910202  0.33534985 -0.00003866
   0.34402624  0.34283021 -0.00005527
   0.66800324 -0.00911924  0.00006212
   0.65773314  0.66630966  0.00001099
   0.10984407  0.22651883  0.94895178
   0.22474030  0.10954834  0.05037952
   0.10776703  0.55361825  0.95101468
   0.21730093  0.44110881  0.05145897
   0.11350713  0.88615336  0.95012603
   0.22072083  0.77951669  0.04900852
   0.43910611  0.21574046  0.94748034
   0.54991679  0.10672785  0.05107200
   0.44574192  0.55436474  0.94485646
   0.55542469  0.44608525  0.05417278
   0.44284001  0.89208944  0.94853195
   0.55807922  0.77888693  0.05508665
   0.78185005  0.22375540  0.94956998
   0.89002728  0.11753743  0.05255347
   0.78298624  0.55981361  0.94863162
   0.89397506  0.44702916  0.04987090
   0.77583571  0.88704008  0.94587246
   0.88974153  0.77336170  0.05133847
unknown system                          
           1
     8.257300    4.766877    0.000000
    -8.243625    4.743192    0.000000
     0.000000    0.000000   30.000000
   V    Mo   W    S 
   3   3   3  18
Direct configuration=    12
  -0.00356088  0.66618797 -0.00000717
   0.33611264  0.00560245  0.00017712
   0.99654548  0.32675520 -0.00019827
   0.35101152  0.66638155 -0.00000257
  -0.00932654 -0.00070613  0.00003353
   0.65879099  0.33452012 -0.00003247
   0.34435010  0.34375855 -0.00003879
   0.66794301 -0.00962330  0.00003854
   0.65608448  0.66611791  0.00001273
   0.11008742  0.22700625  0.94878192
   0.22484555  0.11009839  0.05044209
   0.10863411  0.55397040  0.95145841
   0.21785922  0.44147079  0.05153059
   0.11336574  0.88649879  0.95023145
   0.22117105  0.77895072  0.04854772
   0.43891242  0.21588930  0.94730386
   0.54982324  0.10637424  0.05120905
   0.44600144  0.55408764  0.94430406
   0.55560711  0.44612837  0.05427884
   0.44313451  0.89164563  0.94850742
   0.55860236  0.77922012  0.05559195
   0.78153440  0.22335117  0.94948477
   0.88980142  0.11770342  0.05281778
   0.78208938  0.55952479  0.94865602
   0.89362753  0.44658805  0.04982054
   0.77597611  0.88696976  0.94578768
   0.88919065  0.77374231  0.05126310
unknown system                          
           1
     8.276597    4.778395    0.000000
    -8.260846    4.751113    0.000000
     0.000000    0.000000   30.000000
   V    Mo   W    S 
   3   3   3  18
Direct configuration=    13
  -0.00471379  0.66599930 -0.00001125
   0.33639431  0.00689073  0.00025141
   0.99540158  0.32519347 -0.00027349
   0.35317183  0.66633201 -0.00000865
  -0.00997227 -0.00044005  0.00004207
   0.65817187  0.33452455 -0.00004241
   0.34540228  0.34473783 -0.00003905
   0.66825814 -0.01042173  0.00003889
   0.65518726  0.66600723  0.00000536
   0.11029838  0.22720026  0.94879834
   0.22479980  0.11053148  0.05033618
   0.10925270  0.55418548  0.95183328
   0.21825476  0.44169212  0.05151744
   0.11329064  0.88679137  0.95032328
   0.22152941  0.77862974  0.04815842
   0.43882754  0.21605043  0.94717142
   0.54989239  0.10623910  0.05115701
   0.44626735  0.55396206  0.94388466
   0.55582706  0.44634443  0.05443111
   0.44335081  0.89141003  0.94854178
   0.55900265  0.77938941  0.05599066
   0.78108742  0.22297312  0.94955746
   0.88959645  0.11766200  0.05301674
   0.78153756  0.55940913  0.94864317
   0.89333097  0.44626839  0.04977420
   0.77597675  0.88673402  0.94565154
   0.88879062  0.77391853  0.05125035
unknown system                          
           1
     8.275065    4.777664    0.000000
    -8.260217    4.751946    0.000000
     0.000000    0.000000   30.000000
   V    Mo   W    S 
   3   3   3  18
Direct configuration=    14
  -0.00570308  0.66596089 -0.00000674
   0.33639708  0.00828236  0.00030810
   0.99385707  0.32360036 -0.00029902
   0.35506555  0.66651328  0.00000072
  -0.01217163 -0.00149507 -0.00000802
   0.65712524  0.33574026  0.00002444
   0.34770764  0.34616934 -0.00013179
   0.66913461 -0.01189530  0.00016005
   0.65492676  0.66594290  0.00002487
   0.11058032  0.22711466  0.94905155
   0.22452424  0.11104999  0.05008892
   0.10981630  0.55434100  0.95231708
   0.21861222  0.44183494  0.05131872
   0.11324726  0.88710543  0.95045717
   0.22188188  0.77842426  0.04766790
   0.43881168  0.21623064  0.94700940
   0.55024747  0.10634239  0.05086159
   0.44657948  0.55386137  0.94359590
   0.55619215  0.44678193  0.05466113
   0.44358897  0.89133318  0.94871986
   0.55946166  0.77950242  0.05625259
   0.78024492  0.22243011  0.94976394
   0.88935704  0.11741642  0.05321845
   0.78127990  0.55940761  0.94851377
   0.89298646  0.44597793  0.04967022
   0.77591934  0.88628997  0.94541162
   0.88854392  0.77395116  0.05134748
unknown system                          
           1
     8.277733    4.779092    0.000000
    -8.260907    4.749947    0.000000
     0.000000    0.000000   30.000000
   V    Mo   W    S 
   3   3   3  18
Direct configuration=    15
  -0.00495298  0.66613056 -0.00001351
   0.33612764  0.00782684  0.00030854
   0.99406693  0.32417823 -0.00030321
   0.35391546  0.66661830 -0.00001468
  -0.01311854 -0.00256822  0.00001623
   0.65705677  0.33664860 -0.00002316
   0.34815011  0.34602609 -0.00012672
   0.66953393 -0.01191250  0.00012739
   0.65579663  0.66603185  0.00000214
   0.11055002  0.22684168  0.94925326
   0.22435191  0.11089445  0.04995321
   0.10946017  0.55414471  0.95220338
   0.21847543  0.44165249  0.05120184
   0.11326569  0.88695577  0.95043556
   0.22174168  0.77870210  0.04781241
   0.43895116  0.21624465  0.94706940
   0.55045568  0.10656362  0.05069586
   0.44650353  0.55403101  0.94384251
   0.55611438  0.44689229  0.05468715
   0.44361473  0.89155978  0.94880577
   0.55923109  0.77931039  0.05606200
   0.78018945  0.22251802  0.94993106
   0.88943119  0.11726874  0.05311979
   0.78168029  0.55952432  0.94849369
   0.89308966  0.44616217  0.04966183
   0.77572406  0.88618692  0.94539399
   0.88880839  0.77378161  0.05140417
unknown system                          
           1
     8.273699    4.776545    0.000000
    -8.259818    4.752504    0.000000
     0.000000    0.000000   30.000000
   V    Mo   W    S 
   3   3   3  18
Direct configuration=    16
  -0.00588304  0.66602099 -0.00001461
   0.33619443  0.00889357  0.00034320
   0.99293538  0.32290220 -0.00033193
   0.35545394  0.66666236 -0.00001853
  -0.01422130 -0.00293693 -0.00000319
   0.65652080  0.33722299 -0.00000450
   0.34938121  0.34686830 -0.00016118
   0.67004525 -0.01268331  0.00016331
   0.65547571  0.66596355  0.00000429
   0.11073546  0.22687290  0.94937965
   0.22421185  0.11126146  0.04982245
   0.10986795  0.55426135  0.95254295
   0.21877772  0.44177032  0.05108768
   0.11319610  0.88715651  0.95052819
   0.22198867  0.77851228  0.04747437
   0.43894118  0.21638625  0.94696739
   0.55064756  0.10657107  0.05054971
   0.44671323  0.55394584  0.94363058
   0.55630849  0.44712892  0.05481575
   0.44383963  0.89145901  0.94891658
   0.55954712  0.77941299  0.05626393
   0.77969250  0.22216870  0.95004621
   0.88928605  0.11716841  0.05325833
   0.78140125  0.55945488  0.94844086
   0.89285140  0.44594779  0.04959191
   0.77568746  0.88594036  0.94527065
   0.88861845  0.77388170  0.05143585
unknown system                          
           1
     8.282920    4.782548    0.000000
    -8.267580    4.755979    0.000000
     0.000000    0.000000   30.000000
   V    Mo   W    S 
   3   3   3  18
Direct configuration=    17
  -0.00401714  0.66621993 -0.00001408
   0.33591089  0.00699010  0.00030201
   0.99460607  0.32494053 -0.00029496
   0.35295860  0.66661288 -0.00000100
  -0.01392342 -0.00343226  0.00003522
   0.65715782  0.33750196 -0.00002903
   0.34854301  0.34628488 -0.00012575
   0.66970229 -0.01213077  0.00014517
   0.65619973  0.66606535  0.00001580
   0.11053908  0.22661054  0.94938871
   0.22417240  0.11074404  0.04985806
   0.10909469  0.55397459  0.95201987
   0.21831498  0.44149071  0.05115533
   0.11319917  0.88673306  0.95041484
   0.22154992  0.77889547  0.04802999
   0.43902736  0.21631347  0.94711349
   0.55070671  0.10678800  0.05058980
   0.44638778  0.55414666  0.94401631
   0.55605138  0.44697841  0.05470544
   0.44359425  0.89172932  0.94881338
   0.55898209  0.77916017  0.05588863
   0.78020642  0.22266150  0.95005056
   0.88943610  0.11716780  0.05302235
   0.78205651  0.55973268  0.94851543
   0.89322326  0.44638255  0.04963797
   0.77557773  0.88611495  0.94534924
   0.88895678  0.77353792  0.05139712
unknown system                          
           1
     8.284660    4.783479    0.000000
    -8.267734    4.754162    0.000000
     0.000000    0.000000   30.000000
   V    Mo   W    S 
   3   3   3  18
Direct configuration=    18
  -0.00251087  0.66647360 -0.00002234
   0.33578421  0.00625569  0.00033289
   0.99514970  0.32571276 -0.00032122
   0.35186192  0.66680210 -0.00001438
  -0.01577368 -0.00521017  0.00006822
   0.65672759  0.33894275 -0.00008320
   0.34972186  0.34681176 -0.00013752
   0.67003066 -0.01287427  0.00012796
   0.65684122  0.66615406  0.00000246
   0.11066704  0.22620142  0.94962649
   0.22381390  0.11064601  0.04960684
   0.10883203  0.55378267  0.95181576
   0.21825082  0.44133592  0.05113168
   0.11314482  0.88659719  0.95040878
   0.22150189  0.77917749  0.04825197
   0.43908727  0.21640894  0.94714486
   0.55114893  0.10712481  0.05035294
   0.44628826  0.55436667  0.94407496
   0.55607396  0.44730377  0.05492506
   0.44367844  0.89192064  0.94883842
   0.55868432  0.77895268  0.05585966
   0.77985674  0.22269656  0.95027871
   0.88937644  0.11699121  0.05302209
   0.78244141  0.56006324  0.94847705
   0.89327527  0.44657338  0.04963744
   0.77525039  0.88579122  0.94513339
   0.88900992  0.77321236  0.05146094
unknown system                          
           1
     8.285221    4.783750    0.000000
    -8.267311    4.752729    0.000000
     0.000000    0.000000   30.000000
   V    Mo   W    S 
   3   3   3  18
Direct configuration=    19
  -0.00277503  0.66645264 -0.00002147
   0.33584638  0.00687700  0.00036509
   0.99449615  0.32497864 -0.00033712
   0.35258835  0.66685574 -0.00000854
  -0.01701206 -0.00590929  0.00006722
   0.65624742  0.33970087 -0.00006805
   0.35081326  0.34746461 -0.00015339
   0.67050007 -0.01351434  0.00016549
   0.65683483  0.66614310  0.00000905
   0.11082673  0.22611572  0.94978864
   0.22359813  0.11085459  0.04945556
   0.10904956  0.55380036  0.95200190
   0.21845290  0.44137715  0.05103133
   0.11310234  0.88672647  0.95046796
   0.22168114  0.77913291  0.04807103
   0.43909393  0.21651255  0.94706809
   0.55140318  0.10721981  0.05018440
   0.44638008  0.55435489  0.94396540
   0.55620100  0.44753509  0.05505877
   0.44386253  0.89191170  0.94891317
   0.55880760  0.77897665  0.05596177
   0.77942449  0.22248656  0.95041643
   0.88926071  0.11687145  0.05309773
   0.78235032  0.56006972  0.94841548
   0.89310910  0.44644815  0.04957966
   0.77515056  0.88555317  0.94499067
   0.88892081  0.77321853  0.05151365
unknown system                          
           1
     8.287323    4.785058    0.000000
    -8.269503    4.754192    0.000000
     0.000000    0.000000   30.000000
   V    Mo   W    S 
   3   3   3  18
Direct configuration=    20
  -0.00234937  0.66649940 -0.00002310
   0.33585826  0.00686500  0.00038710
   0.99442560  0.32490203 -0.00034943
   0.35253798  0.66690342 -0.00000416
  -0.01819391 -0.00676529  0.00008043
   0.65592042  0.34052987 -0.00007278
   0.35167498  0.34799151 -0.00015947
   0.67082975 -0.01403721  0.00018424
   0.65698678  0.66616032  0.00001169
   0.11093941  0.22594610  0.94994879
   0.22336813  0.11091350  0.04930056
   0.10905488  0.55373489  0.95201563
   0.21852676  0.44134480  0.05096984
   0.11306078  0.88674018  0.95049737
   0.22174679  0.77919983  0.04807127
   0.43911418  0.21660262  0.94704623
   0.55168265  0.10738080  0.05003065
   0.44637092  0.55441508  0.94395312
   0.55625104  0.44773581  0.05517381
   0.44397590  0.89196698  0.94894986
   0.55874797  0.77892125  0.05597599
   0.77913319  0.22242008  0.95056480
   0.88917683  0.11675555  0.05310855
   0.78243161  0.56017824  0.94838745
   0.89305187  0.44644670  0.04953870
   0.77499840  0.88535321  0.94486646
   0.88889263  0.77310977  0.05154632
unknown system                          
           1
     8.297422    4.791166    0.000000
    -8.276645    4.755176    0.000000
     0.000000    0.000000   30.000000
   V    Mo   W    S 
   3   3   3  18
Direct configuration=    21
  -0.00321671  0.66646026 -0.00002041
   0.33586711  0.00756255  0.00038746
   0.99381738  0.32428107 -0.00034719
   0.35322814  0.66692275 -0.00000759
  -0.01785180 -0.00638627  0.00005673
   0.65584725  0.34017401 -0.00005099
   0.35161196  0.34776474 -0.00016645
   0.67095235 -0.01386947  0.00018877
   0.65697027  0.66614820  0.00000915
   0.11094297  0.22605948  0.94991525
   0.22345994  0.11102978  0.04935519
   0.10922963  0.55383587  0.95219170
   0.21864720  0.44142285  0.05093961
   0.11307122  0.88683342  0.95052082
   0.22182060  0.77910569  0.04787865
   0.43911706  0.21659460  0.94699651
   0.55154621  0.10726370  0.05004701
   0.44648304  0.55432551  0.94388156
   0.55630133  0.44769408  0.05515001
   0.44401810  0.89190555  0.94899272
   0.55895671  0.77901497  0.05604696
   0.77906620  0.22228632  0.95050526
   0.88916798  0.11674495  0.05317306
   0.78224241  0.56002495  0.94835494
   0.89295448  0.44635502  0.04953448
   0.77509789  0.88538608  0.94489768
   0.88886554  0.77327377  0.05156901
unknown system                          
           1
     8.304209    4.795103    0.000000
    -8.280777    4.754513    0.000000
     0.000000    0.000000   30.000000
   V    Mo   W    S 
   3   3   3  18
Direct configuration=    22
  -0.00510208  0.66645539 -0.00002165
   0.33575661  0.00956111  0.00040265
   0.99173714  0.32233504 -0.00035639
   0.35546265  0.66706900 -0.00002377
  -0.01938721 -0.00736936  0.00001475
   0.65522086  0.34116188 -0.00002075
   0.35330692  0.34846418 -0.00023933
   0.67181720 -0.01473722  0.00023980
   0.65714933  0.66618240  0.00000051
   0.11121663  0.22600118  0.95017366
   0.22316020  0.11141449  0.04923776
   0.10964280  0.55395093  0.95270990
   0.21904637  0.44147832  0.05070918
   0.11298721  0.88708761  0.95060318
   0.22210150  0.77900425  0.04735913
   0.43919503  0.21670072  0.94678530
   0.55184515  0.10730397  0.04977535
   0.44678846  0.55420259  0.94372625
   0.55657957  0.44806598  0.05537394
   0.44439859  0.89193045  0.94921191
   0.55941603  0.77912477  0.05623023
   0.77829857  0.22184458  0.95062363
   0.88908583  0.11655633  0.05339785
   0.78202817  0.55983099  0.94816985
   0.89257612  0.44611477  0.04947200
   0.77502631  0.88501716  0.94469205
   0.88886052  0.77346296  0.05175289
unknown system                          
           1
     8.332519    4.812033    0.000000
    -8.299228    4.754366    0.000000
     0.000000    0.000000   30.000000
   V    Mo   W    S 
   3   3   3  18
Direct configuration=    23
  -0.00504542  0.66650583 -0.00002700
   0.33565127  0.00995070  0.00045043
   0.99106785  0.32180529 -0.00039469
   0.35575608  0.66715000 -0.00002230
  -0.02119060 -0.00880570  0.00003785
   0.65486214  0.34257145 -0.00003579
   0.35472581  0.34921281 -0.00024139
   0.67245739 -0.01547750  0.00025374
   0.65756934  0.66620081  0.00000942
   0.11145900  0.22572885  0.95048218
   0.22269305  0.11153822  0.04900674
   0.10968796  0.55386129  0.95282613
   0.21913462  0.44137669  0.05058141
   0.11288518  0.88709872  0.95062348
   0.22221577  0.77907762  0.04727128
   0.43931622  0.21692606  0.94670291
   0.55239430  0.10758026  0.04948543
   0.44685110  0.55428777  0.94363723
   0.55671610  0.44848066  0.05560647
   0.44461991  0.89205733  0.94929742
   0.55940762  0.77904136  0.05632401
   0.77773646  0.22172544  0.95085523
   0.88897728  0.11632221  0.05346578
   0.78218314  0.55998181  0.94805162
   0.89246662  0.44610322  0.04943185
   0.77474597  0.88460748  0.94444078
   0.88887031  0.77330576  0.05187970
unknown system                          
           1
     8.345193    4.819930    0.000000
    -8.305041    4.750375    0.000000
     0.000000    0.000000   30.000000
   V    Mo   W    S 
   3   3   3  18
Direct configuration=    24
  -0.00551661  0.66675047 -0.00005793
   0.33520569  0.01178368  0.00057019
   0.98810307  0.31946501 -0.00048563
   0.35743005  0.66756429 -0.00005144
  -0.02775648 -0.01431908  0.00002919
   0.65373107  0.34782956 -0.00004727
   0.36006419  0.35203132 -0.00035659
   0.67474938 -0.01835666  0.00032165
   0.65927063  0.66628988 -0.00000290
   0.11250489  0.22465626  0.95175316
   0.22078323  0.11206350  0.04815293
   0.10996291  0.55355537  0.95339745
   0.21949997  0.44096752  0.05003276
   0.11245153  0.88721344  0.95076284
   0.22272434  0.77936060  0.04680375
   0.43986915  0.21794726  0.94642915
   0.55454961  0.10864811  0.04827961
   0.44717285  0.55458749  0.94343544
   0.55731468  0.45007041  0.05649061
   0.44553109  0.89257664  0.94972463