       N       E                     dE             d eps       ncg     rms          rms(c)
DAV:   1     0.112448727690E+04    0.11245E+04   -0.35857E+04  8160   0.577E+02
DAV:   2    -0.432744499821E+01   -0.11288E+04   -0.10894E+04 10920   0.173E+02
DAV:   3    -0.199581163463E+03   -0.19525E+03   -0.18720E+03 10880   0.818E+01
DAV:   4    -0.208915109310E+03   -0.93339E+01   -0.90015E+01 11960   0.262E+01
DAV:   5    -0.209274781839E+03   -0.35967E+00   -0.35858E+00 11600   0.381E+00    0.275E+01
DAV:   6    -0.237141534998E+03   -0.27867E+02   -0.10774E+02 12680   0.605E+01    0.594E+01
DAV:   7    -0.196659416260E+03    0.40482E+02   -0.17758E+02 13200   0.152E+02    0.204E+01
DAV:   8    -0.190083454478E+03    0.65760E+01   -0.20340E+01 11880   0.134E+01    0.137E+01
DAV:   9    -0.188318588572E+03    0.17649E+01   -0.35117E+00 12080   0.623E+00    0.940E+00
DAV:  10    -0.187127068269E+03    0.11915E+01   -0.17848E+00 13360   0.759E+00    0.339E+00
DAV:  11    -0.187012273222E+03    0.11480E+00   -0.65478E-01 12480   0.249E+00    0.236E+00
DAV:  12    -0.187030729763E+03   -0.18457E-01   -0.46100E-01 12880   0.324E+00    0.352E+00
DAV:  13    -0.186933766917E+03    0.96963E-01   -0.29554E-01 13080   0.316E+00    0.192E+00
DAV:  14    -0.186903808724E+03    0.29958E-01   -0.10811E-01 12760   0.174E+00    0.102E+00
DAV:  15    -0.186898248622E+03    0.55601E-02   -0.44876E-02 12480   0.113E+00    0.100E+00
DAV:  16    -0.186891821580E+03    0.64270E-02   -0.16689E-02 12720   0.684E-01    0.489E-01
DAV:  17    -0.186889119027E+03    0.27026E-02   -0.74510E-03 12800   0.393E-01    0.178E-01
DAV:  18    -0.186888587020E+03    0.53201E-03   -0.18860E-03 11640   0.139E-01    0.165E-01
DAV:  19    -0.186888375886E+03    0.21113E-03   -0.76276E-04 11040   0.133E-01    0.462E-02
DAV:  20    -0.186889260856E+03   -0.88497E-03   -0.82510E-04  9040   0.568E-02    0.429E-02
DAV:  21    -0.186890205152E+03   -0.94430E-03   -0.23746E-04  8240   0.539E-02    0.375E-02
DAV:  22    -0.186890954338E+03   -0.74919E-03   -0.94995E-05  6280   0.288E-02    0.331E-02
DAV:  23    -0.186892093083E+03   -0.11387E-02   -0.14160E-04  7480   0.407E-02    0.166E-02
DAV:  24    -0.186892673881E+03   -0.58080E-03   -0.26133E-05  6760   0.175E-02    0.464E-03
DAV:  25    -0.186893040662E+03   -0.36678E-03   -0.16375E-05  5520   0.895E-03    0.514E-03
DAV:  26    -0.186893287472E+03   -0.24681E-03   -0.93774E-06  6760   0.775E-03    0.154E-03
DAV:  27    -0.186893380204E+03   -0.92732E-04   -0.33091E-06  7240   0.402E-03
   1 F= -.18689338E+03 E0= -.18672270E+03  d E =-.186893E+03
       N       E                     dE             d eps       ncg     rms          rms(c)
DAV:   1    -0.187532310778E+03   -0.63902E+00   -0.27046E+02  8160   0.349E+01    0.464E+00
DAV:   2    -0.189489653517E+03   -0.19573E+01   -0.20211E+01 12280   0.155E+01    0.932E+00
DAV:   3    -0.189372981888E+03    0.11667E+00   -0.42181E+00 12440   0.122E+01    0.652E+00
DAV:   4    -0.188787513078E+03    0.58547E+00   -0.58070E-01 12520   0.449E+00    0.176E+00
DAV:   5    -0.188928165716E+03   -0.14065E+00   -0.49763E-01 12360   0.359E+00    0.583E+00
DAV:   6    -0.188751470640E+03    0.17670E+00   -0.84831E-01 12760   0.444E+00    0.193E+00
DAV:   7    -0.188719895958E+03    0.31575E-01   -0.12235E-01 11800   0.144E+00    0.109E+00
DAV:   8    -0.188711580257E+03    0.83157E-02   -0.58520E-02 12960   0.131E+00    0.126E+00
DAV:   9    -0.188700040586E+03    0.11540E-01   -0.20746E-02 11880   0.818E-01    0.299E-01
DAV:  10    -0.188699530968E+03    0.50962E-03   -0.32509E-03 12880   0.213E-01    0.182E-01
DAV:  11    -0.188699124340E+03    0.40663E-03   -0.20921E-03 11680   0.150E-01    0.118E-01
DAV:  12    -0.188699210095E+03   -0.85756E-04   -0.93542E-04 12000   0.887E-02
   2 F= -.18869921E+03 E0= -.18856093E+03  d E =-.180583E+01
       N       E                     dE             d eps       ncg     rms          rms(c)
DAV:   1    -0.190620415115E+03   -0.19213E+01   -0.31002E+01  9120   0.142E+01    0.443E+00
DAV:   2    -0.190570296286E+03    0.50119E-01   -0.27343E+00 11120   0.942E+00    0.722E+00
DAV:   3    -0.190108056420E+03    0.46224E+00   -0.13109E+00 12360   0.859E+00    0.425E+00
DAV:   4    -0.189895119195E+03    0.21294E+00   -0.70214E-01 12560   0.420E+00    0.250E+00
DAV:   5    -0.189848653680E+03    0.46466E-01   -0.33716E-01 12320   0.270E+00    0.233E+00
DAV:   6    -0.189798056385E+03    0.50597E-01   -0.11713E-01 12720   0.214E+00    0.766E-01
DAV:   7    -0.189791474479E+03    0.65819E-02   -0.13775E-02 11600   0.565E-01    0.208E-01
DAV:   8    -0.189792070791E+03   -0.59631E-03   -0.37016E-03 12360   0.298E-01    0.310E-01
DAV:   9    -0.189791525546E+03    0.54524E-03   -0.20435E-03 10760   0.293E-01    0.154E-01
DAV:  10    -0.189791811846E+03   -0.28630E-03   -0.92648E-04  9760   0.138E-01    0.127E-01
DAV:  11    -0.189791538681E+03    0.27317E-03   -0.45682E-04  8840   0.763E-02    0.214E-02
DAV:  12    -0.189791561962E+03   -0.23281E-04   -0.73914E-05  6560   0.287E-02
   3 F= -.18979156E+03 E0= -.18967499E+03  d E =-.109235E+01
       N       E                     dE             d eps       ncg     rms          rms(c)
DAV:   1    -0.191367588643E+03   -0.15760E+01   -0.74698E+01  8160   0.197E+01    0.457E+00
DAV:   2    -0.191183990842E+03    0.18360E+00   -0.53368E+00 13360   0.760E+00    0.450E+00
DAV:   3    -0.191338759681E+03   -0.15477E+00   -0.15089E+00 12200   0.905E+00    0.675E+00
DAV:   4    -0.190939474186E+03    0.39929E+00   -0.13570E+00 12440   0.765E+00    0.296E+00
DAV:   5    -0.190900171677E+03    0.39303E-01   -0.42510E-01 12320   0.397E+00    0.290E+00
DAV:   6    -0.190808650166E+03    0.91522E-01   -0.19856E-01 12320   0.313E+00    0.116E+00
DAV:   7    -0.190797356471E+03    0.11294E-01   -0.42040E-02 12560   0.108E+00    0.453E-01
DAV:   8    -0.190794197837E+03    0.31586E-02   -0.68911E-03 10320   0.376E-01    0.232E-01
DAV:   9    -0.190794297734E+03   -0.99898E-04   -0.22851E-03 11600   0.320E-01    0.235E-01
DAV:  10    -0.190794199191E+03    0.98544E-04   -0.15901E-03 11280   0.216E-01    0.917E-02
DAV:  11    -0.190794094201E+03    0.10499E-03   -0.50782E-04  9440   0.855E-02    0.464E-02
DAV:  12    -0.190794087707E+03    0.64932E-05   -0.10996E-04  7080   0.398E-02
   4 F= -.19079409E+03 E0= -.19069610E+03  d E =-.100253E+01
       N       E                     dE             d eps       ncg     rms          rms(c)
DAV:   1    -0.192257858947E+03   -0.14638E+01   -0.17007E+02  8160   0.290E+01    0.576E+00
DAV:   2    -0.191993132897E+03    0.26473E+00   -0.99409E+00 11000   0.795E+00    0.361E+00
DAV:   3    -0.192066706845E+03   -0.73574E-01   -0.18799E+00 12240   0.796E+00    0.610E+00
DAV:   4    -0.191865735075E+03    0.20097E+00   -0.14977E+00 12040   0.949E+00    0.467E+00
DAV:   5    -0.191602357186E+03    0.26338E+00   -0.61573E-01 12440   0.467E+00    0.150E+00
DAV:   6    -0.191591680671E+03    0.10677E-01   -0.15298E-01 12680   0.266E+00    0.156E+00
DAV:   7    -0.191573432289E+03    0.18248E-01   -0.85008E-02 12400   0.210E+00    0.744E-01
DAV:   8    -0.191565999440E+03    0.74328E-02   -0.13645E-02 11720   0.738E-01    0.368E-01
DAV:   9    -0.191565157800E+03    0.84164E-03   -0.44446E-03 12000   0.461E-01    0.219E-01
DAV:  10    -0.191565133658E+03    0.24142E-04   -0.23903E-03 11520   0.209E-01    0.840E-02
DAV:  11    -0.191565073338E+03    0.60321E-04   -0.54850E-04 10840   0.872E-02
   5 F= -.19156507E+03 E0= -.19147886E+03  d E =-.770986E+00
       N       E                     dE             d eps       ncg     rms          rms(c)
DAV:   1    -0.191688814436E+03   -0.12368E+00   -0.99546E+00  8160   0.671E+00    0.774E-01
DAV:   2    -0.191753063346E+03   -0.64249E-01   -0.38221E-01 12680   0.292E+00    0.202E+00
DAV:   3    -0.191709568160E+03    0.43495E-01   -0.10208E-01 12560   0.241E+00    0.553E-01
DAV:   4    -0.191708764405E+03    0.80376E-03   -0.13667E-02 11600   0.786E-01    0.596E-01
DAV:   5    -0.191705553220E+03    0.32112E-02   -0.91691E-03 11720   0.731E-01    0.305E-01
DAV:   6    -0.191705270616E+03    0.28260E-03   -0.42277E-03 11360   0.349E-01    0.199E-01
DAV:   7    -0.191704714876E+03    0.55574E-03   -0.21011E-03 11600   0.249E-01    0.163E-01
DAV:   8    -0.191704497386E+03    0.21749E-03   -0.72254E-04  9200   0.190E-01    0.603E-02
DAV:   9    -0.191704491438E+03    0.59476E-05   -0.12471E-04  6160   0.640E-02
   6 F= -.19170449E+03 E0= -.19162009E+03  d E =-.139418E+00
       N       E                     dE             d eps       ncg     rms          rms(c)
DAV:   1    -0.191831188095E+03   -0.12669E+00   -0.10722E+01  8160   0.699E+00    0.750E-01
DAV:   2    -0.191877105145E+03   -0.45917E-01   -0.36355E-01 12760   0.257E+00    0.157E+00
DAV:   3    -0.191852129299E+03    0.24976E-01   -0.71640E-02 12600   0.208E+00    0.585E-01
DAV:   4    -0.191848509402E+03    0.36199E-02   -0.10339E-02 11680   0.671E-01    0.431E-01
DAV:   5    -0.191848013925E+03    0.49548E-03   -0.84490E-03 12160   0.709E-01    0.417E-01
DAV:   6    -0.191847031341E+03    0.98258E-03   -0.60151E-03 12000   0.478E-01    0.210E-01
DAV:   7    -0.191846097993E+03    0.93335E-03   -0.17912E-03 10320   0.171E-01    0.380E-02
DAV:   8    -0.191846120935E+03   -0.22942E-04   -0.18039E-04  7440   0.499E-02
   7 F= -.19184612E+03 E0= -.19176414E+03  d E =-.141629E+00
       N       E                     dE             d eps       ncg     rms          rms(c)
DAV:   1    -0.192004792679E+03   -0.15869E+00   -0.24912E+01  8160   0.107E+01    0.110E+00
DAV:   2    -0.192076468417E+03   -0.71676E-01   -0.84819E-01 12320   0.310E+00    0.141E+00
DAV:   3    -0.192070604580E+03    0.58638E-02   -0.10381E-01 12200   0.264E+00    0.124E+00
DAV:   4    -0.192050314715E+03    0.20290E-01   -0.26382E-02 11880   0.130E+00    0.502E-01
DAV:   5    -0.192053836580E+03   -0.35219E-02   -0.18581E-02 12240   0.109E+00    0.805E-01
DAV:   6    -0.192048541964E+03    0.52946E-02   -0.15667E-02 12520   0.897E-01    0.288E-01
DAV:   7    -0.192046849988E+03    0.16920E-02   -0.33036E-03 10400   0.239E-01    0.633E-02
DAV:   8    -0.192046878273E+03   -0.28285E-04   -0.49565E-04 10400   0.982E-02
   8 F= -.19204688E+03 E0= -.19196660E+03  d E =-.200757E+00
       N       E                     dE             d eps       ncg     rms          rms(c)
DAV:   1    -0.192156413605E+03   -0.10956E+00   -0.57377E+01  8160   0.163E+01    0.169E+00
DAV:   2    -0.192321917592E+03   -0.16550E+00   -0.21168E+00 11360   0.431E+00    0.180E+00
DAV:   3    -0.192352182588E+03   -0.30265E-01   -0.24417E-01 12240   0.418E+00    0.242E+00
DAV:   4    -0.192282240084E+03    0.69943E-01   -0.83795E-02 12240   0.258E+00    0.765E-01
DAV:   5    -0.192283907407E+03   -0.16673E-02   -0.31314E-02 12280   0.154E+00    0.939E-01
DAV:   6    -0.192276459239E+03    0.74482E-02   -0.29102E-02 12600   0.123E+00    0.487E-01
DAV:   7    -0.192274367566E+03    0.20917E-02   -0.10615E-02 11840   0.800E-01    0.381E-01
DAV:   8    -0.192272688423E+03    0.16791E-02   -0.26941E-03 11280   0.413E-01    0.869E-02
DAV:   9    -0.192272565399E+03    0.12302E-03   -0.69719E-04 10240   0.936E-02    0.489E-02
DAV:  10    -0.192272525058E+03    0.40341E-04   -0.20398E-04  7920   0.467E-02
   9 F= -.19227253E+03 E0= -.19219798E+03  d E =-.225647E+00
       N       E                     dE             d eps       ncg     rms          rms(c)
DAV:   1    -0.192297483325E+03   -0.24918E-01   -0.18282E+00  8160   0.291E+00    0.408E-01
DAV:   2    -0.192305388437E+03   -0.79051E-02   -0.77575E-02 12440   0.120E+00    0.771E-01
DAV:   3    -0.192300272657E+03    0.51158E-02   -0.16697E-02 12280   0.110E+00    0.389E-01
DAV:   4    -0.192298455348E+03    0.18173E-02   -0.36779E-03 12560   0.469E-01    0.202E-01
DAV:   5    -0.192298614431E+03   -0.15908E-03   -0.26279E-03 11840   0.428E-01    0.259E-01
DAV:   6    -0.192297832606E+03    0.78182E-03   -0.18958E-03 12120   0.332E-01    0.759E-02
DAV:   7    -0.192297750668E+03    0.81938E-04   -0.33761E-04  9000   0.856E-02
  10 F= -.19229775E+03 E0= -.19222415E+03  d E =-.252256E-01
       N       E                     dE             d eps       ncg     rms          rms(c)
DAV:   1    -0.192338637145E+03   -0.40805E-01   -0.15480E+01  8160   0.835E+00    0.895E-01
DAV:   2    -0.192390014469E+03   -0.51377E-01   -0.56891E-01 11840   0.248E+00    0.126E+00
DAV:   3    -0.192384967392E+03    0.50471E-02   -0.71131E-02 12120   0.230E+00    0.112E+00
DAV:   4    -0.192369658624E+03    0.15309E-01   -0.18599E-02 12360   0.116E+00    0.271E-01
DAV:   5    -0.192370198798E+03   -0.54017E-03   -0.70253E-03 11680   0.497E-01    0.354E-01
DAV:   6    -0.192369802160E+03    0.39664E-03   -0.56325E-03 11040   0.647E-01    0.342E-01
DAV:   7    -0.192368384075E+03    0.14181E-02   -0.23707E-03 11800   0.383E-01    0.858E-02
DAV:   8    -0.192368379335E+03    0.47395E-05   -0.43470E-04  8680   0.158E-01
  11 F= -.19236838E+03 E0= -.19229853E+03  d E =-.706287E-01
       N       E                     dE             d eps       ncg     rms          rms(c)
DAV:   1    -0.192380600910E+03   -0.12217E-01   -0.84006E-01  8160   0.197E+00    0.234E-01
DAV:   2    -0.192384081433E+03   -0.34805E-02   -0.32863E-02 12480   0.729E-01    0.432E-01
DAV:   3    -0.192382486495E+03    0.15949E-02   -0.55200E-03 12560   0.641E-01    0.227E-01
DAV:   4    -0.192381854790E+03    0.63170E-03   -0.10443E-03 10440   0.250E-01    0.997E-02
DAV:   5    -0.192381925122E+03   -0.70332E-04   -0.69999E-04 10640   0.219E-01
  12 F= -.19238193E+03 E0= -.19231263E+03  d E =-.135458E-01
       N       E                     dE             d eps       ncg     rms          rms(c)
DAV:   1    -0.192391386979E+03   -0.95322E-02   -0.40395E-01  8160   0.135E+00    0.190E-01
DAV:   2    -0.192393263273E+03   -0.18763E-02   -0.15846E-02 12320   0.579E-01    0.372E-01
DAV:   3    -0.192391878513E+03    0.13848E-02   -0.33246E-03 12520   0.509E-01    0.153E-01
DAV:   4    -0.192391734026E+03    0.14449E-03   -0.75168E-04 10400   0.223E-01    0.128E-01
DAV:   5    -0.192391586397E+03    0.14763E-03   -0.53796E-04 10200   0.203E-01    0.836E-02
DAV:   6    -0.192391532552E+03    0.53844E-04   -0.27167E-04  8000   0.120E-01
  13 F= -.19239153E+03 E0= -.19232271E+03  d E =-.960743E-02
       N       E                     dE             d eps       ncg     rms          rms(c)
DAV:   1    -0.192404607941E+03   -0.13022E-01   -0.11035E+00  8160   0.222E+00    0.254E-01
DAV:   2    -0.192409886096E+03   -0.52782E-02   -0.42670E-02 11000   0.901E-01    0.512E-01
DAV:   3    -0.192407303402E+03    0.25827E-02   -0.69690E-03 12320   0.721E-01    0.230E-01
DAV:   4    -0.192406761003E+03    0.54240E-03   -0.12705E-03 11120   0.283E-01    0.122E-01
DAV:   5    -0.192406726735E+03    0.34268E-04   -0.69223E-04 11120   0.228E-01
  14 F= -.19240673E+03 E0= -.19233903E+03  d E =-.151942E-01
       N       E                     dE             d eps       ncg     rms          rms(c)
DAV:   1    -0.192420490298E+03   -0.13729E-01   -0.19237E+00  8160   0.295E+00    0.328E-01
DAV:   2    -0.192429052716E+03   -0.85624E-02   -0.71096E-02 12360   0.105E+00    0.636E-01
DAV:   3    -0.192425274534E+03    0.37782E-02   -0.10238E-02 12120   0.904E-01    0.295E-01
DAV:   4    -0.192424114282E+03    0.11603E-02   -0.14611E-03 11720   0.289E-01    0.963E-02
DAV:   5    -0.192424555518E+03   -0.44124E-03   -0.12627E-03 12680   0.270E-01    0.199E-01
DAV:   6    -0.192424056218E+03    0.49930E-03   -0.84364E-04 10560   0.249E-01    0.451E-02
DAV:   7    -0.192424028531E+03    0.27687E-04   -0.82624E-05  6320   0.552E-02
  15 F= -.19242403E+03 E0= -.19235758E+03  d E =-.173018E-01
       N       E                     dE             d eps       ncg     rms          rms(c)
DAV:   1    -0.192435312139E+03   -0.11256E-01   -0.24919E+00  8160   0.337E+00    0.403E-01
DAV:   2    -0.192446590445E+03   -0.11278E-01   -0.11283E-01 12240   0.124E+00    0.680E-01
DAV:   3    -0.192443170486E+03    0.34200E-02   -0.15806E-02 12400   0.109E+00    0.424E-01
DAV:   4    -0.192440912712E+03    0.22578E-02   -0.31663E-03 12400   0.458E-01    0.156E-01
DAV:   5    -0.192440987012E+03   -0.74300E-04   -0.17883E-03 11960   0.304E-01    0.200E-01
DAV:   6    -0.192440707307E+03    0.27970E-03   -0.15647E-03 12280   0.325E-01    0.118E-01
DAV:   7    -0.192440456796E+03    0.25051E-03   -0.41565E-04  9160   0.134E-01    0.234E-02
DAV:   8    -0.192440460125E+03   -0.33288E-05   -0.67837E-05  7480   0.470E-02
  16 F= -.19244046E+03 E0= -.19237475E+03  d E =-.164316E-01
       N       E                     dE             d eps       ncg     rms          rms(c)
DAV:   1    -0.192443769837E+03   -0.33130E-02   -0.49663E+00  8160   0.471E+00    0.508E-01
DAV:   2    -0.192465399094E+03   -0.21629E-01   -0.20241E-01 11920   0.164E+00    0.864E-01
DAV:   3    -0.192459534654E+03    0.58644E-02   -0.25233E-02 12120   0.138E+00    0.543E-01
DAV:   4    -0.192455918611E+03    0.36160E-02   -0.49133E-03 12480   0.568E-01    0.168E-01
DAV:   5    -0.192455798308E+03    0.12030E-03   -0.21456E-03 12360   0.257E-01    0.162E-01
DAV:   6    -0.192456039041E+03   -0.24073E-03   -0.19830E-03 11960   0.364E-01    0.219E-01
DAV:   7    -0.192455435820E+03    0.60322E-03   -0.87940E-04 10480   0.242E-01    0.496E-02
DAV:   8    -0.192455428576E+03    0.72442E-05   -0.10656E-04  6080   0.822E-02
  17 F= -.19245543E+03 E0= -.19239092E+03  d E =-.149685E-01
       N       E                     dE             d eps       ncg     rms          rms(c)
DAV:   1    -0.192457523856E+03   -0.20880E-02   -0.40203E-01  8160   0.133E+00    0.154E-01
DAV:   2    -0.192459206810E+03   -0.16830E-02   -0.20373E-02 10360   0.437E-01    0.165E-01
DAV:   3    -0.192459438886E+03   -0.23208E-03   -0.18476E-03 13160   0.379E-01    0.221E-01
DAV:   4    -0.192458836107E+03    0.60278E-03   -0.61896E-04  9720   0.237E-01    0.465E-02
DAV:   5    -0.192458882081E+03   -0.45974E-04   -0.23367E-04  7520   0.919E-02
  18 F= -.19245888E+03 E0= -.19239475E+03  d E =-.345351E-02
       N       E                     dE             d eps       ncg     rms          rms(c)
DAV:   1    -0.192459699609E+03   -0.86350E-03   -0.91185E-01  8160   0.202E+00    0.235E-01
DAV:   2    -0.192463547427E+03   -0.38478E-02   -0.46203E-02 10880   0.637E-01    0.250E-01
DAV:   3    -0.192463984026E+03   -0.43660E-03   -0.46718E-03 11960   0.569E-01    0.330E-01
DAV:   4    -0.192462665835E+03    0.13182E-02   -0.15966E-03 10480   0.355E-01    0.875E-02
DAV:   5    -0.192462806578E+03   -0.14074E-03   -0.60074E-04  9840   0.215E-01    0.138E-01
DAV:   6    -0.192462607622E+03    0.19896E-03   -0.54555E-04 10120   0.173E-01    0.456E-02
DAV:   7    -0.192462580532E+03    0.27089E-04   -0.82289E-05  6360   0.624E-02
  19 F= -.19246258E+03 E0= -.19239896E+03  d E =-.369845E-02
       N       E                     dE             d eps       ncg     rms          rms(c)
DAV:   1    -0.192463223915E+03   -0.61629E-03   -0.50100E-02  8160   0.485E-01    0.665E-02
DAV:   2    -0.192463344410E+03   -0.12050E-03   -0.24673E-03 10640   0.145E-01    0.486E-02
DAV:   3    -0.192463386958E+03   -0.42548E-04   -0.21292E-04  9120   0.126E-01
  20 F= -.19246339E+03 E0= -.19239986E+03  d E =-.806426E-03
