 vasp.5.4.1 05Feb16 (build Jul 05 2020 17:13:04) complex                        
  
 executed on           IFC91_ompi date 2024.04.25  00:00:41
 running on   40 total cores
 distrk:  each k-point on   40 cores,    1 groups
 distr:  one band on NCORES_PER_BAND=   1 cores,   40 groups


--------------------------------------------------------------------------------------------------------


 INCAR:
 POTCAR:   PAW_PBE V 08Apr2002                    
 POTCAR:   PAW_PBE Mo 08Apr2002                   
 POTCAR:   PAW_PBE W 08Apr2002                    
 POTCAR:    PAW_PBE S 17Jan2003                   

 ----------------------------------------------------------------------------- 
|                                                                             |
|           W    W    AA    RRRRR   N    N  II  N    N   GGGG   !!!           |
|           W    W   A  A   R    R  NN   N  II  NN   N  G    G  !!!           |
|           W    W  A    A  R    R  N N  N  II  N N  N  G       !!!           |
|           W WW W  AAAAAA  RRRRR   N  N N  II  N  N N  G  GGG   !            |
|           WW  WW  A    A  R   R   N   NN  II  N   NN  G    G                |
|           W    W  A    A  R    R  N    N  II  N    N   GGGG   !!!           |
|                                                                             |
|      For optimal performance we recommend to set                            |
|        NCORE= 4 - approx SQRT( number of cores)                             |
|      NCORE specifies how many cores store one orbital (NPAR=cpu/NCORE).     |
|      This setting can  greatly improve the performance of VASP for DFT.     |
|      The default, NPAR=number of cores might be grossly inefficient         |
|      on modern multi-core architectures or massively parallel machines.     |
|      Do your own testing !!!!                                               |
|      Unfortunately you need to use the default for GW and RPA calculations. |
|      (for HF NCORE is supported but not extensively tested yet)             |
|                                                                             |
 ----------------------------------------------------------------------------- 

 POTCAR:   PAW_PBE V 08Apr2002                    
   VRHFIN =V: p6 d4 s1                                                          
   LEXCH  = PE                                                                  
   EATOM  =   170.8679 eV,   12.5584 Ry                                         
                                                                                
   TITEL  = PAW_PBE V 08Apr2002                                                 
   LULTRA =        F    use ultrasoft PP ?                                      
   IUNSCR =        1    unscreen: 0-lin 1-nonlin 2-no                           
   RPACOR =    2.000    partial core radius                                     
   POMASS =   50.941; ZVAL   =    5.000    mass and valenz                      
   RCORE  =    2.700    outmost cutoff radius                                   
   RWIGS  =    2.500; RWIGS  =    1.323    wigner-seitz radius (au A)           
   ENMAX  =  192.543; ENMIN  =  144.408 eV                                      
   RCLOC  =    1.779    cutoff for local pot                                    
   LCOR   =        T    correct aug charges                                     
   LPAW   =        T    paw PP                                                  
   EAUG   =  358.662                                                            
   DEXC   =    -.034                                                            
   RMAX   =    3.323    core radius for proj-oper                               
   RAUG   =    1.300    factor for augmentation sphere                          
   RDEP   =    2.762    radius for radial grids                                 
   QCUT   =   -3.762; QGAM   =    7.524    optimization parameters              
                                                                                
   Description                                                                  
     l     E      TYP  RCUT    TYP  RCUT                                        
     2   .000     23  2.700                                                     
     2   .000     23  2.700                                                     
     0   .000     23  2.700                                                     
     0  2.000     23  2.700                                                     
     1   .000     23  2.700                                                     
     1  2.000     23  2.700                                                     
     3   .000      7   .000                                                     
  local pseudopotential read in
  partial core-charges read in
  atomic valenz-charges read in
  non local Contribution for L=           2  read in
    real space projection operators read in
  non local Contribution for L=           2  read in
    real space projection operators read in
  non local Contribution for L=           0  read in
    real space projection operators read in
  non local Contribution for L=           0  read in
    real space projection operators read in
  non local Contribution for L=           1  read in
    real space projection operators read in
  non local Contribution for L=           1  read in
    real space projection operators read in
    PAW grid and wavefunctions read in
 
   number of l-projection  operators is LMAX  =           6
   number of lm-projection operators is LMMAX =          18
 
 POTCAR:   PAW_PBE Mo 08Apr2002                   
   VRHFIN =Mo: 4p5s4d                                                           
   LEXCH  = PE                                                                  
   EATOM  =   217.5180 eV,   15.9871 Ry                                         
                                                                                
   TITEL  = PAW_PBE Mo 08Apr2002                                                
   LULTRA =        F    use ultrasoft PP ?                                      
   IUNSCR =        1    unscreen: 0-lin 1-nonlin 2-no                           
   RPACOR =    2.200    partial core radius                                     
   POMASS =   95.940; ZVAL   =    6.000    mass and valenz                      
   RCORE  =    2.750    outmost cutoff radius                                   
   RWIGS  =    2.750; RWIGS  =    1.455    wigner-seitz radius (au A)           
   ENMAX  =  224.584; ENMIN  =  168.438 eV                                      
   RCLOC  =    2.111    cutoff for local pot                                    
   LCOR   =        T    correct aug charges                                     
   LPAW   =        T    paw PP                                                  
   EAUG   =  345.278                                                            
   DEXC   =    -.088                                                            
   RMAX   =    3.077    core radius for proj-oper                               
   RAUG   =    1.300    factor for augmentation sphere                          
   RDEP   =    2.815    radius for radial grids                                 
   QCUT   =   -4.063; QGAM   =    8.126    optimization parameters              
                                                                                
   Description                                                                  
     l     E      TYP  RCUT    TYP  RCUT                                        
     2   .000     23  2.500                                                     
     2   .000     23  2.500                                                     
     0   .000     23  2.600                                                     
     0  1.000     23  2.600                                                     
     1   .400     23  2.750                                                     
     1  2.000     23  2.750                                                     
     3   .000      7   .000                                                     
  local pseudopotential read in
  partial core-charges read in
  atomic valenz-charges read in
  non local Contribution for L=           2  read in
    real space projection operators read in
  non local Contribution for L=           2  read in
    real space projection operators read in
  non local Contribution for L=           0  read in
    real space projection operators read in
  non local Contribution for L=           0  read in
    real space projection operators read in
  non local Contribution for L=           1  read in
    real space projection operators read in
  non local Contribution for L=           1  read in
    real space projection operators read in
    PAW grid and wavefunctions read in
 
   number of l-projection  operators is LMAX  =           6
   number of lm-projection operators is LMMAX =          18
 
 POTCAR:   PAW_PBE W 08Apr2002                    
   VRHFIN =W : 6s5d                                                             
   LEXCH  = PE                                                                  
   EATOM  =   204.6100 eV,   15.0384 Ry                                         
                                                                                
   TITEL  = PAW_PBE W 08Apr2002                                                 
   LULTRA =        F    use ultrasoft PP ?                                      
   IUNSCR =        1    unscreen: 0-lin 1-nonlin 2-no                           
   RPACOR =    2.330    partial core radius                                     
   POMASS =  183.850; ZVAL   =    6.000    mass and valenz                      
   RCORE  =    2.750    outmost cutoff radius                                   
   RWIGS  =    2.750; RWIGS  =    1.455    wigner-seitz radius (au A)           
   ENMAX  =  223.057; ENMIN  =  167.293 eV                                      
   RCLOC  =    2.147    cutoff for local pot                                    
   LCOR   =        T    correct aug charges                                     
   LPAW   =        T    paw PP                                                  
   EAUG   =  373.438                                                            
   DEXC   =    -.060                                                            
   RMAX   =    3.087    core radius for proj-oper                               
   RAUG   =    1.300    factor for augmentation sphere                          
   RDEP   =    2.886    radius for radial grids                                 
   QCUT   =   -4.049; QGAM   =    8.098    optimization parameters              
                                                                                
   Description                                                                  
     l     E      TYP  RCUT    TYP  RCUT                                        
     2   .000     23  2.500                                                     
     2   .000     23  2.500                                                     
     0   .000     23  2.500                                                     
     0   .000     23  2.500                                                     
     1   .200     23  2.750                                                     
     1  2.000     23  2.750                                                     
     3   .000      7   .000                                                     
  local pseudopotential read in
  partial core-charges read in
  atomic valenz-charges read in
  non local Contribution for L=           2  read in
    real space projection operators read in
  non local Contribution for L=           2  read in
    real space projection operators read in
  non local Contribution for L=           0  read in
    real space projection operators read in
  non local Contribution for L=           0  read in
    real space projection operators read in
  non local Contribution for L=           1  read in
    real space projection operators read in
  non local Contribution for L=           1  read in
    real space projection operators read in
    PAW grid and wavefunctions read in
 
   number of l-projection  operators is LMAX  =           6
   number of lm-projection operators is LMMAX =          18
 
 POTCAR:    PAW_PBE S 17Jan2003                   
   VRHFIN =S : s2p4                                                             
   LEXCH  = PE                                                                  
   EATOM  =   276.8230 eV,   20.3459 Ry                                         
                                                                                
   TITEL  = PAW_PBE S 17Jan2003                                                 
   LULTRA =        F    use ultrasoft PP ?                                      
   IUNSCR =        1    unscreen: 0-lin 1-nonlin 2-no                           
   RPACOR =    1.500    partial core radius                                     
   POMASS =   32.066; ZVAL   =    6.000    mass and valenz                      
   RCORE  =    1.900    outmost cutoff radius                                   
   RWIGS  =    2.200; RWIGS  =    1.164    wigner-seitz radius (au A)           
   ENMAX  =  280.000; ENMIN  =  194.016 eV                                      
   ICORE  =        2    local potential                                         
   LCOR   =        T    correct aug charges                                     
   LPAW   =        T    paw PP                                                  
   EAUG   =  335.092                                                            
   DEXC   =     .000                                                            
   RMAX   =    2.867    core radius for proj-oper                               
   RAUG   =    1.300    factor for augmentation sphere                          
   RDEP   =    1.954    radius for radial grids                                 
   QCUT   =   -4.360; QGAM   =    8.721    optimization parameters              
                                                                                
   Description                                                                  
     l     E      TYP  RCUT    TYP  RCUT                                        
     0   .000     23  1.900                                                     
     0   .000     23  1.900                                                     
     1   .000     23  1.900                                                     
     1   .000     23  1.900                                                     
     2   .000     23  1.900                                                     
  local pseudopotential read in
  partial core-charges read in
  atomic valenz-charges read in
  non local Contribution for L=           0  read in
    real space projection operators read in
  non local Contribution for L=           0  read in
    real space projection operators read in
  non local Contribution for L=           1  read in
    real space projection operators read in
  non local Contribution for L=           1  read in
    real space projection operators read in
    PAW grid and wavefunctions read in
 
   number of l-projection  operators is LMAX  =           4
   number of lm-projection operators is LMMAX =           8
 

 ----------------------------------------------------------------------------- 
|                                                                             |
|  ADVICE TO THIS USER RUNNING 'VASP/VAMP'   (HEAR YOUR MASTER'S VOICE ...):  |
|                                                                             |
|      You have a (more or less) 'large supercell' and for larger cells       |
|      it might be more efficient to use real space projection operators      |
|      So try LREAL= Auto  in the INCAR   file.                               |
|      Mind: If you want to do a very accurate calculations keep the          |
|      reciprocal projection scheme          (i.e. LREAL=.FALSE.)             |
|                                                                             |
 ----------------------------------------------------------------------------- 

 PAW_PBE V 08Apr2002                    :
 energy of atom  1       EATOM= -170.8679
 kinetic energy error for atom=    0.0047 (will be added to EATOM!!)
 PAW_PBE Mo 08Apr2002                   :
 energy of atom  2       EATOM= -217.5180
 kinetic energy error for atom=    0.0215 (will be added to EATOM!!)
 PAW_PBE W 08Apr2002                    :
 energy of atom  3       EATOM= -204.6100
 kinetic energy error for atom=    0.0205 (will be added to EATOM!!)
  PAW_PBE S 17Jan2003                   :
 energy of atom  4       EATOM= -276.8230
 kinetic energy error for atom=    0.0122 (will be added to EATOM!!)
 
 
 POSCAR: crystal structure from VMoWS2 with Hexag
  positions in cartesian coordinates
  No initial velocities read in
 exchange correlation table for  LEXCH =        8
   RHO(1)=    0.500       N(1)  =     2000
   RHO(2)=  100.500       N(2)  =     4000
 


--------------------------------------------------------------------------------------------------------


 ion  position               nearest neighbor table
   1  0.667  0.667  0.000-  21 2.34  24 2.34  27 2.36  26 2.36  19 2.36  18 2.36
   2  0.333  0.667  0.000-  15 2.34  18 2.34  20 2.36  21 2.36  13 2.36  12 2.36
   3  0.667  0.333  0.000-  19 2.34  22 2.34  25 2.36  24 2.36  17 2.36  16 2.36
   4  0.000  0.000  0.000-  23 2.34  14 2.34  11 2.36  10 2.36  27 2.36  26 2.36   9 3.34   5 3.34
                             6 3.34   7 3.34   8 3.36
   5  0.000  0.667  0.000-  27 2.34  12 2.34  14 2.36  15 2.36  24 2.36  25 2.36   4 3.34   6 3.34
                             7 3.36
   6  1.000  0.333  0.000-  25 2.34  10 2.34  13 2.36  12 2.36  22 2.36  23 2.36   5 3.34   4 3.34
                             8 3.34   9 3.36
   7  0.333  0.000  0.000-  11 2.34  20 2.34  17 2.36  16 2.36  15 2.36  14 2.36   8 3.34   9 3.34
                             4 3.34   5 3.36
   8  0.333  0.333  0.000-  13 2.34  16 2.34  19 2.36  18 2.36  11 2.36  10 2.36   7 3.34   6 3.34
                             4 3.36
   9  0.667  0.000  0.000-  17 2.34  26 2.34  23 2.36  22 2.36  21 2.36  20 2.36   4 3.34   7 3.34
                             6 3.36
  10  0.111  0.222  0.955-   6 2.34   4 2.36   8 2.36
  11  0.222  0.111  0.045-   7 2.34   4 2.36   8 2.36
  12  0.111  0.556  0.955-   5 2.34   6 2.36   2 2.36
  13  0.222  0.444  0.045-   8 2.34   6 2.36   2 2.36
  14  0.111  0.889  0.955-   4 2.34   5 2.36   7 2.36
  15  0.222  0.777  0.045-   2 2.34   5 2.36   7 2.36
  16  0.444  0.222  0.955-   8 2.34   7 2.36   3 2.36
  17  0.556  0.111  0.045-   9 2.34   7 2.36   3 2.36
  18  0.444  0.556  0.955-   2 2.34   8 2.36   1 2.36
  19  0.556  0.444  0.045-   3 2.34   8 2.36   1 2.36
  20  0.444  0.889  0.955-   7 2.34   2 2.36   9 2.36
  21  0.556  0.777  0.045-   1 2.34   2 2.36   9 2.36
  22  0.777  0.222  0.955-   3 2.34   9 2.36   6 2.36
  23  0.889  0.111  0.045-   4 2.34   9 2.36   6 2.36
  24  0.777  0.556  0.955-   1 2.34   3 2.36   5 2.36
  25  0.889  0.444  0.045-   6 2.34   3 2.36   5 2.36
  26  0.777  0.889  0.955-   9 2.34   1 2.36   4 2.36
  27  0.889  0.777  0.045-   5 2.34   1 2.36   4 2.36
 

IMPORTANT INFORMATION: All symmetrisations will be switched off!
NOSYMM: (Re-)initialisation of all symmetry stuff for point group C_1.

 
 
 KPOINTS: K-POINTS 	#supercell of CrS2 in hexagona

Automatic generation of k-mesh.
Space group operators:
 irot       det(A)        alpha          n_x          n_y          n_z        tau_x        tau_y        tau_z
    1     1.000000     0.000000     1.000000     0.000000     0.000000     0.000000     0.000000     0.000000
 
 Subroutine IBZKPT returns following result:
 ===========================================
 
 Found     34 irreducible k-points:
 
 Following reciprocal coordinates:
            Coordinates               Weight
  0.000000  0.000000  0.000000      1.000000
  0.125000  0.000000  0.000000      2.000000
  0.250000  0.000000  0.000000      2.000000
  0.375000  0.000000  0.000000      2.000000
  0.500000  0.000000  0.000000      1.000000
  0.000000  0.125000  0.000000      2.000000
  0.125000  0.125000  0.000000      2.000000
  0.250000  0.125000  0.000000      2.000000
  0.375000  0.125000  0.000000      2.000000
  0.500000  0.125000  0.000000      2.000000
 -0.375000  0.125000  0.000000      2.000000
 -0.250000  0.125000  0.000000      2.000000
 -0.125000  0.125000  0.000000      2.000000
  0.000000  0.250000  0.000000      2.000000
  0.125000  0.250000  0.000000      2.000000
  0.250000  0.250000  0.000000      2.000000
  0.375000  0.250000  0.000000      2.000000
  0.500000  0.250000  0.000000      2.000000
 -0.375000  0.250000  0.000000      2.000000
 -0.250000  0.250000  0.000000      2.000000
 -0.125000  0.250000  0.000000      2.000000
 -0.000000  0.375000  0.000000      2.000000
  0.125000  0.375000  0.000000      2.000000
  0.250000  0.375000  0.000000      2.000000
  0.375000  0.375000  0.000000      2.000000
  0.500000  0.375000  0.000000      2.000000
 -0.375000  0.375000  0.000000      2.000000
 -0.250000  0.375000  0.000000      2.000000
 -0.125000  0.375000  0.000000      2.000000
  0.000000  0.500000  0.000000      1.000000
  0.125000  0.500000  0.000000      2.000000
  0.250000  0.500000  0.000000      2.000000
  0.375000  0.500000  0.000000      2.000000
  0.500000  0.500000  0.000000      1.000000
 
 Following cartesian coordinates:
            Coordinates               Weight
  0.000000  0.000000  0.000000      1.000000
  0.007209  0.012401  0.000000      2.000000
  0.014418  0.024802  0.000000      2.000000
  0.021626  0.037202  0.000000      2.000000
  0.028835  0.049603  0.000000      1.000000
 -0.007209  0.012401  0.000000      2.000000
  0.000000  0.024802  0.000000      2.000000
  0.007209  0.037202  0.000000      2.000000
  0.014418  0.049603  0.000000      2.000000
  0.021626  0.062004  0.000000      2.000000
 -0.028835 -0.024802  0.000000      2.000000
 -0.021626 -0.012401  0.000000      2.000000
 -0.014418  0.000000  0.000000      2.000000
 -0.014418  0.024802  0.000000      2.000000
 -0.007209  0.037202  0.000000      2.000000
  0.000000  0.049603  0.000000      2.000000
  0.007209  0.062004  0.000000      2.000000
  0.014418  0.074405  0.000000      2.000000
 -0.036044 -0.012401  0.000000      2.000000
 -0.028835  0.000000  0.000000      2.000000
 -0.021626  0.012401  0.000000      2.000000
 -0.021626  0.037202  0.000000      2.000000
 -0.014418  0.049603  0.000000      2.000000
 -0.007209  0.062004  0.000000      2.000000
  0.000000  0.074405  0.000000      2.000000
  0.007209  0.086806  0.000000      2.000000
 -0.043253  0.000000  0.000000      2.000000
 -0.036044  0.012401  0.000000      2.000000
 -0.028835  0.024802  0.000000      2.000000
 -0.028835  0.049603  0.000000      1.000000
 -0.021626  0.062004  0.000000      2.000000
 -0.014418  0.074405  0.000000      2.000000
 -0.007209  0.086806  0.000000      2.000000
  0.000000  0.099206  0.000000      1.000000
 


--------------------------------------------------------------------------------------------------------




 Dimension of arrays:
   k-points           NKPTS =     34   k-points in BZ     NKDIM =     34   number of bands    NBANDS=    120
   number of dos      NEDOS =    301   number of ions     NIONS =     27
   non local maximal  LDIM  =      6   non local SUM 2l+1 LMDIM =     18
   total plane-waves  NPLWV = 222264
   max r-space proj   IRMAX =      1   max aug-charges    IRDMAX=   5642
   dimension x,y,z NGX =    42 NGY =   42 NGZ =  126
   dimension x,y,z NGXF=    84 NGYF=   84 NGZF=  252
   support grid    NGXF=    84 NGYF=   84 NGZF=  252
   ions per type =               3   3   3  18
 NGX,Y,Z   is equivalent  to a cutoff of   6.96,  6.96,  6.98 a.u.
 NGXF,Y,Z  is equivalent  to a cutoff of  13.92, 13.92, 13.96 a.u.


 I would recommend the setting:
   dimension x,y,z NGX =    41 NGY =   41 NGZ =  123
 SYSTEM =  unknown system                          
 POSCAR =  crystal structure from VMoWS2 with Hexag

 Startparameter for this run:
   NWRITE =      2    write-flag & timer
   PREC   = normal    normal or accurate (medium, high low for compatibility)
   ISTART =      0    job   : 0-new  1-cont  2-samecut
   ICHARG =      2    charge: 1-file 2-atom 10-const
   ISPIN  =      1    spin polarized calculation?
   LNONCOLLINEAR =      F non collinear calculations
   LSORBIT =      F    spin-orbit coupling
   INIWAV =      1    electr: 0-lowe 1-rand  2-diag
   LASPH  =      F    aspherical Exc in radial PAW
   METAGGA=      F    non-selfconsistent MetaGGA calc.

 Electronic Relaxation 1
   ENCUT  =  280.0 eV  20.58 Ry    4.54 a.u.  13.68 13.68 40.93*2*pi/ulx,y,z
   ENINI  =  280.0     initial cutoff
   ENAUG  =  373.4 eV  augmentation charge cutoff
   NELM   =     60;   NELMIN=  2; NELMDL= -5     # of ELM steps 
   EDIFF  = 0.1E-03   stopping-criterion for ELM
   LREAL  =      F    real-space projection
   NLSPLINE    = F    spline interpolate recip. space projectors
   LCOMPAT=      F    compatible to vasp.4.4
   GGA_COMPAT  = T    GGA compatible to vasp.4.4-vasp.4.6
   LMAXPAW     = -100 max onsite density
   LMAXMIX     =    2 max onsite mixed and CHGCAR
   VOSKOWN=      0    Vosko Wilk Nusair interpolation
   ROPT   =    0.00000   0.00000   0.00000   0.00000
 Ionic relaxation
   EDIFFG = 0.1E-02   stopping-criterion for IOM
   NSW    =    100    number of steps for IOM
   NBLOCK =      1;   KBLOCK =    100    inner block; outer block 
   IBRION =      1    ionic relax: 0-MD 1-quasi-New 2-CG
   NFREE  =      0    steps in history (QN), initial steepest desc. (CG)
   ISIF   =      3    stress and relaxation
   IWAVPR =     11    prediction:  0-non 1-charg 2-wave 3-comb
   ISYM   =      0    0-nonsym 1-usesym 2-fastsym
   LCORR  =      T    Harris-Foulkes like correction to forces

   POTIM  = 0.5000    time-step for ionic-motion
   TEIN   =    0.0    initial temperature
   TEBEG  =    0.0;   TEEND  =   0.0 temperature during run
   SMASS  =  -3.00    Nose mass-parameter (am)
   estimated Nose-frequenzy (Omega)   =  0.10E-29 period in steps =****** mass=  -0.230E-26a.u.
   SCALEE = 1.0000    scale energy and forces
   NPACO  =    256;   APACO  = 16.0  distance and # of slots for P.C.
   PSTRESS=    0.0 pullay stress

  Mass of Ions in am
   POMASS =  50.94 95.94183.85 32.07
  Ionic Valenz
   ZVAL   =   5.00  6.00  6.00  6.00
  Atomic Wigner-Seitz radii
   RWIGS  =  -1.00 -1.00 -1.00 -1.00
  virtual crystal weights 
   VCA    =   1.00  1.00  1.00  1.00
   NELECT =     159.0000    total number of electrons
   NUPDOWN=      -1.0000    fix difference up-down

 DOS related values:
   EMIN   =  10.00;   EMAX   =-10.00  energy-range for DOS
   EFERMI =   0.00
   ISMEAR =     0;   SIGMA  =   0.20  broadening in eV -4-tet -1-fermi 0-gaus

 Electronic relaxation 2 (details)
   IALGO  =     38    algorithm
   LDIAG  =      T    sub-space diagonalisation (order eigenvalues)
   LSUBROT=      F    optimize rotation matrix (better conditioning)
   TURBO    =      0    0=normal 1=particle mesh
   IRESTART =      0    0=no restart 2=restart with 2 vectors
   NREBOOT  =      0    no. of reboots
   NMIN     =      0    reboot dimension
   EREF     =   0.00    reference energy to select bands
   IMIX   =      4    mixing-type and parameters
     AMIX     =   0.40;   BMIX     =  1.00
     AMIX_MAG =   1.60;   BMIX_MAG =  1.00
     AMIN     =   0.10
     WC   =   100.;   INIMIX=   1;  MIXPRE=   1;  MAXMIX= -45

 Intra band minimization:
   WEIMIN = 0.0010     energy-eigenvalue tresh-hold
   EBREAK =  0.21E-06  absolut break condition
   DEPER  =   0.30     relativ break condition  

   TIME   =   0.40     timestep for ELM

  volume/ion in A,a.u.               =      97.10       655.29
  Fermi-wavevector in a.u.,A,eV,Ry     =   0.643191  1.215456  5.628665  0.413695
  Thomas-Fermi vector in A             =   1.710110
 
 Write flags
   LWAVE  =      F    write WAVECAR
   LCHARG =      F    write CHGCAR
   LVTOT  =      F    write LOCPOT, total local potential
   LVHAR  =      F    write LOCPOT, Hartree potential only
   LELF   =      F    write electronic localiz. function (ELF)
   LORBIT =      0    0 simple, 1 ext, 2 COOP (PROOUT)


 Dipole corrections
   LMONO  =      F    monopole corrections only (constant potential shift)
   LDIPOL =      F    correct potential (dipole corrections)
   IDIPOL =      0    1-x, 2-y, 3-z, 4-all directions 
   EPSILON=  1.0000000 bulk dielectric constant

 Exchange correlation treatment:
   GGA     =    --    GGA type
   LEXCH   =     8    internal setting for exchange type
   VOSKOWN=      0    Vosko Wilk Nusair interpolation
   LHFCALC =     F    Hartree Fock is set to
   LHFONE  =     F    Hartree Fock one center treatment
   AEXX    =    0.0000 exact exchange contribution

 Linear response parameters
   LEPSILON=     F    determine dielectric tensor
   LRPA    =     F    only Hartree local field effects (RPA)
   LNABLA  =     F    use nabla operator in PAW spheres
   LVEL    =     F    velocity operator in full k-point grid
   LINTERFAST=   F  fast interpolation
   KINTER  =     0    interpolate to denser k-point grid
   CSHIFT  =0.1000    complex shift for real part using Kramers Kronig
   OMEGAMAX=  -1.0    maximum frequency
   DEG_THRESHOLD= 0.2000000E-02 threshold for treating states as degnerate
   RTIME   =    0.100 relaxation time in fs

 Orbital magnetization related:
   ORBITALMAG=     F  switch on orbital magnetization
   LCHIMAG   =     F  perturbation theory with respect to B field
   DQ        =  0.001000  dq finite difference perturbation B field



--------------------------------------------------------------------------------------------------------


 quasi-Newton-method for relaxation of ions
 charge density and potential will be updated during run
 non-spin polarized calculation
 Variant of blocked Davidson
 Davidson routine will perform the subspace rotation
 perform sub-space diagonalisation
    after iterative eigenvector-optimisation
 modified Broyden-mixing scheme, WC =      100.0
 initial mixing is a Kerker type mixing with AMIX =  0.4000 and BMIX =      1.0000
 Hartree-type preconditioning will be used
 using additional bands           40
 reciprocal scheme for non local part
 use partial core corrections
 calculate Harris-corrections to forces 
   (improved forces if not selfconsistent)
 use gradient corrections 
 use of overlap-Matrix (Vanderbilt PP)
 Gauss-broadening in eV      SIGMA  =   0.20


--------------------------------------------------------------------------------------------------------


  energy-cutoff  :      280.00
  volume of cell :     2621.81
      direct lattice vectors                 reciprocal lattice vectors
     8.669999960  5.039999894  0.000000000     0.057670129  0.099206348  0.000000000
    -8.669999821  5.040000133  0.000000000    -0.057670126  0.099206350  0.000000000
     0.000000000  0.000000000 30.000000000     0.000000000  0.000000000  0.033333333

  length of vectors
    10.028484344 10.028484344 30.000000000     0.114750788  0.114750788  0.033333333


 
 k-points in units of 2pi/SCALE and weight: K-POINTS 	#supercell of CrS2 in hexagona
   0.00000000  0.00000000  0.00000000       0.016
   0.00720877  0.01240079  0.00000000       0.031
   0.01441753  0.02480159  0.00000000       0.031
   0.02162630  0.03720238  0.00000000       0.031
   0.02883506  0.04960317  0.00000000       0.016
  -0.00720877  0.01240079  0.00000000       0.031
   0.00000000  0.02480159  0.00000000       0.031
   0.00720877  0.03720238  0.00000000       0.031
   0.01441753  0.04960317  0.00000000       0.031
   0.02162630  0.06200397  0.00000000       0.031
  -0.02883506 -0.02480159  0.00000000       0.031
  -0.02162630 -0.01240079  0.00000000       0.031
  -0.01441753  0.00000000  0.00000000       0.031
  -0.01441753  0.02480159  0.00000000       0.031
  -0.00720877  0.03720238  0.00000000       0.031
   0.00000000  0.04960317  0.00000000       0.031
   0.00720877  0.06200397  0.00000000       0.031
   0.01441753  0.07440476  0.00000000       0.031
  -0.03604383 -0.01240079  0.00000000       0.031
  -0.02883506  0.00000000  0.00000000       0.031
  -0.02162630  0.01240079  0.00000000       0.031
  -0.02162630  0.03720238  0.00000000       0.031
  -0.01441753  0.04960317  0.00000000       0.031
  -0.00720877  0.06200397  0.00000000       0.031
   0.00000000  0.07440476  0.00000000       0.031
   0.00720877  0.08680556  0.00000000       0.031
  -0.04325260  0.00000000  0.00000000       0.031
  -0.03604383  0.01240079  0.00000000       0.031
  -0.02883506  0.02480159  0.00000000       0.031
  -0.02883506  0.04960317  0.00000000       0.016
  -0.02162630  0.06200397  0.00000000       0.031
  -0.01441753  0.07440476  0.00000000       0.031
  -0.00720876  0.08680556  0.00000000       0.031
   0.00000000  0.09920635  0.00000000       0.016
 
 k-points in reciprocal lattice and weights: K-POINTS 	#supercell of CrS2 in hexagona
   0.00000000  0.00000000  0.00000000       0.016
   0.12500000  0.00000000  0.00000000       0.031
   0.25000000  0.00000000  0.00000000       0.031
   0.37500000  0.00000000  0.00000000       0.031
   0.50000000  0.00000000  0.00000000       0.016
   0.00000000  0.12500000  0.00000000       0.031
   0.12500000  0.12500000  0.00000000       0.031
   0.25000000  0.12500000  0.00000000       0.031
   0.37500000  0.12500000  0.00000000       0.031
   0.50000000  0.12500000  0.00000000       0.031
  -0.37500000  0.12500000  0.00000000       0.031
  -0.25000000  0.12500000  0.00000000       0.031
  -0.12500000  0.12500000  0.00000000       0.031
   0.00000000  0.25000000  0.00000000       0.031
   0.12500000  0.25000000  0.00000000       0.031
   0.25000000  0.25000000  0.00000000       0.031
   0.37500000  0.25000000  0.00000000       0.031
   0.50000000  0.25000000  0.00000000       0.031
  -0.37500000  0.25000000  0.00000000       0.031
  -0.25000000  0.25000000  0.00000000       0.031
  -0.12500000  0.25000000  0.00000000       0.031
  -0.00000000  0.37500000  0.00000000       0.031
   0.12500000  0.37500000  0.00000000       0.031
   0.25000000  0.37500000  0.00000000       0.031
   0.37500000  0.37500000  0.00000000       0.031
   0.50000000  0.37500000  0.00000000       0.031
  -0.37500000  0.37500000  0.00000000       0.031
  -0.25000000  0.37500000  0.00000000       0.031
  -0.12500000  0.37500000  0.00000000       0.031
   0.00000000  0.50000000  0.00000000       0.016
   0.12500000  0.50000000  0.00000000       0.031
   0.25000000  0.50000000  0.00000000       0.031
   0.37500000  0.50000000  0.00000000       0.031
   0.50000000  0.50000000  0.00000000       0.016
 
 position of ions in fractional coordinates (direct lattice) 
   0.66666669  0.66666669  0.00000000
   0.33333334  0.66666669  0.00000000
   0.66666669  0.33333334  0.00000000
   0.00000000  0.00000000  0.00000000
   0.00000000  0.66666669  0.00000000
   1.00000000  0.33333334  0.00000000
   0.33333334  0.00000000  0.00000000
   0.33333334  0.33333334  0.00000000
   0.66666669  0.00000000  0.00000000
   0.11068511  0.22244981  0.95539999
   0.22244981  0.11068511  0.04460000
   0.11068511  0.55578315  0.95539999
   0.22244981  0.44401845  0.04460000
   0.11068511  0.88911647  0.95539999
   0.22244981  0.77735180  0.04460000
   0.44401845  0.22244981  0.95539999
   0.55578315  0.11068511  0.04460000
   0.44401845  0.55578315  0.95539999
   0.55578315  0.44401845  0.04460000
   0.44401845  0.88911647  0.95539999
   0.55578315  0.77735180  0.04460000
   0.77735180  0.22244981  0.95539999
   0.88911647  0.11068511  0.04460000
   0.77735180  0.55578315  0.95539999
   0.88911647  0.44401845  0.04460000
   0.77735180  0.88911647  0.95539999
   0.88911647  0.77735180  0.04460000
 
 position of ions in cartesian coordinates  (Angst):
   0.00000009  6.72000022  0.00000000
  -2.88999998  5.04000020  0.00000000
   2.89000012  5.04000012  0.00000000
   0.00000000  0.00000000  0.00000000
  -5.78000005  3.36000019  0.00000000
   5.77999993  6.71999999  0.00000000
   2.89000007  1.68000002  0.00000000
   0.00000005  3.36000011  0.00000000
   5.78000015  3.36000003  0.00000000
  -0.96899991  1.67900001 28.66199970
   0.96899995  1.67899998  1.33799996
  -3.85899993  3.35900011 28.66199970
  -1.92100007  3.35900008  1.33799996
  -6.74899970  5.03900005 28.66199970
  -4.81100010  5.03900017  1.33799996
   1.92100017  3.35900003 28.66199970
   3.85900003  3.35900000  1.33799996
  -0.96899986  5.03900012 28.66199970
   0.96900000  5.03900009  1.33799996
  -3.85899963  6.71900006 28.66199970
  -1.92100003  6.71900019  1.33799996
   4.81100024  5.03900004 28.66199970
   6.74899984  5.03899987  1.33799996
   1.92100021  6.71900014 28.66199970
   3.85899981  6.71899996  1.33799996
  -0.96899956  8.39900008 28.66199970
   0.96899979  8.39900005  1.33799996
 


--------------------------------------------------------------------------------------------------------


 k-point  1 :   0.0000 0.0000 0.0000  plane waves:   27959
 k-point  2 :   0.1250 0.0000 0.0000  plane waves:   27889
 k-point  3 :   0.2500 0.0000 0.0000  plane waves:   27875
 k-point  4 :   0.3750 0.0000 0.0000  plane waves:   27893
 k-point  5 :   0.5000 0.0000 0.0000  plane waves:   27932
 k-point  6 :   0.0000 0.1250 0.0000  plane waves:   27889
 k-point  7 :   0.1250 0.1250 0.0000  plane waves:   27906
 k-point  8 :   0.2500 0.1250 0.0000  plane waves:   27898
 k-point  9 :   0.3750 0.1250 0.0000  plane waves:   27888
 k-point 10 :   0.5000 0.1250 0.0000  plane waves:   27873
 k-point 11 :  -0.3750 0.1250 0.0000  plane waves:   27874
 k-point 12 :  -0.2500 0.1250 0.0000  plane waves:   27895
 k-point 13 :  -0.1250 0.1250 0.0000  plane waves:   27879
 k-point 14 :   0.0000 0.2500 0.0000  plane waves:   27875
 k-point 15 :   0.1250 0.2500 0.0000  plane waves:   27898
 k-point 16 :   0.2500 0.2500 0.0000  plane waves:   27920
 k-point 17 :   0.3750 0.2500 0.0000  plane waves:   27901
 k-point 18 :   0.5000 0.2500 0.0000  plane waves:   27875
 k-point 19 :  -0.3750 0.2500 0.0000  plane waves:   27894
 k-point 20 :  -0.2500 0.2500 0.0000  plane waves:   27870
 k-point 21 :  -0.1250 0.2500 0.0000  plane waves:   27895
 k-point 22 :  -0.0000 0.3750 0.0000  plane waves:   27893
 k-point 23 :   0.1250 0.3750 0.0000  plane waves:   27888
 k-point 24 :   0.2500 0.3750 0.0000  plane waves:   27901
 k-point 25 :   0.3750 0.3750 0.0000  plane waves:   27860
 k-point 26 :   0.5000 0.3750 0.0000  plane waves:   27895
 k-point 27 :  -0.3750 0.3750 0.0000  plane waves:   27858
 k-point 28 :  -0.2500 0.3750 0.0000  plane waves:   27894
 k-point 29 :  -0.1250 0.3750 0.0000  plane waves:   27874
 k-point 30 :   0.0000 0.5000 0.0000  plane waves:   27932
 k-point 31 :   0.1250 0.5000 0.0000  plane waves:   27873
 k-point 32 :   0.2500 0.5000 0.0000  plane waves:   27875
 k-point 33 :   0.3750 0.5000 0.0000  plane waves:   27895
 k-point 34 :   0.5000 0.5000 0.0000  plane waves:   27910

 maximum and minimum number of plane-waves per node :     27959    27858

 maximum number of plane-waves:     27959
 maximum index in each direction: 
   IXMAX=   14   IYMAX=   13   IZMAX=   40
   IXMIN=  -14   IYMIN=  -14   IZMIN=  -40

 WARNING: aliasing errors must be expected set NGX to  58 to avoid them
 WARNING: aliasing errors must be expected set NGY to  56 to avoid them
 WARNING: aliasing errors must be expected set NGZ to 162 to avoid them
 aliasing errors are usually negligible using standard VASP settings
 and one can safely disregard these warnings

 serial   3D FFT for wavefunctions

 total amount of memory used by VASP on root node   650782. kBytes
========================================================================

   base      :      30000. kBytes
   nonl-proj :     559647. kBytes
   fftplans  :       2414. kBytes
   grid      :      12150. kBytes
   one-center:        419. kBytes
   wavefun   :      46152. kBytes
 
     INWAV:  cpu time    0.0000: real time    0.0000
 Broyden mixing: mesh for mixing (old mesh)
   NGX = 27   NGY = 27   NGZ = 81
  (NGX  = 84   NGY  = 84   NGZ  =252)
  gives a total of  59049 points

 initial charge density was supplied:
 charge density of overlapping atoms calculated
 number of electron     159.0000000 magnetization 
 keeping initial charge density in first step


--------------------------------------------------------------------------------------------------------


 Maximum index for augmentation-charges          148 (set IRDMAX)


--------------------------------------------------------------------------------------------------------


 First call to EWALD:  gamma=   0.129
 Maximum number of real-space cells 4x 4x 2
 Maximum number of reciprocal cells 2x 2x 5

 FEWALD executed in parallel
    FEWALD:  cpu time    0.0016: real time    0.0016


----------------------------------------- Iteration    1(   1)  ---------------------------------------


    POTLOK:  cpu time    0.0365: real time    0.0366
    SETDIJ:  cpu time    0.0031: real time    0.0033
     EDDAV:  cpu time   21.5203: real time   21.5754
       DOS:  cpu time    0.0006: real time    0.0015
    --------------------------------------------
      LOOP:  cpu time   21.5674: real time   21.6244

 eigenvalue-minimisations  :  8160
 total energy-change (2. order) : 0.1124487E+04  (-0.3585742E+04)
 number of electron     159.0000000 magnetization 
 augmentation part      159.0000000 magnetization 

 Free energy of the ion-electron system (eV)
  ---------------------------------------------------
  alpha Z        PSCENC =        81.65567618
  Ewald energy   TEWEN  =     41890.25210216
  -Hartree energ DENC   =    -47722.88004862
  -exchange      EXHF   =         0.00000000
  -V(xc)+E(xc)   XCENC  =      -242.92955960
  PAW double counting   =      3467.42045192    -2871.19716117
  entropy T*S    EENTRO =        -0.53873322
  eigenvalues    EBANDS =      -238.73797503
  atomic energy  EATOM  =      6761.44252427
  Solvation  Ediel_sol  =         0.00000000
  ---------------------------------------------------
  free energy    TOTEN  =      1124.48727690 eV

  energy without entropy =     1125.02601012  energy(sigma->0) =     1124.75664351


--------------------------------------------------------------------------------------------------------




----------------------------------------- Iteration    1(   2)  ---------------------------------------


     EDDAV:  cpu time   27.3445: real time   27.4104
       DOS:  cpu time    0.0001: real time    0.0009
    --------------------------------------------
      LOOP:  cpu time   27.3465: real time   27.4194

 eigenvalue-minimisations  : 10920
 total energy-change (2. order) :-0.1128815E+04  (-0.1089362E+04)
 number of electron     159.0000000 magnetization 
 augmentation part      159.0000000 magnetization 

 Free energy of the ion-electron system (eV)
  ---------------------------------------------------
  alpha Z        PSCENC =        81.65567618
  Ewald energy   TEWEN  =     41890.25210216
  -Hartree energ DENC   =    -47722.88004862
  -exchange      EXHF   =         0.00000000
  -V(xc)+E(xc)   XCENC  =      -242.92955960
  PAW double counting   =      3467.42045192    -2871.19716117
  entropy T*S    EENTRO =        -0.15866156
  eigenvalues    EBANDS =     -1367.93276859
  atomic energy  EATOM  =      6761.44252427
  Solvation  Ediel_sol  =         0.00000000
  ---------------------------------------------------
  free energy    TOTEN  =        -4.32744500 eV

  energy without entropy =       -4.16878344  energy(sigma->0) =       -4.24811422


--------------------------------------------------------------------------------------------------------




----------------------------------------- Iteration    1(   3)  ---------------------------------------


     EDDAV:  cpu time   27.2297: real time   27.2960
       DOS:  cpu time    0.0011: real time    0.0011
    --------------------------------------------
      LOOP:  cpu time   27.2329: real time   27.3040

 eigenvalue-minimisations  : 10880
 total energy-change (2. order) :-0.1952537E+03  (-0.1872029E+03)
 number of electron     159.0000000 magnetization 
 augmentation part      159.0000000 magnetization 

 Free energy of the ion-electron system (eV)
  ---------------------------------------------------
  alpha Z        PSCENC =        81.65567618
  Ewald energy   TEWEN  =     41890.25210216
  -Hartree energ DENC   =    -47722.88004862
  -exchange      EXHF   =         0.00000000
  -V(xc)+E(xc)   XCENC  =      -242.92955960
  PAW double counting   =      3467.42045192    -2871.19716117
  entropy T*S    EENTRO =        -0.26331221
  eigenvalues    EBANDS =     -1563.08183640
  atomic energy  EATOM  =      6761.44252427
  Solvation  Ediel_sol  =         0.00000000
  ---------------------------------------------------
  free energy    TOTEN  =      -199.58116346 eV

  energy without entropy =     -199.31785125  energy(sigma->0) =     -199.44950736


--------------------------------------------------------------------------------------------------------




----------------------------------------- Iteration    1(   4)  ---------------------------------------


     EDDAV:  cpu time   29.4761: real time   29.5474
       DOS:  cpu time    0.0010: real time    0.0010
    --------------------------------------------
      LOOP:  cpu time   29.4782: real time   29.5558

 eigenvalue-minimisations  : 11960
 total energy-change (2. order) :-0.9333946E+01  (-0.9001477E+01)
 number of electron     159.0000000 magnetization 
 augmentation part      159.0000000 magnetization 

 Free energy of the ion-electron system (eV)
  ---------------------------------------------------
  alpha Z        PSCENC =        81.65567618
  Ewald energy   TEWEN  =     41890.25210216
  -Hartree energ DENC   =    -47722.88004862
  -exchange      EXHF   =         0.00000000
  -V(xc)+E(xc)   XCENC  =      -242.92955960
  PAW double counting   =      3467.42045192    -2871.19716117
  entropy T*S    EENTRO =        -0.29984544
  eigenvalues    EBANDS =     -1572.37924902
  atomic energy  EATOM  =      6761.44252427
  Solvation  Ediel_sol  =         0.00000000
  ---------------------------------------------------
  free energy    TOTEN  =      -208.91510931 eV

  energy without entropy =     -208.61526387  energy(sigma->0) =     -208.76518659


--------------------------------------------------------------------------------------------------------




----------------------------------------- Iteration    1(   5)  ---------------------------------------


     EDDAV:  cpu time   28.6653: real time   28.7338
       DOS:  cpu time    0.0010: real time    0.0010
    CHARGE:  cpu time    0.4587: real time    0.4600
    MIXING:  cpu time    0.0018: real time    0.0019
    --------------------------------------------
      LOOP:  cpu time   29.1276: real time   29.2035

 eigenvalue-minimisations  : 11600
 total energy-change (2. order) :-0.3596725E+00  (-0.3585763E+00)
 number of electron     159.0000111 magnetization 
 augmentation part       -9.7928191 magnetization 

 Broyden mixing:
  rms(total) = 0.27461E+01    rms(broyden)= 0.27457E+01
  rms(prec ) = 0.29314E+01
  weight for this iteration     100.00

 Free energy of the ion-electron system (eV)
  ---------------------------------------------------
  alpha Z        PSCENC =        81.65567618
  Ewald energy   TEWEN  =     41890.25210216
  -Hartree energ DENC   =    -47722.88004862
  -exchange      EXHF   =         0.00000000
  -V(xc)+E(xc)   XCENC  =      -242.92955960
  PAW double counting   =      3467.42045192    -2871.19716117
  entropy T*S    EENTRO =        -0.29610780
  eigenvalues    EBANDS =     -1572.74265919
  atomic energy  EATOM  =      6761.44252427
  Solvation  Ediel_sol  =         0.00000000
  ---------------------------------------------------
  free energy    TOTEN  =      -209.27478184 eV

  energy without entropy =     -208.97867404  energy(sigma->0) =     -209.12672794


--------------------------------------------------------------------------------------------------------




----------------------------------------- Iteration    1(   6)  ---------------------------------------


    POTLOK:  cpu time    0.0341: real time    0.0342
    SETDIJ:  cpu time    0.0025: real time    0.0026
     EDDAV:  cpu time   30.8281: real time   30.9024
       DOS:  cpu time    0.0020: real time    0.0020
    CHARGE:  cpu time    0.4561: real time    0.4572
    MIXING:  cpu time    0.0020: real time    0.0022
    --------------------------------------------
      LOOP:  cpu time   31.3259: real time   31.4095

 eigenvalue-minimisations  : 12680
 total energy-change (2. order) :-0.2786675E+02  (-0.1077443E+02)
 number of electron     159.0000106 magnetization 
 augmentation part        7.0833829 magnetization 

 Broyden mixing:
  rms(total) = 0.59375E+01    rms(broyden)= 0.59368E+01
  rms(prec ) = 0.65203E+01
  weight for this iteration     100.00

 eigenvalues of (default mixing * dielectric matrix)
  average eigenvalue GAMMA=   0.2933
  0.2933

 Free energy of the ion-electron system (eV)
  ---------------------------------------------------
  alpha Z        PSCENC =        81.65567618
  Ewald energy   TEWEN  =     41890.25210216
  -Hartree energ DENC   =    -47701.28406814
  -exchange      EXHF   =         0.00000000
  -V(xc)+E(xc)   XCENC  =      -233.63247076
  PAW double counting   =      3676.49545134    -3082.58694643
  entropy T*S    EENTRO =        -0.26877886
  eigenvalues    EBANDS =     -1629.21502476
  atomic energy  EATOM  =      6761.44252427
  Solvation  Ediel_sol  =         0.00000000
  ---------------------------------------------------
  free energy    TOTEN  =      -237.14153500 eV

  energy without entropy =     -236.87275614  energy(sigma->0) =     -237.00714557


--------------------------------------------------------------------------------------------------------




----------------------------------------- Iteration    1(   7)  ---------------------------------------


    POTLOK:  cpu time    0.0370: real time    0.0371
    SETDIJ:  cpu time    0.0024: real time    0.0024
     EDDAV:  cpu time   31.9567: real time   32.0330
       DOS:  cpu time    0.0009: real time    0.0010
    CHARGE:  cpu time    0.4641: real time    0.4652
    MIXING:  cpu time    0.0011: real time    0.0011
    --------------------------------------------
      LOOP:  cpu time   32.4633: real time   32.5430

 eigenvalue-minimisations  : 13200
 total energy-change (2. order) : 0.4048212E+02  (-0.1775819E+02)
 number of electron     159.0000087 magnetization 
 augmentation part       -6.2341073 magnetization 

 Broyden mixing:
  rms(total) = 0.20351E+01    rms(broyden)= 0.20331E+01
  rms(prec ) = 0.22595E+01
  weight for this iteration     100.00

 eigenvalues of (default mixing * dielectric matrix)
  average eigenvalue GAMMA=   0.5409
  0.8706  0.2112

 Free energy of the ion-electron system (eV)
  ---------------------------------------------------
  alpha Z        PSCENC =        81.65567618
  Ewald energy   TEWEN  =     41890.25210216
  -Hartree energ DENC   =    -47738.78479804
  -exchange      EXHF   =         0.00000000
  -V(xc)+E(xc)   XCENC  =      -235.01357588
  PAW double counting   =      3764.27719049    -3178.31920917
  entropy T*S    EENTRO =        -0.33545347
  eigenvalues    EBANDS =     -1541.83387281
  atomic energy  EATOM  =      6761.44252427
  Solvation  Ediel_sol  =         0.00000000
  ---------------------------------------------------
  free energy    TOTEN  =      -196.65941626 eV

  energy without entropy =     -196.32396279  energy(sigma->0) =     -196.49168952


--------------------------------------------------------------------------------------------------------




----------------------------------------- Iteration    1(   8)  ---------------------------------------


    POTLOK:  cpu time    0.0331: real time    0.0332
    SETDIJ:  cpu time    0.0024: real time    0.0024
     EDDAV:  cpu time   29.1956: real time   29.2654
       DOS:  cpu time    0.0011: real time    0.0011
    CHARGE:  cpu time    0.4698: real time    0.4710
    MIXING:  cpu time    0.0011: real time    0.0011
    --------------------------------------------
      LOOP:  cpu time   29.7041: real time   29.7831

 eigenvalue-minimisations  : 11880
 total energy-change (2. order) : 0.6575962E+01  (-0.2034045E+01)
 number of electron     159.0000095 magnetization 
 augmentation part       -6.3950869 magnetization 

 Broyden mixing:
  rms(total) = 0.13716E+01    rms(broyden)= 0.13711E+01
  rms(prec ) = 0.14819E+01
  weight for this iteration     100.00

 eigenvalues of (default mixing * dielectric matrix)
  average eigenvalue GAMMA=   0.5276
  1.0498  0.2565  0.2765

 Free energy of the ion-electron system (eV)
  ---------------------------------------------------
  alpha Z        PSCENC =        81.65567618
  Ewald energy   TEWEN  =     41890.25210216
  -Hartree energ DENC   =    -47761.63012043
  -exchange      EXHF   =         0.00000000
  -V(xc)+E(xc)   XCENC  =      -235.04262980
  PAW double counting   =      3903.09788531    -3318.69838511
  entropy T*S    EENTRO =        -0.26877279
  eigenvalues    EBANDS =     -1510.89173427
  atomic energy  EATOM  =      6761.44252427
  Solvation  Ediel_sol  =         0.00000000
  ---------------------------------------------------
  free energy    TOTEN  =      -190.08345448 eV

  energy without entropy =     -189.81468168  energy(sigma->0) =     -189.94906808


--------------------------------------------------------------------------------------------------------




----------------------------------------- Iteration    1(   9)  ---------------------------------------


    POTLOK:  cpu time    0.0321: real time    0.0324
    SETDIJ:  cpu time    0.0024: real time    0.0024
     EDDAV:  cpu time   29.6960: real time   29.7675
       DOS:  cpu time    0.0010: real time    0.0010
    CHARGE:  cpu time    0.4851: real time    0.4863
    MIXING:  cpu time    0.0011: real time    0.0011
    --------------------------------------------
      LOOP:  cpu time   30.2189: real time   30.3004

 eigenvalue-minimisations  : 12080
 total energy-change (2. order) : 0.1764866E+01  (-0.3511747E+00)
 number of electron     159.0000093 magnetization 
 augmentation part       -5.7223493 magnetization 

 Broyden mixing:
  rms(total) = 0.94047E+00    rms(broyden)= 0.94006E+00
  rms(prec ) = 0.10129E+01
  weight for this iteration     100.00

 eigenvalues of (default mixing * dielectric matrix)
  average eigenvalue GAMMA=   0.6965
  1.7102  0.5773  0.2198  0.2788

 Free energy of the ion-electron system (eV)
  ---------------------------------------------------
  alpha Z        PSCENC =        81.65567618
  Ewald energy   TEWEN  =     41890.25210216
  -Hartree energ DENC   =    -47765.71879112
  -exchange      EXHF   =         0.00000000
  -V(xc)+E(xc)   XCENC  =      -234.36082027
  PAW double counting   =      3961.50048956    -3377.82056112
  entropy T*S    EENTRO =        -0.32929720
  eigenvalues    EBANDS =     -1504.93991103
  atomic energy  EATOM  =      6761.44252427
  Solvation  Ediel_sol  =         0.00000000
  ---------------------------------------------------
  free energy    TOTEN  =      -188.31858857 eV

  energy without entropy =     -187.98929138  energy(sigma->0) =     -188.15393997


--------------------------------------------------------------------------------------------------------




----------------------------------------- Iteration    1(  10)  ---------------------------------------


    POTLOK:  cpu time    0.0310: real time    0.0323
    SETDIJ:  cpu time    0.0024: real time    0.0024
     EDDAV:  cpu time   32.3063: real time   32.3835
       DOS:  cpu time    0.0010: real time    0.0010
    CHARGE:  cpu time    0.4907: real time    0.4919
    MIXING:  cpu time    0.0013: real time    0.0013
    --------------------------------------------
      LOOP:  cpu time   32.8350: real time   32.9216

 eigenvalue-minimisations  : 13360
 total energy-change (2. order) : 0.1191520E+01  (-0.1784836E+00)
 number of electron     159.0000092 magnetization 
 augmentation part       -4.3958199 magnetization 

 Broyden mixing:
  rms(total) = 0.33861E+00    rms(broyden)= 0.33828E+00
  rms(prec ) = 0.37035E+00
  weight for this iteration     100.00

 eigenvalues of (default mixing * dielectric matrix)
  average eigenvalue GAMMA=   0.6966
  1.8727  0.6169  0.5116  0.2240  0.2578

 Free energy of the ion-electron system (eV)
  ---------------------------------------------------
  alpha Z        PSCENC =        81.65567618
  Ewald energy   TEWEN  =     41890.25210216
  -Hartree energ DENC   =    -47777.98394841
  -exchange      EXHF   =         0.00000000
  -V(xc)+E(xc)   XCENC  =      -232.74441870
  PAW double counting   =      4089.61067779    -3507.57004876
  entropy T*S    EENTRO =        -0.34231501
  eigenvalues    EBANDS =     -1491.44731779
  atomic energy  EATOM  =      6761.44252427
  Solvation  Ediel_sol  =         0.00000000
  ---------------------------------------------------
  free energy    TOTEN  =      -187.12706827 eV

  energy without entropy =     -186.78475326  energy(sigma->0) =     -186.95591076


--------------------------------------------------------------------------------------------------------




----------------------------------------- Iteration    1(  11)  ---------------------------------------


    POTLOK:  cpu time    0.0301: real time    0.0302
    SETDIJ:  cpu time    0.0024: real time    0.0024
     EDDAV:  cpu time   30.5107: real time   30.5842
       DOS:  cpu time    0.0010: real time    0.0010
    CHARGE:  cpu time    0.4933: real time    0.4945
    MIXING:  cpu time    0.0013: real time    0.0013
    --------------------------------------------
      LOOP:  cpu time   31.0396: real time   31.1224

 eigenvalue-minimisations  : 12480
 total energy-change (2. order) : 0.1147950E+00  (-0.6547756E-01)
 number of electron     159.0000092 magnetization 
 augmentation part       -4.2806258 magnetization 

 Broyden mixing:
  rms(total) = 0.23563E+00    rms(broyden)= 0.23528E+00
  rms(prec ) = 0.25886E+00
  weight for this iteration     100.00

 eigenvalues of (default mixing * dielectric matrix)
  average eigenvalue GAMMA=   0.8681
  1.9165  1.9165  0.6180  0.2865  0.2216  0.2496

 Free energy of the ion-electron system (eV)
  ---------------------------------------------------
  alpha Z        PSCENC =        81.65567618
  Ewald energy   TEWEN  =     41890.25210216
  -Hartree energ DENC   =    -47783.99167502
  -exchange      EXHF   =         0.00000000
  -V(xc)+E(xc)   XCENC  =      -232.39477551
  PAW double counting   =      4126.93032044    -3545.19413713
  entropy T*S    EENTRO =        -0.34869852
  eigenvalues    EBANDS =     -1485.36361009
  atomic energy  EATOM  =      6761.44252427
  Solvation  Ediel_sol  =         0.00000000
  ---------------------------------------------------
  free energy    TOTEN  =      -187.01227322 eV

  energy without entropy =     -186.66357470  energy(sigma->0) =     -186.83792396


--------------------------------------------------------------------------------------------------------




----------------------------------------- Iteration    1(  12)  ---------------------------------------


    POTLOK:  cpu time    0.0304: real time    0.0306
    SETDIJ:  cpu time    0.0024: real time    0.0024
     EDDAV:  cpu time   31.2924: real time   31.3671
       DOS:  cpu time    0.0010: real time    0.0010
    CHARGE:  cpu time    0.4935: real time    0.4947
    MIXING:  cpu time    0.0013: real time    0.0013
    --------------------------------------------
      LOOP:  cpu time   31.8222: real time   31.9067

 eigenvalue-minimisations  : 12880
 total energy-change (2. order) :-0.1845654E-01  (-0.4610021E-01)
 number of electron     159.0000089 magnetization 
 augmentation part       -4.4717540 magnetization 

 Broyden mixing:
  rms(total) = 0.35227E+00    rms(broyden)= 0.35216E+00
  rms(prec ) = 0.38963E+00
  weight for this iteration     100.00

 eigenvalues of (default mixing * dielectric matrix)
  average eigenvalue GAMMA=   0.7959
  1.9967  1.9967  0.6199  0.2753  0.2753  0.2173  0.1903

 Free energy of the ion-electron system (eV)
  ---------------------------------------------------
  alpha Z        PSCENC =        81.65567618
  Ewald energy   TEWEN  =     41890.25210216
  -Hartree energ DENC   =    -47796.79405479
  -exchange      EXHF   =         0.00000000
  -V(xc)+E(xc)   XCENC  =      -232.07267222
  PAW double counting   =      4179.72722090    -3597.95650142
  entropy T*S    EENTRO =        -0.33358969
  eigenvalues    EBANDS =     -1472.95143516
  atomic energy  EATOM  =      6761.44252427
  Solvation  Ediel_sol  =         0.00000000
  ---------------------------------------------------
  free energy    TOTEN  =      -187.03072976 eV

  energy without entropy =     -186.69714007  energy(sigma->0) =     -186.86393492


--------------------------------------------------------------------------------------------------------




----------------------------------------- Iteration    1(  13)  ---------------------------------------


    POTLOK:  cpu time    0.0301: real time    0.0314
    SETDIJ:  cpu time    0.0025: real time    0.0025
     EDDAV:  cpu time   31.7422: real time   31.8187
       DOS:  cpu time    0.0010: real time    0.0010
    CHARGE:  cpu time    0.4969: real time    0.4981
    MIXING:  cpu time    0.0014: real time    0.0014
    --------------------------------------------
      LOOP:  cpu time   32.2763: real time   32.3625

 eigenvalue-minimisations  : 13080
 total energy-change (2. order) : 0.9696285E-01  (-0.2955421E-01)
 number of electron     159.0000089 magnetization 
 augmentation part       -4.4217865 magnetization 

 Broyden mixing:
  rms(total) = 0.19239E+00    rms(broyden)= 0.19222E+00
  rms(prec ) = 0.21317E+00
  weight for this iteration     100.00

 eigenvalues of (default mixing * dielectric matrix)
  average eigenvalue GAMMA=   0.7774
  2.2759  1.7162  0.7315  0.5909  0.2987  0.2242  0.2419  0.1402

 Free energy of the ion-electron system (eV)
  ---------------------------------------------------
  alpha Z        PSCENC =        81.65567618
  Ewald energy   TEWEN  =     41890.25210216
  -Hartree energ DENC   =    -47799.25170332
  -exchange      EXHF   =         0.00000000
  -V(xc)+E(xc)   XCENC  =      -231.99128815
  PAW double counting   =      4187.48029094    -3605.69850785
  entropy T*S    EENTRO =        -0.33608350
  eigenvalues    EBANDS =     -1470.48677764
  atomic energy  EATOM  =      6761.44252427
  Solvation  Ediel_sol  =         0.00000000
  ---------------------------------------------------
  free energy    TOTEN  =      -186.93376692 eV

  energy without entropy =     -186.59768342  energy(sigma->0) =     -186.76572517


--------------------------------------------------------------------------------------------------------




----------------------------------------- Iteration    1(  14)  ---------------------------------------


    POTLOK:  cpu time    0.0307: real time    0.0308
    SETDIJ:  cpu time    0.0024: real time    0.0024
     EDDAV:  cpu time   31.0570: real time   31.1312
       DOS:  cpu time    0.0010: real time    0.0010
    CHARGE:  cpu time    0.4940: real time    0.4952
    MIXING:  cpu time    0.0005: real time    0.0014
    --------------------------------------------
      LOOP:  cpu time   31.5877: real time   31.6711

 eigenvalue-minimisations  : 12760
 total energy-change (2. order) : 0.2995819E-01  (-0.1081057E-01)
 number of electron     159.0000089 magnetization 
 augmentation part       -4.1741683 magnetization 

 Broyden mixing:
  rms(total) = 0.10196E+00    rms(broyden)= 0.10183E+00
  rms(prec ) = 0.11446E+00
  weight for this iteration     100.00

 eigenvalues of (default mixing * dielectric matrix)
  average eigenvalue GAMMA=   0.7359
  2.2900  1.6483  0.9491  0.6019  0.2987  0.2545  0.2227  0.2227  0.1355

 Free energy of the ion-electron system (eV)
  ---------------------------------------------------
  alpha Z        PSCENC =        81.65567618
  Ewald energy   TEWEN  =     41890.25210216
  -Hartree energ DENC   =    -47802.56033263
  -exchange      EXHF   =         0.00000000
  -V(xc)+E(xc)   XCENC  =      -231.87545691
  PAW double counting   =      4192.35073001    -3610.54386012
  entropy T*S    EENTRO =        -0.34105252
  eigenvalues    EBANDS =     -1467.28413916
  atomic energy  EATOM  =      6761.44252427
  Solvation  Ediel_sol  =         0.00000000
  ---------------------------------------------------
  free energy    TOTEN  =      -186.90380872 eV

  energy without entropy =     -186.56275620  energy(sigma->0) =     -186.73328246


--------------------------------------------------------------------------------------------------------




----------------------------------------- Iteration    1(  15)  ---------------------------------------


    POTLOK:  cpu time    0.0310: real time    0.0311
    SETDIJ:  cpu time    0.0024: real time    0.0024
     EDDAV:  cpu time   30.4706: real time   30.5440
       DOS:  cpu time    0.0011: real time    0.0011
    CHARGE:  cpu time    0.4937: real time    0.4949
    MIXING:  cpu time    0.0016: real time    0.0016
    --------------------------------------------
      LOOP:  cpu time   31.0015: real time   31.0849

 eigenvalue-minimisations  : 12480
 total energy-change (2. order) : 0.5560101E-02  (-0.4487641E-02)
 number of electron     159.0000090 magnetization 
 augmentation part       -4.1167047 magnetization 

 Broyden mixing:
  rms(total) = 0.10027E+00    rms(broyden)= 0.10019E+00
  rms(prec ) = 0.11147E+00
  weight for this iteration     100.00

 eigenvalues of (default mixing * dielectric matrix)
  average eigenvalue GAMMA=   0.6991
  2.2871  1.6360  1.0882  0.5998  0.3474  0.3022  0.2265  0.2361  0.1428  0.1249

 Free energy of the ion-electron system (eV)
  ---------------------------------------------------
  alpha Z        PSCENC =        81.65567618
  Ewald energy   TEWEN  =     41890.25210216
  -Hartree energ DENC   =    -47804.65344999
  -exchange      EXHF   =         0.00000000
  -V(xc)+E(xc)   XCENC  =      -231.83956411
  PAW double counting   =      4192.81963212    -3610.98684333
  entropy T*S    EENTRO =        -0.34302092
  eigenvalues    EBANDS =     -1465.24530500
  atomic energy  EATOM  =      6761.44252427
  Solvation  Ediel_sol  =         0.00000000
  ---------------------------------------------------
  free energy    TOTEN  =      -186.89824862 eV

  energy without entropy =     -186.55522770  energy(sigma->0) =     -186.72673816


--------------------------------------------------------------------------------------------------------




----------------------------------------- Iteration    1(  16)  ---------------------------------------


    POTLOK:  cpu time    0.0302: real time    0.0303
    SETDIJ:  cpu time    0.0023: real time    0.0023
     EDDAV:  cpu time   30.9546: real time   31.0286
       DOS:  cpu time    0.0010: real time    0.0010
    CHARGE:  cpu time    0.4954: real time    0.4966
    MIXING:  cpu time    0.0016: real time    0.0016
    --------------------------------------------
      LOOP:  cpu time   31.4861: real time   31.5694

 eigenvalue-minimisations  : 12720
 total energy-change (2. order) : 0.6427042E-02  (-0.1668855E-02)
 number of electron     159.0000090 magnetization 
 augmentation part       -4.1279136 magnetization 

 Broyden mixing:
  rms(total) = 0.48892E-01    rms(broyden)= 0.48852E-01
  rms(prec ) = 0.55081E-01
  weight for this iteration     100.00

 eigenvalues of (default mixing * dielectric matrix)
  average eigenvalue GAMMA=   0.7657
  2.3672  1.9368  1.4961  0.6937  0.6288  0.3082  0.2688  0.2243  0.2412  0.1386
  0.1187

 Free energy of the ion-electron system (eV)
  ---------------------------------------------------
  alpha Z        PSCENC =        81.65567618
  Ewald energy   TEWEN  =     41890.25210216
  -Hartree energ DENC   =    -47806.18418929
  -exchange      EXHF   =         0.00000000
  -V(xc)+E(xc)   XCENC  =      -231.82023529
  PAW double counting   =      4193.08352085    -3611.23365019
  entropy T*S    EENTRO =        -0.34337354
  eigenvalues    EBANDS =     -1463.74419673
  atomic energy  EATOM  =      6761.44252427
  Solvation  Ediel_sol  =         0.00000000
  ---------------------------------------------------
  free energy    TOTEN  =      -186.89182158 eV

  energy without entropy =     -186.54844804  energy(sigma->0) =     -186.72013481


--------------------------------------------------------------------------------------------------------




----------------------------------------- Iteration    1(  17)  ---------------------------------------


    POTLOK:  cpu time    0.0307: real time    0.0308
    SETDIJ:  cpu time    0.0024: real time    0.0024
     EDDAV:  cpu time   31.0559: real time   31.1307
       DOS:  cpu time    0.0011: real time    0.0011
    CHARGE:  cpu time    0.4966: real time    0.4978
    MIXING:  cpu time    0.0017: real time    0.0017
    --------------------------------------------
      LOOP:  cpu time   31.5894: real time   31.6741

 eigenvalue-minimisations  : 12800
 total energy-change (2. order) : 0.2702553E-02  (-0.7450969E-03)
 number of electron     159.0000090 magnetization 
 augmentation part       -4.1959413 magnetization 

 Broyden mixing:
  rms(total) = 0.17794E-01    rms(broyden)= 0.17730E-01
  rms(prec ) = 0.21667E-01
  weight for this iteration     100.00

 eigenvalues of (default mixing * dielectric matrix)
  average eigenvalue GAMMA=   0.7803
  2.3379  2.3379  1.4387  0.8604  0.6042  0.4935  0.3085  0.2237  0.2574  0.2445
  0.1385  0.1185

 Free energy of the ion-electron system (eV)
  ---------------------------------------------------
  alpha Z        PSCENC =        81.65567618
  Ewald energy   TEWEN  =     41890.25210216
  -Hartree energ DENC   =    -47811.84892446
  -exchange      EXHF   =         0.00000000
  -V(xc)+E(xc)   XCENC  =      -231.74701405
  PAW double counting   =      4194.70486514    -3612.79448365
  entropy T*S    EENTRO =        -0.34130586
  eigenvalues    EBANDS =     -1458.21255876
  atomic energy  EATOM  =      6761.44252427
  Solvation  Ediel_sol  =         0.00000000
  ---------------------------------------------------
  free energy    TOTEN  =      -186.88911903 eV

  energy without entropy =     -186.54781317  energy(sigma->0) =     -186.71846610


--------------------------------------------------------------------------------------------------------




----------------------------------------- Iteration    1(  18)  ---------------------------------------


    POTLOK:  cpu time    0.0353: real time    0.0367
    SETDIJ:  cpu time    0.0024: real time    0.0024
     EDDAV:  cpu time   28.7007: real time   28.7696
       DOS:  cpu time    0.0011: real time    0.0011
    CHARGE:  cpu time    0.4967: real time    0.4979
    MIXING:  cpu time    0.0018: real time    0.0018
    --------------------------------------------
      LOOP:  cpu time   29.2404: real time   29.3123

 eigenvalue-minimisations  : 11640
 total energy-change (2. order) : 0.5320065E-03  (-0.1885974E-03)
 number of electron     159.0000090 magnetization 
 augmentation part       -4.2062303 magnetization 

 Broyden mixing:
  rms(total) = 0.16478E-01    rms(broyden)= 0.16468E-01
  rms(prec ) = 0.19307E-01
  weight for this iteration     100.00

 eigenvalues of (default mixing * dielectric matrix)
  average eigenvalue GAMMA=   0.7870
  2.3691  2.3691  1.2621  1.2621  0.6653  0.6272  0.3877  0.3062  0.2239  0.2585
  0.2433  0.1385  0.1185

 Free energy of the ion-electron system (eV)
  ---------------------------------------------------
  alpha Z        PSCENC =        81.65567618
  Ewald energy   TEWEN  =     41890.25210216
  -Hartree energ DENC   =    -47815.31994870
  -exchange      EXHF   =         0.00000000
  -V(xc)+E(xc)   XCENC  =      -231.71256361
  PAW double counting   =      4194.95756751    -3613.01433317
  entropy T*S    EENTRO =        -0.34119825
  eigenvalues    EBANDS =     -1454.80841340
  atomic energy  EATOM  =      6761.44252427
  Solvation  Ediel_sol  =         0.00000000
  ---------------------------------------------------
  free energy    TOTEN  =      -186.88858702 eV

  energy without entropy =     -186.54738877  energy(sigma->0) =     -186.71798790


--------------------------------------------------------------------------------------------------------




----------------------------------------- Iteration    1(  19)  ---------------------------------------


    POTLOK:  cpu time    0.0302: real time    0.0303
    SETDIJ:  cpu time    0.0024: real time    0.0024
     EDDAV:  cpu time   27.4672: real time   27.5334
       DOS:  cpu time    0.0011: real time    0.0011
    CHARGE:  cpu time    0.4939: real time    0.4961
    MIXING:  cpu time    0.0018: real time    0.0018
    --------------------------------------------
      LOOP:  cpu time   27.9985: real time   28.0737

 eigenvalue-minimisations  : 11040
 total energy-change (2. order) : 0.2111345E-03  (-0.7627646E-04)
 number of electron     159.0000090 magnetization 
 augmentation part       -4.1829802 magnetization 

 Broyden mixing:
  rms(total) = 0.46163E-02    rms(broyden)= 0.46018E-02
  rms(prec ) = 0.75671E-02
  weight for this iteration     100.00

 eigenvalues of (default mixing * dielectric matrix)
  average eigenvalue GAMMA=   0.8826
  2.6846  2.6846  1.5755  1.4911  0.9980  0.6280  0.6280  0.3770  0.3069  0.2239
  0.2587  0.2433  0.1385  0.1185

 Free energy of the ion-electron system (eV)
  ---------------------------------------------------
  alpha Z        PSCENC =        81.65567618
  Ewald energy   TEWEN  =     41890.25210216
  -Hartree energ DENC   =    -47817.78460702
  -exchange      EXHF   =         0.00000000
  -V(xc)+E(xc)   XCENC  =      -231.69202545
  PAW double counting   =      4194.41725311    -3612.45983590
  entropy T*S    EENTRO =        -0.34164253
  eigenvalues    EBANDS =     -1452.37782071
  atomic energy  EATOM  =      6761.44252427
  Solvation  Ediel_sol  =         0.00000000
  ---------------------------------------------------
  free energy    TOTEN  =      -186.88837589 eV

  energy without entropy =     -186.54673336  energy(sigma->0) =     -186.71755462


--------------------------------------------------------------------------------------------------------




----------------------------------------- Iteration    1(  20)  ---------------------------------------


    POTLOK:  cpu time    0.0302: real time    0.0305
    SETDIJ:  cpu time    0.0024: real time    0.0024
     EDDAV:  cpu time   23.2781: real time   23.3342
       DOS:  cpu time    0.0011: real time    0.0011
    CHARGE:  cpu time    0.4958: real time    0.4970
    MIXING:  cpu time    0.0020: real time    0.0020
    --------------------------------------------
      LOOP:  cpu time   23.8108: real time   23.8761

 eigenvalue-minimisations  :  9040
 total energy-change (2. order) :-0.8849700E-03  (-0.8250968E-04)
 number of electron     159.0000090 magnetization 
 augmentation part       -4.1876561 magnetization 

 Broyden mixing:
  rms(total) = 0.42944E-02    rms(broyden)= 0.42934E-02
  rms(prec ) = 0.57240E-02
  weight for this iteration     100.00

 eigenvalues of (default mixing * dielectric matrix)
  average eigenvalue GAMMA=   0.9275
  3.1658  2.5458  1.9047  1.5133  0.9261  0.9261  0.6318  0.6318  0.3771  0.3069
  0.2239  0.2587  0.2433  0.1385  0.1185

 Free energy of the ion-electron system (eV)
  ---------------------------------------------------
  alpha Z        PSCENC =        81.65567618
  Ewald energy   TEWEN  =     41890.25210216
  -Hartree energ DENC   =    -47824.33934057
  -exchange      EXHF   =         0.00000000
  -V(xc)+E(xc)   XCENC  =      -231.63646878
  PAW double counting   =      4193.10470438    -3611.12590234
  entropy T*S    EENTRO =        -0.34132537
  eigenvalues    EBANDS =     -1445.90123079
  atomic energy  EATOM  =      6761.44252427
  Solvation  Ediel_sol  =         0.00000000
  ---------------------------------------------------
  free energy    TOTEN  =      -186.88926086 eV

  energy without entropy =     -186.54793549  energy(sigma->0) =     -186.71859817


--------------------------------------------------------------------------------------------------------




----------------------------------------- Iteration    1(  21)  ---------------------------------------


    POTLOK:  cpu time    0.0303: real time    0.0326
    SETDIJ:  cpu time    0.0024: real time    0.0024
     EDDAV:  cpu time   21.7254: real time   21.7779
       DOS:  cpu time    0.0012: real time    0.0012
    CHARGE:  cpu time    0.4962: real time    0.4974
    MIXING:  cpu time    0.0019: real time    0.0019
    --------------------------------------------
      LOOP:  cpu time   22.2608: real time   22.3213

 eigenvalue-minimisations  :  8240
 total energy-change (2. order) :-0.9442963E-03  (-0.2374581E-04)
 number of electron     159.0000090 magnetization 
 augmentation part       -4.1802158 magnetization 

 Broyden mixing:
  rms(total) = 0.37483E-02    rms(broyden)= 0.37442E-02
  rms(prec ) = 0.47073E-02
  weight for this iteration     100.00

 eigenvalues of (default mixing * dielectric matrix)
  average eigenvalue GAMMA=   0.9555
  3.6230  2.4264  2.1750  1.5931  1.0530  1.0530  0.6356  0.6356  0.4268  0.3772
  0.3069  0.2239  0.2587  0.2433  0.1385  0.1185

 Free energy of the ion-electron system (eV)
  ---------------------------------------------------
  alpha Z        PSCENC =        81.65567618
  Ewald energy   TEWEN  =     41890.25210216
  -Hartree energ DENC   =    -47827.33002624
  -exchange      EXHF   =         0.00000000
  -V(xc)+E(xc)   XCENC  =      -231.61631879
  PAW double counting   =      4192.71119763    -3610.73253501
  entropy T*S    EENTRO =        -0.34145575
  eigenvalues    EBANDS =     -1442.93136960
  atomic energy  EATOM  =      6761.44252427
  Solvation  Ediel_sol  =         0.00000000
  ---------------------------------------------------
  free energy    TOTEN  =      -186.89020515 eV

  energy without entropy =     -186.54874940  energy(sigma->0) =     -186.71947728


--------------------------------------------------------------------------------------------------------




----------------------------------------- Iteration    1(  22)  ---------------------------------------


    POTLOK:  cpu time    0.0307: real time    0.0310
    SETDIJ:  cpu time    0.0024: real time    0.0024
     EDDAV:  cpu time   17.7988: real time   17.8432
       DOS:  cpu time    0.0005: real time    0.0013
    CHARGE:  cpu time    0.4945: real time    0.4957
    MIXING:  cpu time    0.0020: real time    0.0020
    --------------------------------------------
      LOOP:  cpu time   18.3310: real time   18.3847

 eigenvalue-minimisations  :  6280
 total energy-change (2. order) :-0.7491859E-03  (-0.9499494E-05)
 number of electron     159.0000090 magnetization 
 augmentation part       -4.1797678 magnetization 

 Broyden mixing:
  rms(total) = 0.33082E-02    rms(broyden)= 0.33068E-02
  rms(prec ) = 0.39187E-02
  weight for this iteration     100.00

 eigenvalues of (default mixing * dielectric matrix)
  average eigenvalue GAMMA=   1.0811
  4.8499  2.5241  2.5241  1.7229  1.4822  0.9889  0.9889  0.6265  0.6265  0.2239
  0.2433  0.2587  0.3069  0.3815  0.3738  0.1385  0.1185

 Free energy of the ion-electron system (eV)
  ---------------------------------------------------
  alpha Z        PSCENC =        81.65567618
  Ewald energy   TEWEN  =     41890.25210216
  -Hartree energ DENC   =    -47829.28195959
[...]
    104      -0.6028      0.00000
    105      -0.5570      0.00000
    106      -0.4105      0.00000
    107      -0.3587      0.00000
    108      -0.0687      0.00000
    109      -0.0458      0.00000
    110       0.2301      0.00000
    111       0.4241      0.00000
    112       0.5834      0.00000
    113       0.8764      0.00000
    114       0.9233      0.00000
    115       1.0744      0.00000
    116       1.2386      0.00000
    117       1.5913      0.00000
    118       2.1511      0.00000
    119       2.3032      0.00000
    120       2.4121      0.00000

 k-point    34 :       0.5000    0.5000    0.0000
  band No.  band energies     occupation 
      1     -17.4743      2.00000
      2     -17.3773      2.00000
      3     -16.7952      2.00000
      4     -16.6806      2.00000
      5     -16.6478      2.00000
      6     -16.4923      2.00000
      7     -16.3216      2.00000
      8     -16.1862      2.00000
      9     -16.1502      2.00000
     10     -16.0546      2.00000
     11     -15.8261      2.00000
     12     -15.8225      2.00000
     13     -15.7783      2.00000
     14     -15.6802      2.00000
     15     -15.5795      2.00000
     16     -15.4626      2.00000
     17     -15.3513      2.00000
     18     -15.3247      2.00000
     19      -9.8176      2.00000
     20      -9.3749      2.00000
     21      -9.3148      2.00000
     22      -8.9667      2.00000
     23      -8.9342      2.00000
     24      -8.8147      2.00000
     25      -8.6690      2.00000
     26      -8.5919      2.00000
     27      -8.4310      2.00000
     28      -8.2978      2.00000
     29      -8.2320      2.00000
     30      -8.1504      2.00000
     31      -8.1017      2.00000
     32      -8.0196      2.00000
     33      -7.9165      2.00000
     34      -7.8678      2.00000
     35      -7.8521      2.00000
     36      -7.7346      2.00000
     37      -7.6144      2.00000
     38      -7.5148      2.00000
     39      -7.3973      2.00000
     40      -7.3454      2.00000
     41      -7.1178      2.00000
     42      -7.0396      2.00000
     43      -6.9861      2.00000
     44      -6.8649      2.00000
     45      -6.8169      2.00000
     46      -6.7054      2.00000
     47      -6.6184      2.00000
     48      -6.6021      2.00000
     49      -6.5394      2.00000
     50      -6.5119      2.00000
     51      -6.4329      2.00000
     52      -6.3885      2.00000
     53      -6.2833      2.00000
     54      -6.2590      2.00000
     55      -6.1793      2.00000
     56      -6.0396      2.00000
     57      -5.9994      2.00000
     58      -5.8417      2.00000
     59      -5.8225      2.00000
     60      -5.8000      2.00000
     61      -5.6328      2.00000
     62      -5.5942      2.00000
     63      -5.4868      2.00000
     64      -5.4131      2.00000
     65      -5.2145      2.00000
     66      -5.1186      2.00000
     67      -4.9963      2.00000
     68      -4.9059      2.00000
     69      -4.8297      2.00000
     70      -4.6040      2.00000
     71      -4.5610      2.00000
     72      -4.5282      2.00000
     73      -4.3188      2.00000
     74      -4.2876      2.00000
     75      -4.2120      2.00000
     76      -4.0753      2.00000
     77      -3.7978      1.99995
     78      -3.7442      1.99978
     79      -3.6297      1.99606
     80      -3.1126      0.43913
     81      -3.0035      0.12229
     82      -2.9014      0.02336
     83      -2.6961      0.00020
     84      -2.6248      0.00002
     85      -2.5310      0.00000
     86      -2.3483      0.00000
     87      -2.1925      0.00000
     88      -2.1090      0.00000
     89      -2.0103      0.00000
     90      -1.9176      0.00000
     91      -1.7156      0.00000
     92      -1.5000      0.00000
     93      -1.3320      0.00000
     94      -1.3004      0.00000
     95      -1.2400      0.00000
     96      -1.1808      0.00000
     97      -1.0830      0.00000
     98      -0.9825      0.00000
     99      -0.8962      0.00000
    100      -0.8364      0.00000
    101      -0.7960      0.00000
    102      -0.7432      0.00000
    103      -0.6286      0.00000
    104      -0.6049      0.00000
    105      -0.5780      0.00000
    106      -0.4239      0.00000
    107      -0.3343      0.00000
    108      -0.0925      0.00000
    109      -0.0606      0.00000
    110       0.2644      0.00000
    111       0.4424      0.00000
    112       0.5891      0.00000
    113       0.9288      0.00000
    114       0.9515      0.00000
    115       1.0329      0.00000
    116       1.2226      0.00000
    117       1.5775      0.00000
    118       2.2302      0.00000
    119       2.2698      0.00000
    120       2.3942      0.00000


--------------------------------------------------------------------------------------------------------


 soft charge-density along one line, spin component           1
         0         1         2         3         4         5         6         7         8         9
 total charge-density along one line
 
 pseudopotential strength for first ion, spin component:           1
 -7.181  -0.027  -0.031   0.018   0.002   0.662   0.007   0.009
 -0.027  -7.092   0.010   0.024  -0.018   0.007   0.635  -0.003
 -0.031   0.010  -7.036  -0.014  -0.012   0.009  -0.003   0.620
  0.018   0.024  -0.014  -7.077  -0.010  -0.005  -0.007   0.004
  0.002  -0.018  -0.012  -0.010  -7.182  -0.001   0.005   0.003
  0.662   0.007   0.009  -0.005  -0.001   0.337  -0.002  -0.003
  0.007   0.635  -0.003  -0.007   0.005  -0.002   0.345   0.001
  0.009  -0.003   0.620   0.004   0.003  -0.003   0.001   0.349
 -0.005  -0.007   0.004   0.630   0.004   0.002   0.002  -0.001
 -0.001   0.005   0.003   0.004   0.662   0.000  -0.002  -0.001
 -0.009  -0.006  -0.022   0.007  -0.003   0.002   0.002   0.005
 -0.003  -0.002  -0.007   0.002  -0.001   0.001   0.000   0.002
  0.005   0.002  -0.002   0.002  -0.006  -0.000  -0.000  -0.001
  0.002   0.010  -0.000   0.006  -0.002  -0.000  -0.000   0.000
  0.007   0.002  -0.002  -0.002   0.005   0.000  -0.000   0.000
  0.002   0.001  -0.001   0.002  -0.004  -0.000  -0.000   0.000
  0.002   0.008  -0.001   0.004  -0.002  -0.000  -0.001   0.000
  0.005   0.002  -0.000  -0.002   0.002  -0.001  -0.000   0.000
 total augmentation occupancy for first ion, spin component:           1
  0.842   0.125  -0.073   0.012   0.050   0.446   0.213  -0.010  -0.003   0.009   0.030  -0.000   0.003   0.043  -0.004  -0.001
  0.125   1.063   0.045  -0.026  -0.011   0.211   0.632   0.028  -0.012   0.002  -0.008   0.003   0.041   0.060   0.042   0.002
 -0.073   0.045   0.887  -0.022  -0.028  -0.007   0.027   0.344   0.021   0.000   0.132   0.005   0.061  -0.005   0.021   0.003
  0.012  -0.026  -0.022   1.054  -0.156  -0.002  -0.012   0.020   0.654  -0.216  -0.004  -0.000   0.061   0.037  -0.023   0.002
  0.050  -0.011  -0.028  -0.156   0.813   0.010   0.001  -0.001  -0.218   0.438  -0.013   0.002   0.027  -0.037   0.003   0.003
  0.446   0.211  -0.007  -0.002   0.010   0.381   0.219   0.002  -0.003  -0.004  -0.011  -0.001   0.015   0.058   0.026  -0.000
  0.213   0.632   0.027  -0.012   0.001   0.219   0.570   0.017  -0.005  -0.001   0.012   0.003   0.039   0.082   0.055   0.003
 -0.010   0.028   0.344   0.020  -0.001   0.002   0.017   0.276   0.014  -0.004   0.033   0.009   0.020  -0.003   0.011   0.004
 -0.003  -0.012   0.021   0.654  -0.218  -0.003  -0.005   0.014   0.586  -0.219   0.015   0.001   0.054   0.045  -0.032   0.004
  0.009   0.002   0.000  -0.216   0.438  -0.004  -0.001  -0.004  -0.219   0.370   0.013   0.001  -0.022  -0.036   0.012   0.001
  0.030  -0.008   0.132  -0.004  -0.013  -0.011   0.012   0.033   0.015   0.013   1.375   0.140   0.024   0.009   0.029   0.002
 -0.000   0.003   0.005  -0.000   0.002  -0.001   0.003   0.009   0.001   0.001   0.140   0.026   0.009  -0.000   0.004   0.001
  0.003   0.041   0.061   0.061   0.027   0.015   0.039   0.020   0.054  -0.022   0.024   0.009   0.355   0.000   0.008   0.027
  0.043   0.060  -0.005   0.037  -0.037   0.058   0.082  -0.003   0.045  -0.036   0.009  -0.000   0.000   0.415   0.000  -0.000
 -0.004   0.042   0.021  -0.023   0.003   0.026   0.055   0.011  -0.032   0.012   0.029   0.004   0.008   0.000   0.354  -0.000
 -0.001   0.002   0.003   0.002   0.003  -0.000   0.003   0.004   0.004   0.001   0.002   0.001   0.027  -0.000  -0.000   0.003
  0.002  -0.002   0.000   0.000  -0.001   0.004   0.005  -0.000   0.003  -0.003   0.000   0.000  -0.000   0.029  -0.000   0.000
 -0.003   0.002   0.002  -0.001  -0.001  -0.001   0.004   0.002  -0.003  -0.000   0.001   0.000  -0.000  -0.000   0.027  -0.000


------------------------ aborting loop because EDIFF is reached ----------------------------------------


    CHARGE:  cpu time    0.4579: real time    0.4590
    FORLOC:  cpu time    0.0063: real time    0.0063
    FORNL :  cpu time    5.1108: real time    5.1230
    STRESS:  cpu time   32.4027: real time   32.4801
    FORCOR:  cpu time    0.0332: real time    0.0337
    FORHAR:  cpu time    0.0123: real time    0.0123
    MIXING:  cpu time    0.0010: real time    0.0010
    OFIELD:  cpu time    0.0000: real time    0.0000

  FORCE on cell =-STRESS in cart. coord.  units (eV):
  Direction    XX          YY          ZZ          XY          YZ          ZX
  --------------------------------------------------------------------------------------
  Alpha Z    89.12808    89.12808    89.12808
  Ewald   49188.59297 49141.90583-54098.80157   -37.61988    18.63742     8.56794
  Hartree 49893.83083 49864.52139-49520.82339   -23.54729    11.42619     6.29208
  E(xc)    -609.60640  -610.81971  -617.65418    -1.01157    -0.84848    -0.39336
  Local  ************************101057.34700    52.54748   -38.69772   -19.94906
  n-local  1214.01714  1215.80323  1248.39536     1.32282    -2.38043    -1.98736
  augment  -212.96756  -213.09007  -214.88665     0.66189     0.84382     0.09673
  Kinetic  2005.97032  2016.50538  2055.16521     7.65774    10.89014     7.28052
  Fock        0.00000     0.00000     0.00000     0.00000     0.00000     0.00000
  -------------------------------------------------------------------------------------
  Total      -0.08578    -0.03603    -2.13014     0.01118    -0.12906    -0.09251
  in kB      -0.05721    -0.02403    -1.42084     0.00746    -0.08609    -0.06170
  external pressure =       -0.50 kB  Pullay stress =        0.00 kB


 VOLUME and BASIS-vectors are now :
 -----------------------------------------------------------------------------
  energy-cutoff  :      280.00
  volume of cell :     2402.00
      direct lattice vectors                 reciprocal lattice vectors
     8.321480902  4.825811772  0.000000000     0.059992144  0.103770422  0.000000000
    -8.308545920  4.803367603  0.000000000    -0.060272462  0.103931974  0.000000000
     0.000000000  0.000000000 30.000000000     0.000000000  0.000000000  0.033333333

  length of vectors
     9.619537601  9.597097251 30.000000000     0.119863913  0.120144184  0.033333333


 FORCES acting on ions
    electron-ion (+dipol)            ewald-force                    non-local-force                 convergence-correction
 -----------------------------------------------------------------------------------------------
   0.114E+02 0.238E+02 0.106E+02   -.118E+02 -.254E+02 -.104E+02   0.449E+00 0.153E+01 -.195E+00   -.587E-01 -.185E-01 -.141E-01
   -.112E+02 -.197E+02 -.205E+02   0.119E+02 0.209E+02 0.203E+02   -.736E+00 -.125E+01 0.221E+00   0.302E-01 0.265E-01 0.402E-01
   0.109E+02 0.190E+02 0.200E+02   -.118E+02 -.201E+02 -.199E+02   0.948E+00 0.107E+01 -.169E+00   -.403E-01 0.311E-01 -.296E-01
   0.242E+00 0.872E+01 0.215E+01   -.199E+00 -.840E+01 -.220E+01   -.366E-01 -.228E+00 0.625E-01   -.357E-02 -.710E-01 -.660E-02
   -.144E+02 0.144E+02 0.181E+01   0.144E+02 -.143E+02 -.178E+01   -.310E-02 -.593E-01 -.277E-01   -.757E-02 0.426E-02 0.196E-02
   0.203E+02 -.109E+02 0.102E+01   -.202E+02 0.107E+02 -.108E+01   -.115E+00 0.419E-01 0.498E-01   0.131E-01 0.637E-01 0.123E-01
   -.235E+02 -.287E+02 -.155E+02   0.241E+02 0.293E+02 0.153E+02   -.683E+00 -.548E+00 0.204E+00   0.459E-01 -.280E-01 0.139E-02
   -.133E+02 -.337E+02 -.124E+02   0.136E+02 0.346E+02 0.121E+02   -.213E+00 -.101E+01 0.264E+00   -.492E-01 0.663E-01 0.669E-02
   0.201E+02 0.281E+02 0.112E+02   -.208E+02 -.290E+02 -.111E+02   0.647E+00 0.902E+00 -.151E+00   0.740E-01 -.892E-01 -.371E-02
   -.227E+01 -.177E+02 0.629E+03   0.230E+01 0.186E+02 -.633E+03   -.180E-01 -.900E+00 0.345E+01   -.193E-02 0.972E-03 -.152E-01
   -.130E+02 -.217E+02 -.626E+03   0.135E+02 0.223E+02 0.630E+03   -.487E+00 -.609E+00 -.374E+01   -.406E-02 -.811E-02 0.171E-01
   -.354E+01 -.572E+01 0.568E+03   0.443E+01 0.742E+01 -.571E+03   -.931E+00 -.178E+01 0.309E+01   0.497E-01 0.922E-01 0.653E-01
   -.259E+01 -.248E+02 -.602E+03   0.270E+01 0.256E+02 0.606E+03   -.486E-01 -.886E+00 -.374E+01   -.555E-01 0.100E+00 -.687E-01
   -.129E+02 -.870E+01 0.627E+03   0.139E+02 0.926E+01 -.630E+03   -.961E+00 -.530E+00 0.340E+01   -.630E-02 -.206E-01 -.113E-01
   -.195E+02 -.147E+02 -.606E+03   0.200E+02 0.151E+02 0.610E+03   -.591E+00 -.377E+00 -.389E+01   0.110E+00 -.140E-01 -.634E-01
   -.104E+02 -.178E+02 0.506E+03   0.105E+02 0.180E+02 -.511E+03   -.104E+00 -.252E+00 0.502E+01   -.264E-01 -.122E-01 -.230E-01
   0.550E+01 0.250E+01 -.491E+03   -.532E+01 -.187E+01 0.495E+03   -.209E+00 -.548E+00 -.497E+01   0.285E-01 -.632E-01 0.353E-01
   -.519E+00 -.115E+02 0.484E+03   0.483E+00 0.115E+02 -.489E+03   0.481E-01 -.127E+00 0.478E+01   -.329E-01 0.106E+00 0.109E+00
   0.192E+00 0.400E+01 -.484E+03   0.251E+00 -.328E+01 0.489E+03   -.301E+00 -.808E+00 -.474E+01   -.124E+00 0.942E-01 -.352E-01
   -.812E+01 -.455E+01 0.488E+03   0.796E+01 0.407E+01 -.494E+03   0.822E-01 0.542E+00 0.505E+01   0.758E-01 -.786E-01 0.505E-01
   0.565E+01 0.140E+02 -.494E+03   -.556E+01 -.140E+02 0.499E+03   -.156E+00 0.811E-01 -.479E+01   0.625E-01 -.687E-01 -.117E+00
   0.196E+02 0.156E+02 0.603E+03   -.203E+02 -.160E+02 -.606E+03   0.673E+00 0.406E+00 0.376E+01   0.355E-01 -.931E-02 -.382E-01
   0.131E+02 0.152E+02 -.624E+03   -.141E+02 -.158E+02 0.628E+03   0.981E+00 0.629E+00 -.339E+01   0.195E-01 -.206E-01 0.835E-02
   0.556E+01 0.222E+02 0.589E+03   -.577E+01 -.231E+02 -.592E+03   0.355E+00 0.892E+00 0.339E+01   -.143E+00 0.351E-01 0.413E-01
   0.557E+01 0.656E+01 -.564E+03   -.674E+01 -.852E+01 0.567E+03   0.114E+01 0.188E+01 -.300E+01   0.181E-01 0.688E-01 0.430E-01
   0.101E+02 0.251E+02 0.603E+03   -.106E+02 -.259E+02 -.606E+03   0.414E+00 0.995E+00 0.334E+01   0.513E-01 -.106E+00 0.839E-01
   0.658E+01 0.202E+02 -.604E+03   -.670E+01 -.216E+02 0.607E+03   0.190E+00 0.152E+01 -.295E+01   -.661E-01 -.832E-01 -.687E-01
 -----------------------------------------------------------------------------------------------
   -.327E+00 -.572E+00 -.375E+00   0.000E+00 -.103E-12 0.341E-12   0.334E+00 0.571E+00 0.347E+00   -.545E-02 -.286E-02 0.210E-01
 
 
 POSITION                                       TOTAL-FORCE (eV/Angst)
 -----------------------------------------------------------------------------------
      0.14201      6.65553     -0.04511        -0.006310     -0.012977     -0.013474
     -2.92999      4.53340      0.07488        -0.007024     -0.006725      0.043483
      2.93792      5.10832     -0.07286         0.007754      0.015511     -0.043147
      0.00530      0.04406     -0.00765         0.002488      0.015199      0.001764
     -5.68072      3.32171     -0.00386         0.002797     -0.001549      0.001916
      5.71812      6.32929     -0.00283        -0.000728     -0.014718      0.004880
      2.59011      1.35936      0.05250        -0.005697      0.008635      0.007093
     -0.12001      2.94119      0.04414         0.005232      0.004838      0.007914
      5.71879      3.46410     -0.04169         0.003726     -0.007195     -0.000766
     -0.91486      1.56567     28.30172         0.002294      0.015510      0.013533
      0.91316      1.58412      1.71800        -0.004743      0.000202      0.004746
     -3.70748      3.17546     28.48655         0.012674      0.008611      0.013176
     -1.86509      3.19576      1.64994         0.005934     -0.019435      0.017386
     -6.49841      4.79654     28.30841         0.010965      0.009469      0.014329
     -4.61871      4.78399      1.66301        -0.026580      0.004054      0.018018
      1.87099      3.23954     28.65656        -0.002062      0.006113     -0.002405
      3.67601      3.24468      1.29200        -0.000159      0.018947     -0.019994
     -0.94490      4.82085     28.73165        -0.020636     -0.012531      0.006236
      0.95437      4.83054      1.27031         0.018738      0.005749     -0.011813
     -3.67247      6.38568     28.71673        -0.000103     -0.013643      0.012694
     -1.82860      6.38580      1.30840        -0.002216     -0.000082      0.007349
      4.62913      4.85126     28.34807         0.014245     -0.005415     -0.014651
      6.51722      4.83437      1.68417        -0.003734     -0.014123     -0.012651
      1.83740      6.43600     28.39207        -0.000192      0.012725     -0.019295
      3.72315      6.46183      1.50247        -0.009161     -0.020664     -0.012184
     -0.87961      7.99947     28.35482         0.006884      0.012569     -0.008014
      0.90386      8.01025      1.61760        -0.004387     -0.009075     -0.016123
 -----------------------------------------------------------------------------------
    total drift:                                0.000721     -0.004225     -0.007584


--------------------------------------------------------------------------------------------------------



  FREE ENERGIE OF THE ION-ELECTRON SYSTEM (eV)
  ---------------------------------------------------
  free  energy   TOTEN  =      -192.46338696 eV

  energy  without entropy=     -192.33633060  energy(sigma->0) =     -192.39985878
 
 d Force = 0.7608467E-03[ 0.667E-03, 0.855E-03]  d Energy = 0.8064257E-03-0.456E-04
 d Force = 0.1623289E+01[ 0.163E+01, 0.162E+01]  d Ewald  = 0.1608835E+02-0.145E+02


--------------------------------------------------------------------------------------------------------


    POTLOK:  cpu time    0.0342: real time    0.0342


--------------------------------------------------------------------------------------------------------


 Quasi-Newton relaxation of ions (Broydens 2nd method)
  g(Force)  = 0.648E-03   g(Stress)= 0.159E-04

 retain information from N=  3 steps
 eigenvalues of (default step * inverse Hessian matrix)
  average eigenvalue of G=   3.0999
 eigenvalue spectrum of G is  5.8538  3.2179  0.2280


--------------------------------------------------------------------------------------------------------


  
 reached required accuracy - stopping structural energy minimisation
     LOOP+:  cpu time  110.8448: real time  111.1213
    4ORBIT:  cpu time    0.0000: real time    0.0000

 total amount of memory used by VASP on root node   650782. kBytes
========================================================================

   base      :      30000. kBytes
   nonl-proj :     559647. kBytes
   fftplans  :       2414. kBytes
   grid      :      12150. kBytes
   one-center:        419. kBytes
   wavefun   :      46152. kBytes
 
  
  
 General timing and accounting informations for this job:
 ========================================================
  
                  Total CPU time used (sec):     5731.279
                            User time (sec):     5714.023
                          System time (sec):       17.256
                         Elapsed time (sec):     5747.110
  
                   Maximum memory used (kb):      746160.
                   Average memory used (kb):           0.
  
                          Minor page faults:       866019
                          Major page faults:            8
                 Voluntary context switches:         4533
