<?xml version="1.0" encoding="ISO-8859-1"?>
<modeling>
 <generator>
  <i name="program" type="string">vasp </i>
  <i name="version" type="string">5.4.1  </i>
  <i name="subversion" type="string">05Feb16 (build Jul 05 2020 17:13:04) complex                          parallel </i>
  <i name="platform" type="string">IFC91_ompi </i>
  <i name="date" type="string">2024 04 25 </i>
  <i name="time" type="string">00:00:41 </i>
 </generator>
 <incar>
  <i type="int" name="ISTART">     0</i>
  <i type="string" name="PREC">normal</i>
  <i type="string" name="ALGO"> Normal</i>
  <i type="int" name="ISPIN">     1</i>
  <i type="int" name="ICHARG">     2</i>
  <i type="int" name="IBRION">     1</i>
  <i type="int" name="NSW">   100</i>
  <i type="int" name="ISIF">     3</i>
  <i type="int" name="ISYM">     0</i>
  <i name="SYMPREC">      0.00000001</i>
  <i name="POTIM">      0.50000000</i>
  <i type="logical" name="LREAL"> F  </i>
  <i type="logical" name="LPLANE"> F  </i>
  <i type="int" name="ISMEAR">     0</i>
  <i type="logical" name="LWAVE"> F  </i>
  <i type="logical" name="LCHARG"> F  </i>
  <v type="int" name="KPOINT_BSE">    -1     0     0     0</v>
 </incar>
 <kpoints>
  <generation param="Gamma">
   <v type="int" name="divisions">       8        8        1 </v>
   <v name="usershift">      0.00000000       0.00000000       0.00000000 </v>
   <v name="genvec1">      0.12500000       0.00000000       0.00000000 </v>
   <v name="genvec2">     -0.00000000       0.12500000       0.00000000 </v>
   <v name="genvec3">      0.00000000       0.00000000       1.00000000 </v>
   <v name="shift">      0.00000000       0.00000000       0.00000000 </v>
  </generation>
  <varray name="kpointlist" >
   <v>       0.00000000       0.00000000       0.00000000 </v>
   <v>       0.12500000       0.00000000       0.00000000 </v>
   <v>       0.25000000       0.00000000       0.00000000 </v>
   <v>       0.37500000       0.00000000       0.00000000 </v>
   <v>       0.50000000       0.00000000       0.00000000 </v>
   <v>       0.00000000       0.12500000       0.00000000 </v>
   <v>       0.12500000       0.12500000       0.00000000 </v>
   <v>       0.25000000       0.12500000       0.00000000 </v>
   <v>       0.37500000       0.12500000       0.00000000 </v>
   <v>       0.50000000       0.12500000       0.00000000 </v>
   <v>      -0.37500000       0.12500000       0.00000000 </v>
   <v>      -0.25000000       0.12500000       0.00000000 </v>
   <v>      -0.12500000       0.12500000       0.00000000 </v>
   <v>       0.00000000       0.25000000       0.00000000 </v>
   <v>       0.12500000       0.25000000       0.00000000 </v>
   <v>       0.25000000       0.25000000       0.00000000 </v>
   <v>       0.37500000       0.25000000       0.00000000 </v>
   <v>       0.50000000       0.25000000       0.00000000 </v>
   <v>      -0.37500000       0.25000000       0.00000000 </v>
   <v>      -0.25000000       0.25000000       0.00000000 </v>
   <v>      -0.12500000       0.25000000       0.00000000 </v>
   <v>      -0.00000000       0.37500000       0.00000000 </v>
   <v>       0.12500000       0.37500000       0.00000000 </v>
   <v>       0.25000000       0.37500000       0.00000000 </v>
   <v>       0.37500000       0.37500000       0.00000000 </v>
   <v>       0.50000000       0.37500000       0.00000000 </v>
   <v>      -0.37500000       0.37500000       0.00000000 </v>
   <v>      -0.25000000       0.37500000       0.00000000 </v>
   <v>      -0.12500000       0.37500000       0.00000000 </v>
   <v>       0.00000000       0.50000000       0.00000000 </v>
   <v>       0.12500000       0.50000000       0.00000000 </v>
   <v>       0.25000000       0.50000000       0.00000000 </v>
   <v>       0.37500000       0.50000000       0.00000000 </v>
   <v>       0.50000000       0.50000000       0.00000000 </v>
  </varray>
  <varray name="weights" >
   <v>       0.01562500 </v>
   <v>       0.03125000 </v>
   <v>       0.03125000 </v>
   <v>       0.03125000 </v>
   <v>       0.01562500 </v>
   <v>       0.03125000 </v>
   <v>       0.03125000 </v>
   <v>       0.03125000 </v>
   <v>       0.03125000 </v>
   <v>       0.03125000 </v>
   <v>       0.03125000 </v>
   <v>       0.03125000 </v>
   <v>       0.03125000 </v>
   <v>       0.03125000 </v>
   <v>       0.03125000 </v>
   <v>       0.03125000 </v>
   <v>       0.03125000 </v>
   <v>       0.03125000 </v>
   <v>       0.03125000 </v>
   <v>       0.03125000 </v>
   <v>       0.03125000 </v>
   <v>       0.03125000 </v>
   <v>       0.03125000 </v>
   <v>       0.03125000 </v>
   <v>       0.03125000 </v>
   <v>       0.03125000 </v>
   <v>       0.03125000 </v>
   <v>       0.03125000 </v>
   <v>       0.03125000 </v>
   <v>       0.01562500 </v>
   <v>       0.03125000 </v>
   <v>       0.03125000 </v>
   <v>       0.03125000 </v>
   <v>       0.01562500 </v>
  </varray>
 </kpoints>
 <parameters>
  <separator name="general" >
   <i type="string" name="SYSTEM">unknown system</i>
   <i type="logical" name="LCOMPAT"> F  </i>
  </separator>
  <separator name="electronic" >
   <i type="string" name="PREC">normal</i>
   <i name="ENMAX">    280.00000000</i>
   <i name="ENAUG">    373.43800000</i>
   <i name="EDIFF">      0.00010000</i>
   <i type="int" name="IALGO">    38</i>
   <i type="int" name="IWAVPR">    11</i>
   <i type="int" name="NBANDS">   120</i>
   <i name="NELECT">    159.00000000</i>
   <i type="int" name="TURBO">     0</i>
   <i type="int" name="IRESTART">     0</i>
   <i type="int" name="NREBOOT">     0</i>
   <i type="int" name="NMIN">     0</i>
   <i name="EREF">      0.00000000</i>
   <separator name="electronic smearing" >
    <i type="int" name="ISMEAR">     0</i>
    <i name="SIGMA">      0.20000000</i>
    <i name="KSPACING">      0.50000000</i>
    <i type="logical" name="KGAMMA"> T  </i>
   </separator>
   <separator name="electronic projectors" >
    <i type="logical" name="LREAL"> F  </i>
    <v name="ROPT">      0.00000000      0.00000000      0.00000000      0.00000000</v>
    <i type="int" name="LMAXPAW">  -100</i>
    <i type="int" name="LMAXMIX">     2</i>
    <i type="logical" name="NLSPLINE"> F  </i>
   </separator>
   <separator name="electronic startup" >
    <i type="int" name="ISTART">     0</i>
    <i type="int" name="ICHARG">     2</i>
    <i type="int" name="INIWAV">     1</i>
   </separator>
   <separator name="electronic spin" >
    <i type="int" name="ISPIN">     1</i>
    <i type="logical" name="LNONCOLLINEAR"> F  </i>
    <v name="MAGMOM">      1.00000000      1.00000000      1.00000000      1.00000000      1.00000000      1.00000000      1.00000000      1.00000000      1.00000000      1.00000000      1.00000000      1.00000000      1.00000000      1.00000000      1.00000000      1.00000000      1.00000000      1.00000000      1.00000000      1.00000000
      1.00000000      1.00000000      1.00000000      1.00000000      1.00000000      1.00000000      1.00000000</v>
    <i name="NUPDOWN">     -1.00000000</i>
    <i type="logical" name="LSORBIT"> F  </i>
    <v name="SAXIS">      0.00000000      0.00000000      1.00000000</v>
    <i type="logical" name="LSPIRAL"> F  </i>
    <v name="QSPIRAL">      0.00000000      0.00000000      0.00000000</v>
    <i type="logical" name="LZEROZ"> F  </i>
   </separator>
   <separator name="electronic exchange-correlation" >
    <i type="logical" name="LASPH"> F  </i>
    <i type="logical" name="LMETAGGA"> F  </i>
   </separator>
   <separator name="electronic convergence" >
    <i type="int" name="NELM">    60</i>
    <i type="int" name="NELMDL">    -5</i>
    <i type="int" name="NELMIN">     2</i>
    <i name="ENINI">    280.00000000</i>
    <separator name="electronic convergence detail" >
     <i type="logical" name="LDIAG"> T  </i>
     <i type="logical" name="LSUBROT"> F  </i>
     <i name="WEIMIN">      0.00100000</i>
     <i name="EBREAK">      0.00000021</i>
     <i name="DEPER">      0.30000000</i>
     <i type="int" name="NRMM">     4</i>
     <i name="TIME">      0.40000000</i>
    </separator>
   </separator>
   <separator name="electronic mixer" >
    <i name="AMIX">      0.40000000</i>
    <i name="BMIX">      1.00000000</i>
    <i name="AMIN">      0.10000000</i>
    <i name="AMIX_MAG">      1.60000000</i>
    <i name="BMIX_MAG">      1.00000000</i>
    <separator name="electronic mixer details" >
     <i type="int" name="IMIX">     4</i>
     <i type="logical" name="MIXFIRST"> F  </i>
     <i type="int" name="MAXMIX">   -45</i>
     <i name="WC">    100.00000000</i>
     <i type="int" name="INIMIX">     1</i>
     <i type="int" name="MIXPRE">     1</i>
     <i type="int" name="MREMOVE">     5</i>
    </separator>
   </separator>
   <separator name="electronic dipolcorrection" >
    <i type="logical" name="LDIPOL"> F  </i>
    <i type="logical" name="LMONO"> F  </i>
    <i type="int" name="IDIPOL">     0</i>
    <i name="EPSILON">      1.00000000</i>
    <v name="DIPOL">   -100.00000000   -100.00000000   -100.00000000</v>
    <i name="EFIELD">      0.00000000</i>
   </separator>
  </separator>
  <separator name="grids" >
   <i type="int" name="NGX">    42</i>
   <i type="int" name="NGY">    42</i>
   <i type="int" name="NGZ">   126</i>
   <i type="int" name="NGXF">    84</i>
   <i type="int" name="NGYF">    84</i>
   <i type="int" name="NGZF">   252</i>
   <i type="logical" name="ADDGRID"> F  </i>
  </separator>
  <separator name="ionic" >
   <i type="int" name="NSW">   100</i>
   <i type="int" name="IBRION">     1</i>
   <i type="int" name="ISIF">     3</i>
   <i name="PSTRESS">      0.00000000</i>
   <i name="EDIFFG">      0.00100000</i>
   <i type="int" name="NFREE">     0</i>
   <i name="POTIM">      0.50000000</i>
   <i name="SMASS">     -3.00000000</i>
   <i name="SCALEE">      1.00000000</i>
  </separator>
  <separator name="ionic md" >
   <i name="TEBEG">      0.00010000</i>
   <i name="TEEND">      0.00010000</i>
   <i type="int" name="NBLOCK">     1</i>
   <i type="int" name="KBLOCK">   100</i>
   <i type="int" name="NPACO">   256</i>
   <i name="APACO">     16.00000000</i>
  </separator>
  <separator name="symmetry" >
   <i type="int" name="ISYM">     0</i>
   <i name="SYMPREC">      0.00000001</i>
  </separator>
  <separator name="dos" >
   <i type="logical" name="LORBIT"> F  </i>
   <v name="RWIGS">     -1.00000000     -1.00000000     -1.00000000     -1.00000000</v>
   <i type="int" name="NEDOS">   301</i>
   <i name="EMIN">     10.00000000</i>
   <i name="EMAX">    -10.00000000</i>
   <i name="EFERMI">      0.00000000</i>
  </separator>
  <separator name="writing" >
   <i type="int" name="NWRITE">     2</i>
   <i type="logical" name="LWAVE"> F  </i>
   <i type="logical" name="LCHARG"> F  </i>
   <i type="logical" name="LPARD"> F  </i>
   <i type="logical" name="LVTOT"> F  </i>
   <i type="logical" name="LVHAR"> F  </i>
   <i type="logical" name="LELF"> F  </i>
   <i type="logical" name="LOPTICS"> F  </i>
   <v name="STM">      0.00000000      0.00000000      0.00000000      0.00000000      0.00000000      0.00000000      0.00000000</v>
  </separator>
  <separator name="performance" >
   <i type="int" name="NPAR">    40</i>
   <i type="int" name="NSIM">     4</i>
   <i type="int" name="NBLK">    -1</i>
   <i type="logical" name="LPLANE"> F  </i>
   <i type="logical" name="LSCALAPACK"> T  </i>
   <i type="logical" name="LSCAAWARE"> F  </i>
   <i type="logical" name="LSCALU"> F  </i>
   <i type="logical" name="LASYNC"> F  </i>
   <i type="logical" name="LORBITALREAL"> F  </i>
  </separator>
  <separator name="miscellaneous" >
   <i type="int" name="IDIOT">     3</i>
   <i type="logical" name="LMUSIC"> F  </i>
   <v name="POMASS">     50.94100000     95.94000000    183.85000000     32.06600000</v>
   <v name="DARWINR">      0.00000000      0.00000000      0.00000000      0.00000000</v>
   <v name="DARWINV">      1.00000000      1.00000000      1.00000000      1.00000000</v>
   <i type="logical" name="LCORR"> T  </i>
  </separator>
  <i type="logical" name="GGA_COMPAT"> T  </i>
  <i type="logical" name="LBERRY"> F  </i>
  <i type="int" name="ICORELEVEL">     0</i>
  <i type="logical" name="LDAU"> F  </i>
  <i type="int" name="I_CONSTRAINED_M">     0</i>
  <separator name="electronic exchange-correlation" >
   <i type="string" name="GGA">--</i>
   <i type="int" name="VOSKOWN">     0</i>
   <i type="logical" name="LHFCALC"> F  </i>
   <i type="string" name="PRECFOCK"></i>
   <i type="logical" name="LSYMGRAD"> F  </i>
   <i type="logical" name="LHFONE"> F  </i>
   <i type="logical" name="LRHFCALC"> F  </i>
   <i type="logical" name="LTHOMAS"> F  </i>
   <i type="logical" name="LMODELHF"> F  </i>
   <i name="ENCUT4O">     -1.00000000</i>
   <i type="int" name="EXXOEP">     0</i>
   <i type="int" name="FOURORBIT">     0</i>
   <i name="AEXX">      0.00000000</i>
   <i name="HFALPHA">      0.00000000</i>
   <i name="MCALPHA">      0.00000000</i>
   <i name="ALDAX">      1.00000000</i>
   <i name="AGGAX">      1.00000000</i>
   <i name="ALDAC">      1.00000000</i>
   <i name="AGGAC">      1.00000000</i>
   <i type="int" name="NKREDX">     1</i>
   <i type="int" name="NKREDY">     1</i>
   <i type="int" name="NKREDZ">     1</i>
   <i type="logical" name="SHIFTRED"> F  </i>
   <i type="logical" name="ODDONLY"> F  </i>
   <i type="logical" name="EVENONLY"> F  </i>
   <i type="int" name="LMAXFOCK">     0</i>
   <i type="int" name="NMAXFOCKAE">     0</i>
   <i type="logical" name="LFOCKAEDFT"> F  </i>
   <i name="HFSCREEN">      0.00000000</i>
   <i name="HFSCREENC">      0.00000000</i>
   <i type="int" name="NBANDSGWLOW">     0</i>
  </separator>
  <separator name="vdW DFT" >
   <i type="logical" name="LUSE_VDW"> F  </i>
   <i name="Zab_VDW">     -0.84910000</i>
   <i name="PARAM1">      0.12340000</i>
   <i name="PARAM2">      1.00000000</i>
   <i name="PARAM3">      0.00000000</i>
  </separator>
  <separator name="model GW" >
   <i type="int" name="MODEL_GW">     0</i>
   <i name="MODEL_EPS0">     58.26239943</i>
   <i name="MODEL_ALPHA">      1.00000000</i>
  </separator>
  <separator name="linear response parameters" >
   <i type="logical" name="LEPSILON"> F  </i>
   <i type="logical" name="LRPA"> F  </i>
   <i type="logical" name="LNABLA"> F  </i>
   <i type="logical" name="LVEL"> F  </i>
   <i type="int" name="KINTER">     0</i>
   <i name="CSHIFT">      0.10000000</i>
   <i name="OMEGAMAX">     -1.00000000</i>
   <i name="DEG_THRESHOLD">      0.00200000</i>
  </separator>
  <separator name="orbital magnetization" >
   <i type="logical" name="NUCIND"> F  </i>
   <v name="MAGPOS">      0.00000000      0.00000000      0.00000000</v>
   <i type="logical" name="LNICSALL"> T  </i>
   <i type="logical" name="ORBITALMAG"> F  </i>
   <i type="logical" name="LMAGBLOCH"> F  </i>
   <i type="logical" name="LCHIMAG"> F  </i>
   <i type="logical" name="LGAUGE"> T  </i>
   <i type="int" name="MAGATOM">     0</i>
   <v name="MAGDIPOL">      0.00000000      0.00000000      0.00000000</v>
   <v name="AVECCONST">      0.00000000      0.00000000      0.00000000</v>
  </separator>
  <separator name="response functions" >
   <i type="logical" name="LADDER"> F  </i>
   <i type="logical" name="LFXC"> F  </i>
   <i type="logical" name="LHARTREE"> T  </i>
   <i type="int" name="IBSE">     0</i>
   <v type="int" name="KPOINT">    -1     0     0     0</v>
   <i type="logical" name="LTCTE"> F  </i>
   <i type="logical" name="LTETE"> F  </i>
   <i type="logical" name="LTRIPLET"> F  </i>
   <i type="logical" name="LFXCEPS"> F  </i>
   <i type="logical" name="LFXHEG"> F  </i>
   <i type="int" name="NATURALO">     0</i>
   <i type="logical" name="L2ORDER"> F  </i>
   <i type="logical" name="LUSEW"> F  </i>
   <i name="ENCUTGW">     -2.00000000</i>
   <i name="ENCUTGWSOFT">     -2.00000000</i>
   <i name="ENCUTLF">     -1.00000000</i>
   <i type="int" name="LMAXMP2">    -1</i>
   <i name="SCISSOR">      0.00000000</i>
   <i type="int" name="NOMEGA">     0</i>
   <i type="int" name="NOMEGAR">     0</i>
   <i type="int" name="NBANDSGW">    -1</i>
   <i type="int" name="NBANDSO">    -1</i>
   <i type="int" name="NBANDSV">    -1</i>
   <i type="int" name="NELM">     1</i>
   <i type="int" name="NELMHF">     1</i>
   <i type="int" name="DIM">     3</i>
   <i type="int" name="ANTIRES">     0</i>
   <i name="OMEGAMAX">    -30.00000000</i>
   <i name="OMEGAMIN">    -30.00000000</i>
   <i name="OMEGATL">   -200.00000000</i>
   <i type="int" name="OMEGAGRID">     0</i>
   <i name="CSHIFT">     -0.10000000</i>
   <i type="logical" name="SELFENERGY"> F  </i>
   <i type="logical" name="LSPECTRAL"> F  </i>
   <i type="logical" name="LSPECTRALGW"> F  </i>
   <i type="logical" name="LSINGLES"> F  </i>
   <i type="logical" name="LFERMIGW"> F  </i>
   <i type="logical" name="ODDONLYGW"> F  </i>
   <i type="logical" name="EVENONLYGW"> F  </i>
   <i type="int" name="NKREDLFX">     1</i>
   <i type="int" name="NKREDLFY">     1</i>
   <i type="int" name="NKREDLFZ">     1</i>
   <i type="int" name="MAXMEM">  1800</i>
   <i type="int" name="TELESCOPE">     0</i>
   <i type="int" name="TAUPAR">     1</i>
   <i type="int" name="OMEGAPAR">    -1</i>
   <i name="LAMBDA">      1.00000000</i>
  </separator>
  <separator name="External order field" >
   <i name="OFIELD_KAPPA">      0.00000000</i>
   <v name="OFIELD_K">      0.00000000      0.00000000      0.00000000</v>
   <i name="OFIELD_Q6_NEAR">      0.00000000</i>
   <i name="OFIELD_Q6_FAR">      0.00000000</i>
   <i name="OFIELD_A">      0.00000000</i>
  </separator>
 </parameters>
 <atominfo>
  <atoms>      27 </atoms>
  <types>       4 </types>
  <array name="atoms" >
   <dimension dim="1">ion</dimension>
   <field type="string">element</field>
   <field type="int">atomtype</field>
   <set>
    <rc><c>V </c><c>   1</c></rc>
    <rc><c>V </c><c>   1</c></rc>
    <rc><c>V </c><c>   1</c></rc>
    <rc><c>Mo</c><c>   2</c></rc>
    <rc><c>Mo</c><c>   2</c></rc>
    <rc><c>Mo</c><c>   2</c></rc>
    <rc><c>W </c><c>   3</c></rc>
    <rc><c>W </c><c>   3</c></rc>
    <rc><c>W </c><c>   3</c></rc>
    <rc><c>S </c><c>   4</c></rc>
    <rc><c>S </c><c>   4</c></rc>
    <rc><c>S </c><c>   4</c></rc>
    <rc><c>S </c><c>   4</c></rc>
    <rc><c>S </c><c>   4</c></rc>
    <rc><c>S </c><c>   4</c></rc>
    <rc><c>S </c><c>   4</c></rc>
    <rc><c>S </c><c>   4</c></rc>
    <rc><c>S </c><c>   4</c></rc>
    <rc><c>S </c><c>   4</c></rc>
    <rc><c>S </c><c>   4</c></rc>
    <rc><c>S </c><c>   4</c></rc>
    <rc><c>S </c><c>   4</c></rc>
    <rc><c>S </c><c>   4</c></rc>
    <rc><c>S </c><c>   4</c></rc>
    <rc><c>S </c><c>   4</c></rc>
    <rc><c>S </c><c>   4</c></rc>
    <rc><c>S </c><c>   4</c></rc>
   </set>
  </array>
  <array name="atomtypes" >
   <dimension dim="1">type</dimension>
   <field type="int">atomspertype</field>
   <field type="string">element</field>
   <field>mass</field>
   <field>valence</field>
   <field type="string">pseudopotential</field>
   <set>
    <rc><c>   3</c><c>V </c><c>     50.94100000</c><c>      5.00000000</c><c> PAW_PBE V 08Apr2002                    </c></rc>
    <rc><c>   3</c><c>Mo</c><c>     95.94000000</c><c>      6.00000000</c><c> PAW_PBE Mo 08Apr2002                   </c></rc>
    <rc><c>   3</c><c>W </c><c>    183.85000000</c><c>      6.00000000</c><c> PAW_PBE W 08Apr2002                    </c></rc>
    <rc><c>  18</c><c>S </c><c>     32.06600000</c><c>      6.00000000</c><c>  PAW_PBE S 17Jan2003                   </c></rc>
   </set>
  </array>
 </atominfo>
 <structure name="initialpos" >
  <crystal>
   <varray name="basis" >
    <v>       8.66999996       5.03999989       0.00000000 </v>
    <v>      -8.66999982       5.04000013       0.00000000 </v>
    <v>       0.00000000       0.00000000      30.00000000 </v>
   </varray>
   <i name="volume">   2621.80797419 </i>
   <varray name="rec_basis" >
    <v>       0.05767013       0.09920635       0.00000000 </v>
    <v>      -0.05767013       0.09920635       0.00000000 </v>
    <v>       0.00000000       0.00000000       0.03333333 </v>
   </varray>
  </crystal>
  <varray name="positions" >
   <v>       0.66666669       0.66666669       0.00000000 </v>
   <v>       0.33333334       0.66666669       0.00000000 </v>
   <v>       0.66666669       0.33333334       0.00000000 </v>
   <v>       0.00000000       0.00000000       0.00000000 </v>
   <v>       0.00000000       0.66666669       0.00000000 </v>
   <v>       1.00000000       0.33333334       0.00000000 </v>
   <v>       0.33333334       0.00000000       0.00000000 </v>
   <v>       0.33333334       0.33333334       0.00000000 </v>
   <v>       0.66666669       0.00000000       0.00000000 </v>
   <v>       0.11068511       0.22244981       0.95539999 </v>
   <v>       0.22244981       0.11068511       0.04460000 </v>
   <v>       0.11068511       0.55578315       0.95539999 </v>
   <v>       0.22244981       0.44401845       0.04460000 </v>
   <v>       0.11068511       0.88911647       0.95539999 </v>
   <v>       0.22244981       0.77735180       0.04460000 </v>
   <v>       0.44401845       0.22244981       0.95539999 </v>
   <v>       0.55578315       0.11068511       0.04460000 </v>
   <v>       0.44401845       0.55578315       0.95539999 </v>
   <v>       0.55578315       0.44401845       0.04460000 </v>
   <v>       0.44401845       0.88911647       0.95539999 </v>
   <v>       0.55578315       0.77735180       0.04460000 </v>
   <v>       0.77735180       0.22244981       0.95539999 </v>
   <v>       0.88911647       0.11068511       0.04460000 </v>
   <v>       0.77735180       0.55578315       0.95539999 </v>
   <v>       0.88911647       0.44401845       0.04460000 </v>
   <v>       0.77735180       0.88911647       0.95539999 </v>
   <v>       0.88911647       0.77735180       0.04460000 </v>
  </varray>
 </structure>
 <calculation>
  <scstep>
   <time name="dav">   21.52   21.58</time>
   <time name="total">   21.57   21.62</time>
   <energy>
    <i name="alphaZ">     81.65567618 </i>
    <i name="ewald">  41890.25210216 </i>
    <i name="hartreedc"> -47722.88004862 </i>
    <i name="XCdc">   -242.92955960 </i>
    <i name="pawpsdc">   3467.42045192 </i>
    <i name="pawaedc">  -2871.19716117 </i>
    <i name="eentropy">     -0.53873322 </i>
    <i name="bandstr">   -238.73797503 </i>
    <i name="atom">   6761.44252427 </i>
    <i name="e_fr_energy">   1124.48727690 </i>
    <i name="e_wo_entrp">   1125.02601012 </i>
    <i name="e_0_energy">   1124.75664351 </i>
   </energy>
  </scstep>
  <scstep>
   <time name="dav">   27.34   27.41</time>
   <time name="total">   27.35   27.42</time>
   <energy>
    <i name="e_fr_energy">     -4.32744500 </i>
    <i name="e_wo_entrp">     -4.16878344 </i>
    <i name="e_0_energy">     -4.24811422 </i>
   </energy>
  </scstep>
  <scstep>
   <time name="dav">   27.23   27.30</time>
   <time name="total">   27.23   27.30</time>
   <energy>
    <i name="e_fr_energy">   -199.58116346 </i>
    <i name="e_wo_entrp">   -199.31785125 </i>
    <i name="e_0_energy">   -199.44950736 </i>
   </energy>
  </scstep>
  <scstep>
   <time name="dav">   29.48   29.55</time>
   <time name="total">   29.48   29.56</time>
   <energy>
    <i name="e_fr_energy">   -208.91510931 </i>
    <i name="e_wo_entrp">   -208.61526387 </i>
    <i name="e_0_energy">   -208.76518659 </i>
   </energy>
  </scstep>
  <scstep>
   <time name="dav">   28.67   28.73</time>
   <time name="total">   29.13   29.20</time>
   <energy>
    <i name="e_fr_energy">   -209.27478184 </i>
    <i name="e_wo_entrp">   -208.97867404 </i>
    <i name="e_0_energy">   -209.12672794 </i>
   </energy>
  </scstep>
  <scstep>
   <time name="dav">   30.83   30.90</time>
   <time name="total">   31.33   31.41</time>
   <energy>
    <i name="e_fr_energy">   -237.14153500 </i>
    <i name="e_wo_entrp">   -236.87275614 </i>
    <i name="e_0_energy">   -237.00714557 </i>
   </energy>
  </scstep>
  <scstep>
   <time name="dav">   31.96   32.03</time>
   <time name="total">   32.46   32.54</time>
   <energy>
    <i name="e_fr_energy">   -196.65941626 </i>
    <i name="e_wo_entrp">   -196.32396279 </i>
    <i name="e_0_energy">   -196.49168952 </i>
   </energy>
  </scstep>
  <scstep>
   <time name="dav">   29.20   29.27</time>
   <time name="total">   29.70   29.78</time>
   <energy>
    <i name="e_fr_energy">   -190.08345448 </i>
    <i name="e_wo_entrp">   -189.81468168 </i>
    <i name="e_0_energy">   -189.94906808 </i>
   </energy>
  </scstep>
  <scstep>
   <time name="dav">   29.70   29.77</time>
   <time name="total">   30.22   30.30</time>
   <energy>
    <i name="e_fr_energy">   -188.31858857 </i>
    <i name="e_wo_entrp">   -187.98929138 </i>
    <i name="e_0_energy">   -188.15393997 </i>
   </energy>
  </scstep>
  <scstep>
   <time name="dav">   32.31   32.38</time>
   <time name="total">   32.83   32.92</time>
   <energy>
    <i name="e_fr_energy">   -187.12706827 </i>
    <i name="e_wo_entrp">   -186.78475326 </i>
    <i name="e_0_energy">   -186.95591076 </i>
   </energy>
  </scstep>
  <scstep>
   <time name="dav">   30.51   30.58</time>
   <time name="total">   31.04   31.12</time>
   <energy>
    <i name="e_fr_energy">   -187.01227322 </i>
    <i name="e_wo_entrp">   -186.66357470 </i>
    <i name="e_0_energy">   -186.83792396 </i>
   </energy>
  </scstep>
  <scstep>
   <time name="dav">   31.29   31.37</time>
   <time name="total">   31.82   31.91</time>
   <energy>
    <i name="e_fr_energy">   -187.03072976 </i>
    <i name="e_wo_entrp">   -186.69714007 </i>
    <i name="e_0_energy">   -186.86393492 </i>
   </energy>
  </scstep>
  <scstep>
   <time name="dav">   31.74   31.82</time>
   <time name="total">   32.28   32.36</time>
   <energy>
    <i name="e_fr_energy">   -186.93376692 </i>
    <i name="e_wo_entrp">   -186.59768342 </i>
    <i name="e_0_energy">   -186.76572517 </i>
   </energy>
  </scstep>
  <scstep>
   <time name="dav">   31.06   31.13</time>
   <time name="total">   31.59   31.67</time>
   <energy>
    <i name="e_fr_energy">   -186.90380872 </i>
    <i name="e_wo_entrp">   -186.56275620 </i>
    <i name="e_0_energy">   -186.73328246 </i>
   </energy>
  </scstep>
  <scstep>
   <time name="dav">   30.47   30.54</time>
   <time name="total">   31.00   31.08</time>
   <energy>
    <i name="e_fr_energy">   -186.89824862 </i>
    <i name="e_wo_entrp">   -186.55522770 </i>
    <i name="e_0_energy">   -186.72673816 </i>
   </energy>
  </scstep>
  <scstep>
   <time name="dav">   30.95   31.03</time>
   <time name="total">   31.49   31.57</time>
   <energy>
    <i name="e_fr_energy">   -186.89182158 </i>
    <i name="e_wo_entrp">   -186.54844804 </i>
    <i name="e_0_energy">   -186.72013481 </i>
   </energy>
  </scstep>
  <scstep>
   <time name="dav">   31.06   31.13</time>
   <time name="total">   31.59   31.67</time>
   <energy>
    <i name="e_fr_energy">   -186.88911903 </i>
    <i name="e_wo_entrp">   -186.54781317 </i>
    <i name="e_0_energy">   -186.71846610 </i>
   </energy>
  </scstep>
  <scstep>
   <time name="dav">   28.70   28.77</time>
   <time name="total">   29.24   29.31</time>
   <energy>
    <i name="e_fr_energy">   -186.88858702 </i>
    <i name="e_wo_entrp">   -186.54738877 </i>
    <i name="e_0_energy">   -186.71798790 </i>
   </energy>
  </scstep>
  <scstep>
   <time name="dav">   27.47   27.53</time>
   <time name="total">   28.00   28.07</time>
   <energy>
    <i name="e_fr_energy">   -186.88837589 </i>
    <i name="e_wo_entrp">   -186.54673336 </i>
    <i name="e_0_energy">   -186.71755462 </i>
   </energy>
  </scstep>
  <scstep>
   <time name="dav">   23.28   23.33</time>
   <time name="total">   23.81   23.88</time>
   <energy>
    <i name="e_fr_energy">   -186.88926086 </i>
    <i name="e_wo_entrp">   -186.54793549 </i>
    <i name="e_0_energy">   -186.71859817 </i>
   </energy>
  </scstep>
  <scstep>
   <time name="dav">   21.73   21.78</time>
   <time name="total">   22.26   22.32</time>
   <energy>
    <i name="e_fr_energy">   -186.89020515 </i>
    <i name="e_wo_entrp">   -186.54874940 </i>
    <i name="e_0_energy">   -186.71947728 </i>
   </energy>
  </scstep>
  <scstep>
   <time name="dav">   17.80   17.84</time>
   <time name="total">   18.33   18.38</time>
   <energy>
    <i name="e_fr_energy">   -186.89095434 </i>
    <i name="e_wo_entrp">   -186.54954333 </i>
    <i name="e_0_energy">   -186.72024883 </i>
   </energy>
  </scstep>
  <scstep>
   <time name="dav">   20.15   20.19</time>
   <time name="total">   20.68   20.74</time>
   <energy>
    <i name="e_fr_energy">   -186.89209308 </i>
    <i name="e_wo_entrp">   -186.55079458 </i>
    <i name="e_0_energy">   -186.72144383 </i>
   </energy>
  </scstep>
  <scstep>
   <time name="dav">   18.77   18.82</time>
   <time name="total">   19.30   19.36</time>
   <energy>
    <i name="e_fr_energy">   -186.89267388 </i>
    <i name="e_wo_entrp">   -186.55131333 </i>
    <i name="e_0_energy">   -186.72199361 </i>
   </energy>
  </scstep>
  <scstep>
   <time name="dav">   16.26   16.30</time>
   <time name="total">   16.79   16.84</time>
   <energy>
    <i name="e_fr_energy">   -186.89304066 </i>
    <i name="e_wo_entrp">   -186.55165406 </i>
    <i name="e_0_energy">   -186.72234736 </i>
   </energy>
  </scstep>
  <scstep>
   <time name="dav">   18.75   18.79</time>
   <time name="total">   19.28   19.33</time>
   <energy>
    <i name="e_fr_energy">   -186.89328747 </i>
    <i name="e_wo_entrp">   -186.55192357 </i>
    <i name="e_0_energy">   -186.72260552 </i>
   </energy>
  </scstep>
  <scstep>
   <time name="dav">   19.83   19.88</time>
   <time name="total">   19.88   20.15</time>
   <energy>
    <i name="alphaZ">     81.65567618 </i>
    <i name="ewald">  41890.25210216 </i>
    <i name="hartreedc"> -47833.18087423 </i>
    <i name="XCdc">   -231.59805615 </i>
    <i name="pawpsdc">   4192.17140676 </i>
    <i name="pawaedc">  -3610.19604140 </i>
    <i name="eentropy">     -0.34136702 </i>
    <i name="bandstr">  -1437.09875077 </i>
    <i name="atom">   6761.44252427 </i>
    <i name="e_fr_energy">   -186.89338020 </i>
    <i name="e_wo_entrp">   -186.55201318 </i>
    <i name="e_0_energy">   -186.72269669 </i>
   </energy>
  </scstep>
  <structure>
   <crystal>
    <varray name="basis" >
     <v>       8.66999996       5.03999989       0.00000000 </v>
     <v>      -8.66999982       5.04000013       0.00000000 </v>
     <v>       0.00000000       0.00000000      30.00000000 </v>
    </varray>
    <i name="volume">   2621.80797419 </i>
    <varray name="rec_basis" >
     <v>       0.05767013       0.09920635       0.00000000 </v>
     <v>      -0.05767013       0.09920635       0.00000000 </v>
     <v>       0.00000000       0.00000000       0.03333333 </v>
    </varray>
   </crystal>
   <varray name="positions" >
    <v>       0.66666669       0.66666669       0.00000000 </v>
    <v>       0.33333334       0.66666669       0.00000000 </v>
    <v>       0.66666669       0.33333334       0.00000000 </v>
    <v>       0.00000000       0.00000000       0.00000000 </v>
    <v>       0.00000000       0.66666669       0.00000000 </v>
    <v>       1.00000000       0.33333334       0.00000000 </v>
    <v>       0.33333334       0.00000000       0.00000000 </v>
    <v>       0.33333334       0.33333334       0.00000000 </v>
    <v>       0.66666669       0.00000000       0.00000000 </v>
    <v>       0.11068511       0.22244981       0.95539999 </v>
    <v>       0.22244981       0.11068511       0.04460000 </v>
    <v>       0.11068511       0.55578315       0.95539999 </v>
    <v>       0.22244981       0.44401845       0.04460000 </v>
    <v>       0.11068511       0.88911647       0.95539999 </v>
    <v>       0.22244981       0.77735180       0.04460000 </v>
    <v>       0.44401845       0.22244981       0.95539999 </v>
    <v>       0.55578315       0.11068511       0.04460000 </v>
    <v>       0.44401845       0.55578315       0.95539999 </v>
    <v>       0.55578315       0.44401845       0.04460000 </v>
    <v>       0.44401845       0.88911647       0.95539999 </v>
    <v>       0.55578315       0.77735180       0.04460000 </v>
    <v>       0.77735180       0.22244981       0.95539999 </v>
    <v>       0.88911647       0.11068511       0.04460000 </v>
    <v>       0.77735180       0.55578315       0.95539999 </v>
    <v>       0.88911647       0.44401845       0.04460000 </v>
    <v>       0.77735180       0.88911647       0.95539999 </v>
    <v>       0.88911647       0.77735180       0.04460000 </v>
   </varray>
  </structure>
  <varray name="forces" >
   <v>       0.20396555       0.27399504       0.00839670 </v>
   <v>      -0.14529837      -0.31852693       0.07999653 </v>
   <v>       0.14948191       0.39298891      -0.08828409 </v>
   <v>       0.01701498       0.01582212       0.02391805 </v>
   <v>      -0.01315184      -0.03712341      -0.01479682 </v>
   <v>      -0.01633609      -0.00974522      -0.11169815 </v>
   <v>      -0.26571431      -0.47667926       0.11555235 </v>
   <v>      -0.28244768      -0.30127547      -0.00406564 </v>
   <v>       0.32131656       0.38301779       0.03411629 </v>
   <v>       0.19127119       0.14286316      -2.90530367 </v>
   <v>      -0.03251648       0.12293505       2.94149851 </v>
   <v>       0.52574828       0.67711400      -2.14577183 </v>
   <v>      -0.36873108       0.73550103       2.18002230 </v>
   <v>       0.18868863       0.14223730      -2.90385560 </v>
   <v>       0.69213182       0.17798538       2.15327211 </v>
   <v>       0.48162693       0.60746140      -2.15699192 </v>
   <v>      -0.46885096       0.55578969       2.11916545 </v>
   <v>      -0.23320161       0.51957311      -1.39673077 </v>
   <v>       0.24240027       0.52680133       1.38726592 </v>
   <v>       0.47511280      -0.56172064      -2.11452543 </v>
   <v>       0.22052063      -0.53136357       1.40935969 </v>
   <v>      -0.68763647      -0.13511373      -2.16008899 </v>
   <v>      -0.19153701      -0.15706927       2.88302372 </v>
   <v>      -0.31402908      -0.68735629      -1.44226588 </v>
   <v>      -0.53137069      -0.68314052       2.14267770 </v>
   <v>       0.36815360      -0.68949938      -2.17488897 </v>
   <v>      -0.52661148      -0.68547161       2.14100244 </v>
  </varray>
  <varray name="stress" >
   <v>       7.27676366       0.12088248      -1.59975462 </v>
   <v>       0.12088254       4.48887299       0.03811901 </v>
   <v>      -1.59975458       0.03811880      30.27880566 </v>
  </varray>
  <energy>
   <i name="e_fr_energy">   -186.89338020 </i>
   <i name="e_wo_entrp">   -186.72269669 </i>
   <i name="e_0_energy">     -0.34136702 </i>
  </energy>
  <time name="totalsc">  771.11  773.38</time>
 </calculation>
 <calculation>
  <scstep>
   <time name="dav">   21.52   21.58</time>
   <time name="total">   22.07   22.12</time>
   <energy>
    <i name="alphaZ">     78.91875101 </i>
    <i name="ewald">  39379.22335175 </i>
    <i name="hartreedc"> -45336.80939489 </i>
    <i name="XCdc">   -239.05312328 </i>
    <i name="pawpsdc">   4192.14979870 </i>
    <i name="pawaedc">  -3610.17466599 </i>
    <i name="eentropy">     -0.27870829 </i>
    <i name="bandstr">  -1412.95084407 </i>
    <i name="atom">   6761.44252427 </i>
    <i name="e_fr_energy">   -187.53231078 </i>
    <i name="e_wo_entrp">   -187.25360249 </i>
    <i name="e_0_energy">   -187.39295663 </i>
   </energy>
  </scstep>
  <scstep>
   <time name="dav">   30.10   30.17</time>
   <time name="total">   30.63   30.71</time>
   <energy>
    <i name="e_fr_energy">   -189.48965352 </i>
    <i name="e_wo_entrp">   -189.15956665 </i>
    <i name="e_0_energy">   -189.32461008 </i>
   </energy>
  </scstep>
  <scstep>
   <time name="dav">   30.27   30.35</time>
   <time name="total">   30.82   30.90</time>
   <energy>
    <i name="e_fr_energy">   -189.37298189 </i>
    <i name="e_wo_entrp">   -189.10199709 </i>
    <i name="e_0_energy">   -189.23748949 </i>
   </energy>
  </scstep>
  <scstep>
   <time name="dav">   30.46   30.53</time>
   <time name="total">   31.00   31.09</time>
   <energy>
    <i name="e_fr_energy">   -188.78751308 </i>
    <i name="e_wo_entrp">   -188.50857492 </i>
    <i name="e_0_energy">   -188.64804400 </i>
   </energy>
  </scstep>
  <scstep>
   <time name="dav">   30.17   30.24</time>
   <time name="total">   30.71   30.79</time>
   <energy>
    <i name="e_fr_energy">   -188.92816572 </i>
    <i name="e_wo_entrp">   -188.63657587 </i>
    <i name="e_0_energy">   -188.78237080 </i>
   </energy>
  </scstep>
  <scstep>
   <time name="dav">   30.99   31.07</time>
   <time name="total">   31.53   31.62</time>
   <energy>
    <i name="e_fr_energy">   -188.75147064 </i>
    <i name="e_wo_entrp">   -188.47583388 </i>
    <i name="e_0_energy">   -188.61365226 </i>
   </energy>
  </scstep>
  <scstep>
   <time name="dav">   29.00   29.07</time>
   <time name="total">   29.55   29.63</time>
   <energy>
    <i name="e_fr_energy">   -188.71989596 </i>
    <i name="e_wo_entrp">   -188.44007935 </i>
    <i name="e_0_energy">   -188.57998765 </i>
   </energy>
  </scstep>
  <scstep>
   <time name="dav">   31.50   31.58</time>
   <time name="total">   32.05   32.13</time>
   <energy>
    <i name="e_fr_energy">   -188.71158026 </i>
    <i name="e_wo_entrp">   -188.43408225 </i>
    <i name="e_0_energy">   -188.57283125 </i>
   </energy>
  </scstep>
  <scstep>
   <time name="dav">   29.16   29.23</time>
   <time name="total">   29.71   29.79</time>
   <energy>
    <i name="e_fr_energy">   -188.70004059 </i>
    <i name="e_wo_entrp">   -188.42296820 </i>
    <i name="e_0_energy">   -188.56150439 </i>
   </energy>
  </scstep>
  <scstep>
   <time name="dav">   31.25   31.33</time>
   <time name="total">   31.79   31.88</time>
   <energy>
    <i name="e_fr_energy">   -188.69953097 </i>
    <i name="e_wo_entrp">   -188.42271644 </i>
    <i name="e_0_energy">   -188.56112370 </i>
   </energy>
  </scstep>
  <scstep>
   <time name="dav">   28.83   28.90</time>
   <time name="total">   29.37   29.45</time>
   <energy>
    <i name="e_fr_energy">   -188.69912434 </i>
    <i name="e_wo_entrp">   -188.42260498 </i>
    <i name="e_0_energy">   -188.56086466 </i>
   </energy>
  </scstep>
  <scstep>
   <time name="dav">   29.52   29.59</time>
   <time name="total">   29.56   29.64</time>
   <energy>
    <i name="alphaZ">     78.91875101 </i>
    <i name="ewald">  39379.22335175 </i>
    <i name="hartreedc"> -45347.67391004 </i>
    <i name="XCdc">   -237.96447305 </i>
    <i name="pawpsdc">   3952.20628627 </i>
    <i name="pawaedc">  -3366.74393959 </i>
    <i name="eentropy">     -0.27655478 </i>
    <i name="bandstr">  -1407.83124594 </i>
    <i name="atom">   6761.44252427 </i>
    <i name="e_fr_energy">   -188.69921010 </i>
    <i name="e_wo_entrp">   -188.42265532 </i>
    <i name="e_0_energy">   -188.56093271 </i>
   </energy>
  </scstep>
  <structure>
   <crystal>
    <varray name="basis" >
     <v>       8.85624680       5.10921361       0.00000000 </v>
     <v>      -8.85268394       5.10308512       0.00000000 </v>
     <v>       0.00000000       0.00000000      30.00000000 </v>
    </varray>
    <i name="volume">   2712.73303495 </i>
    <varray name="rec_basis" >
     <v>       0.05643480       0.09790146       0.00000000 </v>
     <v>      -0.05650258       0.09794086       0.00000000 </v>
     <v>       0.00000000       0.00000000       0.03333333 </v>
    </varray>
   </crystal>
   <varray name="positions" >
    <v>       0.66854549       0.66741056       0.00001350 </v>
    <v>       0.33140464       0.66554647       0.00012864 </v>
    <v>       0.66896341       0.33479830      -0.00014197 </v>
    <v>       0.00012306       0.00002839       0.00003846 </v>
    <v>      -0.00021426       0.66652561      -0.00002379 </v>
    <v>       0.99990791       0.33333215      -0.00017962 </v>
    <v>       0.33031271      -0.00154212       0.00018582 </v>
    <v>       0.33110563       0.33267726      -0.00000654 </v>
    <v>       0.66939376       0.00093916       0.00005486 </v>
    <v>       0.11190100       0.22260140       0.95072800 </v>
    <v>       0.22294771       0.11136394       0.04933019 </v>
    <v>       0.11538848       0.55756109       0.95194940 </v>
    <v>       0.22494403       0.44856441       0.04810567 </v>
    <v>       0.11189082       0.88927225       0.95073033 </v>
    <v>       0.22522726       0.77627801       0.04806265 </v>
    <v>       0.44826571       0.22401714       0.95193136 </v>
    <v>       0.55713873       0.11464953       0.04800780 </v>
    <v>       0.44585631       0.55891862       0.95315392 </v>
    <v>       0.55897881       0.44586532       0.04683085 </v>
    <v>       0.44265191       0.88510624       0.95199965 </v>
    <v>       0.55385358       0.77419518       0.04686637 </v>
    <v>       0.77479203       0.22371627       0.95192638 </v>
    <v>       0.88783185       0.11046627       0.04923616 </v>
    <v>       0.77318845       0.55336716       0.95308070 </v>
    <v>       0.88436861       0.44222732       0.04804561 </v>
    <v>       0.77507613       0.88479228       0.95190258 </v>
    <v>       0.88437070       0.77553626       0.04804292 </v>
   </varray>
  </structure>
  <varray name="forces" >
   <v>       0.14210238       0.27496111       0.08521305 </v>
   <v>      -0.15129752      -0.29424187      -0.07236099 </v>
   <v>       0.19586617       0.34954232       0.05447145 </v>
   <v>       0.03087595       0.21362371       0.01309616 </v>
   <v>       0.00165215       0.15159350       0.00491401 </v>
   <v>       0.11303545      -0.11856780      -0.03994183 </v>
   <v>      -0.39683485      -0.48872043      -0.06323512 </v>
   <v>      -0.18793243      -0.52606970      -0.09701842 </v>
   <v>       0.29293720       0.48495380       0.08044270 </v>
   <v>       0.05284714       0.11084656      -0.17075741 </v>
   <v>       0.06529147       0.08321158       0.14911986 </v>
   <v>       0.03206599       0.06713244      -0.05886791 </v>
   <v>       0.09510821       0.05841323       0.05673312 </v>
   <v>       0.05099574       0.11160160      -0.13772721 </v>
   <v>      -0.01020748       0.09793310       0.11958106 </v>
   <v>      -0.06007032      -0.06578228       0.23384963 </v>
   <v>       0.05133586      -0.06858004      -0.25824614 </v>
   <v>       0.06327823      -0.07510561       0.22938894 </v>
   <v>      -0.07252843      -0.07869918      -0.24645416 </v>
   <v>      -0.04868225       0.06918482       0.29155212 </v>
   <v>      -0.05126802       0.07970130      -0.19307206 </v>
   <v>       0.01819939      -0.09240285      -0.11482298 </v>
   <v>      -0.05521290      -0.10239841       0.13862647 </v>
   <v>      -0.01247035      -0.04212078      -0.03647269 </v>
   <v>      -0.02961504      -0.06447820       0.02696293 </v>
   <v>      -0.10044770      -0.05025015      -0.04843640 </v>
   <v>      -0.02902404      -0.08528180       0.05346182 </v>
  </varray>
  <varray name="stress" >
   <v>     -19.96662768      -0.02715490      -0.02846039 </v>
   <v>      -0.02715482     -19.55997612      -0.10804335 </v>
   <v>      -0.02846039      -0.10804348      -1.78989641 </v>
  </varray>
  <energy>
   <i name="e_fr_energy">   -188.69921010 </i>
   <i name="e_wo_entrp">   -188.56093271 </i>
   <i name="e_0_energy">     -0.27655478 </i>
  </energy>
  <time name="totalsc">  400.46  401.52</time>
 </calculation>
 <calculation>
  <scstep>
   <time name="dav">   23.44   23.50</time>
   <time name="total">   23.97   24.03</time>
   <energy>
    <i name="alphaZ">     82.33584519 </i>
    <i name="ewald">  41298.32119326 </i>
    <i name="hartreedc"> -47297.25103518 </i>
    <i name="XCdc">   -233.85359896 </i>
    <i name="pawpsdc">   3950.62963453 </i>
    <i name="pawaedc">  -3365.14908124 </i>
    <i name="eentropy">     -0.23220376 </i>
    <i name="bandstr">  -1386.86369323 </i>
    <i name="atom">   6761.44252427 </i>
    <i name="e_fr_energy">   -190.62041512 </i>
    <i name="e_wo_entrp">   -190.38821136 </i>
    <i name="e_0_energy">   -190.50431324 </i>
   </energy>
  </scstep>
  <scstep>
   <time name="dav">   27.58   27.65</time>
   <time name="total">   28.10   28.18</time>
   <energy>
    <i name="e_fr_energy">   -190.57029629 </i>
    <i name="e_wo_entrp">   -190.34172050 </i>
    <i name="e_0_energy">   -190.45600839 </i>
   </energy>
  </scstep>
  <scstep>
   <time name="dav">   30.12   30.20</time>
   <time name="total">   30.65   30.73</time>
   <energy>
    <i name="e_fr_energy">   -190.10805642 </i>
    <i name="e_wo_entrp">   -189.85905068 </i>
    <i name="e_0_energy">   -189.98355355 </i>
   </energy>
  </scstep>
  <scstep>
   <time name="dav">   30.56   30.64</time>
   <time name="total">   31.09   31.18</time>
   <energy>
    <i name="e_fr_energy">   -189.89511920 </i>
    <i name="e_wo_entrp">   -189.66664883 </i>
    <i name="e_0_energy">   -189.78088401 </i>
   </energy>
  </scstep>
  <scstep>
   <time name="dav">   30.01   30.08</time>
   <time name="total">   30.54   30.62</time>
   <energy>
    <i name="e_fr_energy">   -189.84865368 </i>
    <i name="e_wo_entrp">   -189.61381191 </i>
    <i name="e_0_energy">   -189.73123279 </i>
   </energy>
  </scstep>
  <scstep>
   <time name="dav">   30.92   30.99</time>
   <time name="total">   31.45   31.53</time>
   <energy>
    <i name="e_fr_energy">   -189.79805639 </i>
    <i name="e_wo_entrp">   -189.56389945 </i>
    <i name="e_0_energy">   -189.68097792 </i>
   </energy>
  </scstep>
  <scstep>
   <time name="dav">   28.56   28.63</time>
   <time name="total">   29.09   29.17</time>
   <energy>
    <i name="e_fr_energy">   -189.79147448 </i>
    <i name="e_wo_entrp">   -189.55865756 </i>
    <i name="e_0_energy">   -189.67506602 </i>
   </energy>
  </scstep>
  <scstep>
   <time name="dav">   30.13   30.20</time>
   <time name="total">   30.66   30.74</time>
   <energy>
    <i name="e_fr_energy">   -189.79207079 </i>
    <i name="e_wo_entrp">   -189.55909801 </i>
    <i name="e_0_energy">   -189.67558440 </i>
   </energy>
  </scstep>
  <scstep>
   <time name="dav">   26.90   26.96</time>
   <time name="total">   27.42   27.50</time>
   <energy>
    <i name="e_fr_energy">   -189.79152555 </i>
    <i name="e_wo_entrp">   -189.55847119 </i>
    <i name="e_0_energy">   -189.67499837 </i>
   </energy>
  </scstep>
  <scstep>
   <time name="dav">   24.77   24.83</time>
   <time name="total">   25.30   25.37</time>
   <energy>
    <i name="e_fr_energy">   -189.79181185 </i>
    <i name="e_wo_entrp">   -189.55875458 </i>
    <i name="e_0_energy">   -189.67528321 </i>
   </energy>
  </scstep>
  <scstep>
   <time name="dav">   22.98   23.03</time>
   <time name="total">   23.51   23.57</time>
   <energy>
    <i name="e_fr_energy">   -189.79153868 </i>
    <i name="e_wo_entrp">   -189.55836603 </i>
    <i name="e_0_energy">   -189.67495236 </i>
   </energy>
  </scstep>
  <scstep>
   <time name="dav">   18.41   18.45</time>
   <time name="total">   18.45   18.50</time>
   <energy>
    <i name="alphaZ">     82.33584519 </i>
    <i name="ewald">  41298.32119326 </i>
    <i name="hartreedc"> -47270.59283747 </i>
    <i name="XCdc">   -235.24512946 </i>
    <i name="pawpsdc">   4038.66238136 </i>
    <i name="pawaedc">  -3454.37103714 </i>
    <i name="eentropy">     -0.23314704 </i>
    <i name="bandstr">  -1410.11135495 </i>
    <i name="atom">   6761.44252427 </i>
    <i name="e_fr_energy">   -189.79156196 </i>
    <i name="e_wo_entrp">   -189.55841492 </i>
    <i name="e_0_energy">   -189.67498844 </i>
   </energy>
  </scstep>
  <structure>
   <crystal>
    <varray name="basis" >
     <v>       8.66846615       5.00291635       0.00000000 </v>
     <v>      -8.66527303       4.99742533       0.00000000 </v>
     <v>       0.00000000       0.00000000      30.00000000 </v>
    </varray>
    <i name="volume">   2600.14945434 </i>
    <varray name="rec_basis" >
     <v>       0.05765929       0.09997817       0.00000000 </v>
     <v>      -0.05772264       0.10001501       0.00000000 </v>
     <v>       0.00000000       0.00000000       0.03333333 </v>
    </varray>
   </crystal>
   <varray name="positions" >
    <v>       0.66913668       0.66773037       0.00006157 </v>
    <v>       0.33077272       0.66520349       0.00008783 </v>
    <v>       0.66972949       0.33519031      -0.00011125 </v>
    <v>       0.00050643       0.00035289       0.00004585 </v>
    <v>       0.00003844       0.66677525      -0.00002102 </v>
    <v>       0.99981943       0.33302759      -0.00020215 </v>
    <v>       0.32912415      -0.00197264       0.00015015 </v>
    <v>       0.33005469       0.33198511      -0.00006126 </v>
    <v>       0.67047685       0.00146278       0.00010023 </v>
    <v>       0.11213509       0.22273458       0.95063169 </v>
    <v>       0.22314790       0.11143942       0.04941430 </v>
    <v>       0.11553031       0.55764169       0.95191620 </v>
    <v>       0.22513162       0.44857029       0.04813767 </v>
    <v>       0.11212439       0.88940844       0.95065265 </v>
    <v>       0.22537975       0.77645007       0.04813010 </v>
    <v>       0.44809938       0.22396556       0.95206325 </v>
    <v>       0.55707414       0.11448679       0.04786215 </v>
    <v>       0.44579232       0.55873365       0.95328331 </v>
    <v>       0.55877918       0.44580424       0.04669184 </v>
    <v>       0.44272003       0.88526744       0.95216409 </v>
    <v>       0.55393666       0.77437628       0.04675748 </v>
    <v>       0.77465634       0.22354574       0.95186161 </v>
    <v>       0.88760949       0.11034935       0.04931435 </v>
    <v>       0.77310676       0.55330928       0.95306013 </v>
    <v>       0.88423352       0.44214877       0.04806082 </v>
    <v>       0.77489697       0.88480503       0.95187526 </v>
    <v>       0.88420170       0.77542268       0.04807307 </v>
   </varray>
  </structure>
  <varray name="forces" >
   <v>       0.12357761       0.28338414       0.08528682 </v>
   <v>      -0.18518303      -0.29550945      -0.08735372 </v>
   <v>       0.23884035       0.33064071       0.07664250 </v>
   <v>       0.04293044       0.27226603       0.00645249 </v>
   <v>       0.01308831       0.21807295       0.01205921 </v>
   <v>       0.13637215      -0.16260710      -0.01171694 </v>
   <v>      -0.43337188      -0.50186507      -0.08360120 </v>
   <v>      -0.14649937      -0.58878785      -0.08550968 </v>
   <v>       0.26683049       0.50698597       0.06587295 </v>
   <v>       0.00641037       0.02778370      -0.74255210 </v>
   <v>       0.01843966       0.02055977       0.73763919 </v>
   <v>       0.06033975       0.12457944      -0.54303769 </v>
   <v>      -0.02857365       0.10888112       0.56057951 </v>
   <v>       0.00653560       0.02138605      -0.70172190 </v>
   <v>       0.09892775       0.01526547       0.63730153 </v>
   <v>       0.01760551       0.05607343      -0.24953413 </v>
   <v>      -0.02550955       0.03956843       0.20670324 </v>
   <v>      -0.00866847       0.05962277      -0.21061554 </v>
   <v>      -0.00508094       0.03375805       0.18508748 </v>
   <v>       0.02604986      -0.03012504      -0.17099329 </v>
   <v>       0.01970614      -0.05330421       0.24747647 </v>
   <v>      -0.09186712      -0.02362260      -0.63346730 </v>
   <v>      -0.00841763      -0.01557545       0.70254772 </v>
   <v>      -0.04355708      -0.09233363      -0.48903296 </v>
   <v>      -0.06481604      -0.11178124       0.50256335 </v>
   <v>       0.02289487      -0.10414625      -0.55555893 </v>
   <v>      -0.05700408      -0.13917015       0.53848290 </v>
  </varray>
  <varray name="stress" >
   <v>     -10.18020386      -0.03556022      -0.04758634 </v>
   <v>      -0.03556011      -9.86036117      -0.12770270 </v>
   <v>      -0.04758625      -0.12770255       6.47564004 </v>
  </varray>
  <energy>
   <i name="e_fr_energy">   -189.79156196 </i>
   <i name="e_wo_entrp">   -189.67498844 </i>
   <i name="e_0_energy">     -0.23314704 </i>
  </energy>
  <time name="totalsc">  371.62  372.61</time>
 </calculation>
 <calculation>
  <scstep>
   <time name="dav">   21.50   21.56</time>
   <time name="total">   22.02   22.08</time>
   <energy>
    <i name="alphaZ">     85.80325601 </i>
    <i name="ewald">  42825.18884840 </i>
    <i name="hartreedc"> -48841.80619926 </i>
    <i name="XCdc">   -232.96515936 </i>
    <i name="pawpsdc">   4038.77800399 </i>
    <i name="pawaedc">  -3454.48462917 </i>
    <i name="eentropy">     -0.19156560 </i>
    <i name="bandstr">  -1373.13266792 </i>
    <i name="atom">   6761.44252427 </i>
    <i name="e_fr_energy">   -191.36758864 </i>
    <i name="e_wo_entrp">   -191.17602304 </i>
    <i name="e_0_energy">   -191.27180584 </i>
   </energy>
  </scstep>
  <scstep>
   <time name="dav">   32.31   32.38</time>
   <time name="total">   32.82   32.90</time>
   <energy>
    <i name="e_fr_energy">   -191.18399084 </i>
    <i name="e_wo_entrp">   -190.99412213 </i>
    <i name="e_0_energy">   -191.08905648 </i>
   </energy>
  </scstep>
  <scstep>
   <time name="dav">   29.78   29.85</time>
   <time name="total">   30.29   30.37</time>
   <energy>
    <i name="e_fr_energy">   -191.33875968 </i>
    <i name="e_wo_entrp">   -191.11462760 </i>
    <i name="e_0_energy">   -191.22669364 </i>
   </energy>
  </scstep>
  <scstep>
   <time name="dav">   30.30   30.37</time>
   <time name="total">   30.82   30.90</time>
   <energy>
    <i name="e_fr_energy">   -190.93947419 </i>
    <i name="e_wo_entrp">   -190.74793797 </i>
    <i name="e_0_energy">   -190.84370608 </i>
   </energy>
  </scstep>
  <scstep>
   <time name="dav">   30.02   30.09</time>
   <time name="total">   30.54   30.62</time>
   <energy>
    <i name="e_fr_energy">   -190.90017168 </i>
    <i name="e_wo_entrp">   -190.70553871 </i>
    <i name="e_0_energy">   -190.80285519 </i>
   </energy>
  </scstep>
  <scstep>
   <time name="dav">   30.01   30.08</time>
   <time name="total">   30.53   30.61</time>
   <energy>
    <i name="e_fr_energy">   -190.80865017 </i>
    <i name="e_wo_entrp">   -190.61007196 </i>
    <i name="e_0_energy">   -190.70936106 </i>
   </energy>
  </scstep>
  <scstep>
   <time name="dav">   30.53   30.60</time>
   <time name="total">   31.04   31.12</time>
   <energy>
    <i name="e_fr_energy">   -190.79735647 </i>
    <i name="e_wo_entrp">   -190.60283834 </i>
    <i name="e_0_energy">   -190.70009741 </i>
   </energy>
  </scstep>
  <scstep>
   <time name="dav">   25.94   26.01</time>
   <time name="total">   26.46   26.53</time>
   <energy>
    <i name="e_fr_energy">   -190.79419784 </i>
    <i name="e_wo_entrp">   -190.59839171 </i>
    <i name="e_0_energy">   -190.69629478 </i>
   </energy>
  </scstep>
  <scstep>
   <time name="dav">   28.60   28.66</time>
   <time name="total">   29.11   29.19</time>
   <energy>
    <i name="e_fr_energy">   -190.79429773 </i>
    <i name="e_wo_entrp">   -190.59854467 </i>
    <i name="e_0_energy">   -190.69642120 </i>
   </energy>
  </scstep>
  <scstep>
   <time name="dav">   27.89   27.96</time>
   <time name="total">   28.41   28.48</time>
   <energy>
    <i name="e_fr_energy">   -190.79419919 </i>
    <i name="e_wo_entrp">   -190.59815096 </i>
    <i name="e_0_energy">   -190.69617507 </i>
   </energy>
  </scstep>
  <scstep>
   <time name="dav">   24.16   24.22</time>
   <time name="total">   24.68   24.74</time>
   <energy>
    <i name="e_fr_energy">   -190.79409420 </i>
    <i name="e_wo_entrp">   -190.59817131 </i>
    <i name="e_0_energy">   -190.69613275 </i>
   </energy>
  </scstep>
  <scstep>
   <time name="dav">   19.46   19.50</time>
   <time name="total">   19.49   19.55</time>
   <energy>
    <i name="alphaZ">     85.80325601 </i>
    <i name="ewald">  42825.18884840 </i>
    <i name="hartreedc"> -48813.22783852 </i>
    <i name="XCdc">   -234.29386830 </i>
    <i name="pawpsdc">   4063.81876974 </i>
    <i name="pawaedc">  -3479.69942134 </i>
    <i name="eentropy">     -0.19596955 </i>
    <i name="bandstr">  -1399.63038840 </i>
    <i name="atom">   6761.44252427 </i>
    <i name="e_fr_energy">   -190.79408771 </i>
    <i name="e_wo_entrp">   -190.59811816 </i>
    <i name="e_0_energy">   -190.69610293 </i>
   </energy>
  </scstep>
  <structure>
   <crystal>
    <varray name="basis" >
     <v>       8.48644746       4.90207031       0.00000000 </v>
     <v>      -8.48473953       4.89914718       0.00000000 </v>
     <v>       0.00000000       0.00000000      30.00000000 </v>
    </varray>
    <i name="volume">   2495.07434676 </i>
    <varray name="rec_basis" >
     <v>       0.05890583       0.10201788       0.00000000 </v>
     <v>      -0.05894097       0.10203841       0.00000000 </v>
     <v>       0.00000000       0.00000000       0.03333333 </v>
    </varray>
   </crystal>
   <varray name="positions" >
    <v>       0.67134994       0.66910532       0.00023802 </v>
    <v>       0.32820361       0.66406878      -0.00010561 </v>
    <v>       0.67267469       0.33628745       0.00006615 </v>
    <v>       0.00252881       0.00203113       0.00005354 </v>
    <v>       0.00163279       0.66824263       0.00001000 </v>
    <v>       0.99921774       0.33137335      -0.00020234 </v>
    <v>       0.32433482      -0.00352811      -0.00004010 </v>
    <v>       0.32574523       0.32861266      -0.00022831 </v>
    <v>       0.67462911       0.00376462       0.00022406 </v>
    <v>       0.11205731       0.22274448       0.94860896 </v>
    <v>       0.22311880       0.11141233       0.05144111 </v>
    <v>       0.11671194       0.55830632       0.95038073 </v>
    <v>       0.22565759       0.44965980       0.04972618 </v>
    <v>       0.11199199       0.88935710       0.94872100 </v>
    <v>       0.22578285       0.77582379       0.04988910 </v>
    <v>       0.44893054       0.22444569       0.95113548 </v>
    <v>       0.55738936       0.11520816       0.04868564 </v>
    <v>       0.44636733       0.55957914       0.95247296 </v>
    <v>       0.55935060       0.44621791       0.04744217 </v>
    <v>       0.44248491       0.88462839       0.95141650 </v>
    <v>       0.55344392       0.77353618       0.04764452 </v>
    <v>       0.77419036       0.22406080       0.95010975 </v>
    <v>       0.88776633       0.11043200       0.05124764 </v>
    <v>       0.77220148       0.55280799       0.95166327 </v>
    <v>       0.88313119       0.44161579       0.04950529 </v>
    <v>       0.77437106       0.88375758       0.95029434 </v>
    <v>       0.88295015       0.77466316       0.04959985 </v>
   </varray>
  </structure>
  <varray name="forces" >
   <v>       0.09727840       0.26718192       0.04913845 </v>
   <v>      -0.19156267      -0.31185559      -0.07867718 </v>
   <v>       0.30242066       0.37385412       0.07225833 </v>
   <v>       0.04376096       0.33682410      -0.01286404 </v>
   <v>       0.02053063       0.25738040       0.01360918 </v>
   <v>       0.16179841      -0.20844299       0.02663392 </v>
   <v>      -0.51461626      -0.55378398      -0.03821750 </v>
   <v>      -0.13647088      -0.60966587      -0.02034796 </v>
   <v>       0.31113222       0.56599462       0.00343291 </v>
   <v>      -0.03974849      -0.05267721      -0.59501053 </v>
   <v>      -0.02340806      -0.03427553       0.59174507 </v>
   <v>       0.00986682      -0.01018614      -0.39141379 </v>
   <v>      -0.02084693      -0.01053997       0.37325225 </v>
   <v>      -0.05388779      -0.07790427      -0.56346545 </v>
   <v>       0.00953864      -0.01356652       0.47969813 </v>
   <v>      -0.00390267      -0.00384056      -0.11073023 </v>
   <v>      -0.02010918      -0.03852956       0.02707740 </v>
   <v>       0.02187997      -0.02153223      -0.08707155 </v>
   <v>      -0.03928753      -0.04162131       0.06212151 </v>
   <v>      -0.00449479       0.04073664       0.01622495 </v>
   <v>      -0.00453617       0.00311013       0.14717575 </v>
   <v>      -0.01352636       0.03718904      -0.49131087 </v>
   <v>       0.04957425       0.05711675       0.53919811 </v>
   <v>       0.00474940       0.01620758      -0.38027501 </v>
   <v>      -0.00342084       0.02109926       0.35962382 </v>
   <v>       0.04636391       0.01531627      -0.37921646 </v>
   <v>      -0.00907563      -0.00358912       0.38741080 </v>
  </varray>
  <varray name="stress" >
   <v>      -5.86774316       0.10307685      -0.01533999 </v>
   <v>       0.10307670      -5.74629915       0.01313935 </v>
   <v>      -0.01533983       0.01313939       4.52005505 </v>
  </varray>
  <energy>
   <i name="e_fr_energy">   -190.79408771 </i>
   <i name="e_wo_entrp">   -190.69610293 </i>
   <i name="e_0_energy">     -0.19596955 </i>
  </energy>
  <time name="totalsc">  377.58  378.79</time>
 </calculation>
 <calculation>
  <scstep>
   <time name="dav">   21.53   21.58</time>
   <time name="total">   22.04   22.09</time>
   <energy>
    <i name="alphaZ">     90.21753957 </i>
    <i name="ewald">  44683.60244649 </i>
    <i name="hartreedc"> -50727.60771053 </i>
    <i name="XCdc">   -231.80640942 </i>
    <i name="pawpsdc">   4063.76887304 </i>
    <i name="pawaedc">  -3479.64543793 </i>
    <i name="eentropy">     -0.16451867 </i>
    <i name="bandstr">  -1352.06516576 </i>
    <i name="atom">   6761.44252427 </i>
    <i name="e_fr_energy">   -192.25785895 </i>
    <i name="e_wo_entrp">   -192.09334028 </i>
    <i name="e_0_energy">   -192.17559961 </i>
   </energy>
  </scstep>
  <scstep>
   <time name="dav">   27.31   27.38</time>
   <time name="total">   27.81   27.89</time>
   <energy>
    <i name="e_fr_energy">   -191.99313290 </i>
    <i name="e_wo_entrp">   -191.81643848 </i>
    <i name="e_0_energy">   -191.90478569 </i>
   </energy>
  </scstep>
  <scstep>
   <time name="dav">   29.85   29.92</time>
   <time name="total">   30.35   30.43</time>
   <energy>
    <i name="e_fr_energy">   -192.06670685 </i>
    <i name="e_wo_entrp">   -191.88562692 </i>
    <i name="e_0_energy">   -191.97616688 </i>
   </energy>
  </scstep>
  <scstep>
   <time name="dav">   29.43   29.50</time>
   <time name="total">   29.93   30.01</time>
   <energy>
    <i name="e_fr_energy">   -191.86573508 </i>
    <i name="e_wo_entrp">   -191.68719533 </i>
    <i name="e_0_energy">   -191.77646520 </i>
   </energy>
  </scstep>
  <scstep>
   <time name="dav">   30.28   30.35</time>
   <time name="total">   30.78   30.87</time>
   <energy>
    <i name="e_fr_energy">   -191.60235719 </i>
    <i name="e_wo_entrp">   -191.43234843 </i>
    <i name="e_0_energy">   -191.51735281 </i>
   </energy>
  </scstep>
  <scstep>
   <time name="dav">   30.80   30.88</time>
   <time name="total">   31.31   31.39</time>
   <energy>
    <i name="e_fr_energy">   -191.59168067 </i>
    <i name="e_wo_entrp">   -191.40923490 </i>
    <i name="e_0_energy">   -191.50045779 </i>
   </energy>
  </scstep>
  <scstep>
   <time name="dav">   30.21   30.28</time>
   <time name="total">   30.71   30.80</time>
   <energy>
    <i name="e_fr_energy">   -191.57343229 </i>
    <i name="e_wo_entrp">   -191.40674349 </i>
    <i name="e_0_energy">   -191.49008789 </i>
   </energy>
  </scstep>
  <scstep>
   <time name="dav">   28.87   28.94</time>
   <time name="total">   29.37   29.45</time>
   <energy>
    <i name="e_fr_energy">   -191.56599944 </i>
    <i name="e_wo_entrp">   -191.39432703 </i>
    <i name="e_0_energy">   -191.48016324 </i>
   </energy>
  </scstep>
  <scstep>
   <time name="dav">   29.44   29.51</time>
   <time name="total">   29.94   30.02</time>
   <energy>
    <i name="e_fr_energy">   -191.56515780 </i>
    <i name="e_wo_entrp">   -191.39308938 </i>
    <i name="e_0_energy">   -191.47912359 </i>
   </energy>
  </scstep>
  <scstep>
   <time name="dav">   28.44   28.51</time>
   <time name="total">   28.95   29.02</time>
   <energy>
    <i name="e_fr_energy">   -191.56513366 </i>
    <i name="e_wo_entrp">   -191.39292825 </i>
    <i name="e_0_energy">   -191.47903095 </i>
   </energy>
  </scstep>
  <scstep>
   <time name="dav">   27.02   27.09</time>
   <time name="total">   27.06   27.13</time>
   <energy>
    <i name="alphaZ">     90.21753957 </i>
    <i name="ewald">  44683.60244649 </i>
    <i name="hartreedc"> -50692.72291527 </i>
    <i name="XCdc">   -233.34824703 </i>
    <i name="pawpsdc">   4086.55350222 </i>
    <i name="pawaedc">  -3502.51542830 </i>
    <i name="eentropy">     -0.17242500 </i>
    <i name="bandstr">  -1384.62207028 </i>
    <i name="atom">   6761.44252427 </i>
    <i name="e_fr_energy">   -191.56507334 </i>
    <i name="e_wo_entrp">   -191.39264833 </i>
    <i name="e_0_energy">   -191.47886084 </i>
   </energy>
  </scstep>
  <structure>
   <crystal>
    <varray name="basis" >
     <v>       8.27560162       4.78755079       0.00000000 </v>
     <v>      -8.26826512       4.77487888       0.00000000 </v>
     <v>       0.00000000       0.00000000      30.00000000 </v>
    </varray>
    <i name="volume">   2372.99203644 </i>
    <varray name="rec_basis" >
     <v>       0.06036530       0.10452962       0.00000000 </v>
     <v>      -0.06052550       0.10462237       0.00000000 </v>
     <v>       0.00000000       0.00000000       0.03333333 </v>
    </varray>
   </crystal>
   <varray name="positions" >
    <v>       0.67539996       0.67177633       0.00045596 </v>
    <v>       0.32294513       0.66165186      -0.00044285 </v>
    <v>       0.67934882       0.33861488       0.00038234 </v>
    <v>       0.00709559       0.00593369       0.00000540 </v>
    <v>       0.00510781       0.67140046       0.00007124 </v>
    <v>       0.99775606       0.32756717      -0.00008733 </v>
    <v>       0.31386423      -0.00667354      -0.00023924 </v>
    <v>       0.31713173       0.32182856      -0.00033413 </v>
    <v>       0.68374012       0.00860145       0.00025708 </v>
    <v>       0.11097850       0.22230164       0.94555586 </v>
    <v>       0.22239661       0.11110224       0.05449687 </v>
    <v>       0.11714870       0.55840820       0.94823482 </v>
    <v>       0.22551030       0.45024482       0.05183774 </v>
    <v>       0.11052760       0.88869644       0.94580805 </v>
    <v>       0.22576035       0.77512130       0.05242813 </v>
    <v>       0.44946616       0.22473234       0.95013020 </v>
    <v>       0.55708218       0.11545952       0.04935689 </v>
    <v>       0.44663789       0.55984000       0.95161480 </v>
    <v>       0.55915885       0.44629319       0.04819086 </v>
    <v>       0.44270249       0.88459767       0.95091833 </v>
    <v>       0.55310816       0.77297756       0.04873327 </v>
    <v>       0.77439141       0.22498060       0.94753127 </v>
    <v>       0.88898359       0.11089455       0.05407613 </v>
    <v>       0.77200649       0.55274418       0.94961708 </v>
    <v>       0.88288628       0.44165830       0.05150962 </v>
    <v>       0.77471892       0.88306993       0.94816136 </v>
    <v>       0.88236053       0.77439113       0.05173015 </v>
   </varray>
  </structure>
  <varray name="forces" >
   <v>       0.11763912       0.32952240       0.02121499 </v>
   <v>      -0.18615249      -0.40834262       0.00897947 </v>
   <v>       0.34747039       0.50371528      -0.04932218 </v>
   <v>      -0.03068256       0.08732741      -0.07900789 </v>
   <v>      -0.05152525       0.11407602      -0.05251023 </v>
   <v>       0.11352413      -0.12369823      -0.01335264 </v>
   <v>      -0.34946143      -0.39526191       0.11750816 </v>
   <v>      -0.14598719      -0.44077683       0.04603447 </v>
   <v>       0.31985906       0.49523175      -0.07011205 </v>
   <v>      -0.08528536      -0.09189986      -0.25980731 </v>
   <v>      -0.03649526      -0.06170644       0.29678923 </v>
   <v>      -0.04446392      -0.15493926      -0.07288956 </v>
   <v>       0.01967548      -0.10768736       0.09687713 </v>
   <v>      -0.14847124      -0.17040380      -0.28470253 </v>
   <v>      -0.08190708       0.00293181       0.14366955 </v>
   <v>      -0.03286702      -0.12000663       0.20992778 </v>
   <v>       0.00688244      -0.18583082      -0.34412603 </v>
   <v>       0.05482785      -0.16234123       0.17176354 </v>
   <v>      -0.04446874      -0.15091755      -0.23270264 </v>
   <v>      -0.11120656       0.17991445       0.35739362 </v>
   <v>      -0.07213168       0.10614492      -0.15131244 </v>
   <v>       0.06236978       0.07681799      -0.16915260 </v>
   <v>       0.14191373       0.11663704       0.26953361 </v>
   <v>       0.05414849       0.08746791      -0.05424508 </v>
   <v>       0.09129986       0.18857895       0.11832451 </v>
   <v>       0.04181974       0.13716109      -0.10956858 </v>
   <v>       0.04967573       0.14828553       0.08479571 </v>
  </varray>
  <varray name="stress" >
   <v>      -0.24970238       0.18157385       0.33038379 </v>
   <v>       0.18157375       0.18139898       0.33558949 </v>
   <v>       0.33038383       0.33558959      -0.50979635 </v>
  </varray>
  <energy>
   <i name="e_fr_energy">   -191.56507334 </i>
   <i name="e_wo_entrp">   -191.47886084 </i>
   <i name="e_0_energy">     -0.17242500 </i>
  </energy>
  <time name="totalsc">  359.74  360.69</time>
 </calculation>
 <calculation>
  <scstep>
   <time name="dav">   21.48   21.53</time>
   <time name="total">   21.98   22.04</time>
   <energy>
    <i name="alphaZ">     90.25092488 </i>
    <i name="ewald">  44682.07405408 </i>
    <i name="hartreedc"> -50692.17282607 </i>
    <i name="XCdc">   -233.40100822 </i>
    <i name="pawpsdc">   4086.90515471 </i>
    <i name="pawaedc">  -3502.86335437 </i>
    <i name="eentropy">     -0.16566641 </i>
    <i name="bandstr">  -1383.75861733 </i>
    <i name="atom">   6761.44252427 </i>
    <i name="e_fr_energy">   -191.68881444 </i>
    <i name="e_wo_entrp">   -191.52314803 </i>
    <i name="e_0_energy">   -191.60598123 </i>
   </energy>
  </scstep>
  <scstep>
   <time name="dav">   30.80   30.88</time>
   <time name="total">   31.31   31.39</time>
   <energy>
    <i name="e_fr_energy">   -191.75306335 </i>
    <i name="e_wo_entrp">   -191.56784687 </i>
    <i name="e_0_energy">   -191.66045511 </i>
   </energy>
  </scstep>
  <scstep>
   <time name="dav">   30.58   30.66</time>
   <time name="total">   31.08   31.17</time>
   <energy>
    <i name="e_fr_energy">   -191.70956816 </i>
    <i name="e_wo_entrp">   -191.54378260 </i>
    <i name="e_0_energy">   -191.62667538 </i>
   </energy>
  </scstep>
  <scstep>
   <time name="dav">   28.55   28.61</time>
   <time name="total">   29.05   29.12</time>
   <energy>
    <i name="e_fr_energy">   -191.70876440 </i>
    <i name="e_wo_entrp">   -191.53991336 </i>
    <i name="e_0_energy">   -191.62433888 </i>
   </energy>
  </scstep>
  <scstep>
   <time name="dav">   28.84   28.91</time>
   <time name="total">   29.34   29.42</time>
   <energy>
    <i name="e_fr_energy">   -191.70555322 </i>
    <i name="e_wo_entrp">   -191.53677066 </i>
    <i name="e_0_energy">   -191.62116194 </i>
   </energy>
  </scstep>
  <scstep>
   <time name="dav">   28.09   28.15</time>
   <time name="total">   28.59   28.67</time>
   <energy>
    <i name="e_fr_energy">   -191.70527062 </i>
    <i name="e_wo_entrp">   -191.53582199 </i>
    <i name="e_0_energy">   -191.62054630 </i>
   </energy>
  </scstep>
  <scstep>
   <time name="dav">   28.63   28.70</time>
   <time name="total">   29.13   29.21</time>
   <energy>
    <i name="e_fr_energy">   -191.70471488 </i>
    <i name="e_wo_entrp">   -191.53594271 </i>
    <i name="e_0_energy">   -191.62032880 </i>
   </energy>
  </scstep>
  <scstep>
   <time name="dav">   23.77   23.82</time>
   <time name="total">   24.27   24.34</time>
   <energy>
    <i name="e_fr_energy">   -191.70449739 </i>
    <i name="e_wo_entrp">   -191.53541239 </i>
    <i name="e_0_energy">   -191.61995489 </i>
   </energy>
  </scstep>
  <scstep>
   <time name="dav">   17.59   17.63</time>
   <time name="total">   17.63   17.67</time>
   <energy>
    <i name="alphaZ">     90.25092488 </i>
    <i name="ewald">  44682.07405408 </i>
    <i name="hartreedc"> -50693.00745912 </i>
    <i name="XCdc">   -233.38506457 </i>
    <i name="pawpsdc">   4086.18644087 </i>
    <i name="pawaedc">  -3502.11704388 </i>
    <i name="eentropy">     -0.16880752 </i>
    <i name="bandstr">  -1382.98006046 </i>
    <i name="atom">   6761.44252427 </i>
    <i name="e_fr_energy">   -191.70449144 </i>
    <i name="e_wo_entrp">   -191.53568392 </i>
    <i name="e_0_energy">   -191.62008768 </i>
   </energy>
  </scstep>
  <structure>
   <crystal>
    <varray name="basis" >
     <v>       8.27162111       4.79348421       0.00000000 </v>
     <v>      -8.25961598       4.77272048       0.00000000 </v>
     <v>       0.00000000       0.00000000      30.00000000 </v>
    </varray>
    <i name="volume">   2372.11422722 </i>
    <varray name="rec_basis" >
     <v>       0.06036034       0.10445892       0.00000000 </v>
     <v>      -0.06062293       0.10461074       0.00000000 </v>
     <v>       0.00000000       0.00000000       0.03333333 </v>
    </varray>
   </crystal>
   <varray name="positions" >
    <v>       0.67745143       0.67312722       0.00049190 </v>
    <v>       0.32028273       0.66010328      -0.00043048 </v>
    <v>       0.68298041       0.34017307       0.00030430 </v>
    <v>       0.00747975       0.00649469      -0.00012328 </v>
    <v>       0.00556024       0.67215496      -0.00001368 </v>
    <v>       0.99745031       0.32657673      -0.00010827 </v>
    <v>       0.31075508      -0.00767834      -0.00004973 </v>
    <v>       0.31440063       0.31996701      -0.00026009 </v>
    <v>       0.68726271       0.01021463       0.00014343 </v>
    <v>       0.11025171       0.22208142       0.94511149 </v>
    <v>       0.22196960       0.11089299       0.05500142 </v>
    <v>       0.11623311       0.55775102       0.94810033 </v>
    <v>       0.22501904       0.44964359       0.05201115 </v>
    <v>       0.10921246       0.88826083       0.94532417 </v>
    <v>       0.22553442       0.77537151       0.05268029 </v>
    <v>       0.44876385       0.22422032       0.95046261 </v>
    <v>       0.55615479       0.11449542       0.04880429 </v>
    <v>       0.44597527       0.55885472       0.95188634 </v>
    <v>       0.55826021       0.44565641       0.04781955 </v>
    <v>       0.44329239       0.88584091       0.95149359 </v>
    <v>       0.55343323       0.77372560       0.04849638 </v>
    <v>       0.77496703       0.22519576       0.94723748 </v>
    <v>       0.89000403       0.11107412       0.05453488 </v>
    <v>       0.77260854       0.55302917       0.94951377 </v>
    <v>       0.88411240       0.44235001       0.05171698 </v>
    <v>       0.77554246       0.88363946       0.94796720 </v>
    <v>       0.88325663       0.77499793       0.05188389 </v>
   </varray>
  </structure>
  <varray name="forces" >
   <v>       0.13734257       0.37832335       0.06399028 </v>
   <v>      -0.17708137      -0.44424097      -0.00168392 </v>
   <v>       0.32405056       0.50477837      -0.00806880 </v>
   <v>      -0.03100821       0.04745930      -0.03100438 </v>
   <v>      -0.08260698       0.10595855      -0.03463496 </v>
   <v>       0.13755746      -0.08911367       0.02958762 </v>
   <v>      -0.33556047      -0.42988378       0.02692770 </v>
   <v>      -0.18157928      -0.43672700       0.01739144 </v>
   <v>       0.30931905       0.48806552      -0.00166594 </v>
   <v>      -0.06680007      -0.06973981      -0.20960470 </v>
   <v>      -0.05632383      -0.06869814       0.24013290 </v>
   <v>      -0.03529898      -0.10998651      -0.06951625 </v>
   <v>      -0.00706885      -0.06458561       0.11614071 </v>
   <v>      -0.09165341      -0.10640385      -0.18711605 </v>
   <v>      -0.05692868      -0.02997186       0.13370326 </v>
   <v>      -0.00666909      -0.08308971       0.26398001 </v>
   <v>       0.00063139      -0.11935857      -0.37899816 </v>
   <v>       0.03145013      -0.11817877       0.23026555 </v>
   <v>      -0.01458867      -0.10870307      -0.29475361 </v>
   <v>      -0.06496223       0.13848079       0.39663152 </v>
   <v>      -0.06439098       0.08665739      -0.22380901 </v>
   <v>       0.05037995       0.07216643      -0.18395035 </v>
   <v>       0.09595308       0.09805988       0.19611271 </v>
   <v>       0.03293274       0.04742641      -0.07715792 </v>
   <v>       0.07608787       0.14539500       0.08076700 </v>
   <v>       0.03885289       0.06959718      -0.16084973 </v>
   <v>       0.03796341       0.09631316       0.06718308 </v>
  </varray>
  <varray name="stress" >
   <v>       0.09062324       0.08465637       0.15077032 </v>
   <v>       0.08465635       0.16660040       0.24028965 </v>
   <v>       0.15077057       0.24028967      -1.11606872 </v>
  </varray>
  <energy>
   <i name="e_fr_energy">   -191.70449144 </i>
   <i name="e_wo_entrp">   -191.62008768 </i>
   <i name="e_0_energy">     -0.16880752 </i>
  </energy>
  <time name="totalsc">  283.84  284.59</time>
 </calculation>
 <calculation>
  <scstep>
   <time name="dav">   21.51   21.56</time>
   <time name="total">   22.01   22.07</time>
   <energy>
    <i name="alphaZ">     90.12802545 </i>
    <i name="ewald">  44629.09187611 </i>
    <i name="hartreedc"> -50638.40558407 </i>
    <i name="XCdc">   -233.47116322 </i>
    <i name="pawpsdc">   4086.20962986 </i>
    <i name="pawaedc">  -3502.14047469 </i>
    <i name="eentropy">     -0.16268387 </i>
    <i name="bandstr">  -1384.52333794 </i>
    <i name="atom">   6761.44252427 </i>
    <i name="e_fr_energy">   -191.83118809 </i>
    <i name="e_wo_entrp">   -191.66850423 </i>
    <i name="e_0_energy">   -191.74984616 </i>
   </energy>
  </scstep>
  <scstep>
   <time name="dav">   31.04   31.11</time>
   <time name="total">   31.54   31.62</time>
   <energy>
    <i name="e_fr_energy">   -191.87710515 </i>
    <i name="e_wo_entrp">   -191.70225751 </i>
    <i name="e_0_energy">   -191.78968133 </i>
   </energy>
  </scstep>
  <scstep>
   <time name="dav">   30.61   30.69</time>
   <time name="total">   31.12   31.20</time>
   <energy>
    <i name="e_fr_energy">   -191.85212930 </i>
    <i name="e_wo_entrp">   -191.69080414 </i>
    <i name="e_0_energy">   -191.77146672 </i>
   </energy>
  </scstep>
  <scstep>
   <time name="dav">   28.76   28.83</time>
   <time name="total">   29.26   29.34</time>
   <energy>
    <i name="e_fr_energy">   -191.84850940 </i>
    <i name="e_wo_entrp">   -191.68405029 </i>
    <i name="e_0_energy">   -191.76627985 </i>
   </energy>
  </scstep>
  <scstep>
   <time name="dav">   29.73   29.81</time>
   <time name="total">   30.23   30.31</time>
   <energy>
    <i name="e_fr_energy">   -191.84801392 </i>
    <i name="e_wo_entrp">   -191.68383030 </i>
    <i name="e_0_energy">   -191.76592211 </i>
   </energy>
  </scstep>
  <scstep>
   <time name="dav">   29.41   29.48</time>
   <time name="total">   29.92   30.00</time>
   <energy>
    <i name="e_fr_energy">   -191.84703134 </i>
    <i name="e_wo_entrp">   -191.68289974 </i>
    <i name="e_0_energy">   -191.76496554 </i>
   </energy>
  </scstep>
  <scstep>
   <time name="dav">   25.94   26.00</time>
   <time name="total">   26.44   26.52</time>
   <energy>
    <i name="e_fr_energy">   -191.84609799 </i>
    <i name="e_wo_entrp">   -191.68196153 </i>
    <i name="e_0_energy">   -191.76402976 </i>
   </energy>
  </scstep>
  <scstep>
   <time name="dav">   20.23   20.27</time>
   <time name="total">   20.26   20.32</time>
   <energy>
    <i name="alphaZ">     90.12802545 </i>
    <i name="ewald">  44629.09187611 </i>
    <i name="hartreedc"> -50639.99982443 </i>
    <i name="XCdc">   -233.40747920 </i>
    <i name="pawpsdc">   4088.51745266 </i>
    <i name="pawaedc">  -3504.46957365 </i>
    <i name="eentropy">     -0.16396987 </i>
    <i name="bandstr">  -1382.98515227 </i>
    <i name="atom">   6761.44252427 </i>
    <i name="e_fr_energy">   -191.84612094 </i>
    <i name="e_wo_entrp">   -191.68215107 </i>
[...]
      <set comment="kpoint 31">
       <r>  -17.5454    1.0000 </r>
       <r>  -17.2412    1.0000 </r>
       <r>  -16.9456    1.0000 </r>
       <r>  -16.6990    1.0000 </r>
       <r>  -16.5365    1.0000 </r>
       <r>  -16.4523    1.0000 </r>
       <r>  -16.3504    1.0000 </r>
       <r>  -16.1744    1.0000 </r>
       <r>  -16.1160    1.0000 </r>
       <r>  -16.0352    1.0000 </r>
       <r>  -15.9550    1.0000 </r>
       <r>  -15.8617    1.0000 </r>
       <r>  -15.7718    1.0000 </r>
       <r>  -15.6048    1.0000 </r>
       <r>  -15.5664    1.0000 </r>
       <r>  -15.4634    1.0000 </r>
       <r>  -15.3642    1.0000 </r>
       <r>  -15.3251    1.0000 </r>
       <r>   -9.7408    1.0000 </r>
       <r>   -9.4723    1.0000 </r>
       <r>   -9.3537    1.0000 </r>
       <r>   -8.9541    1.0000 </r>
       <r>   -8.8819    1.0000 </r>
       <r>   -8.7985    1.0000 </r>
       <r>   -8.5857    1.0000 </r>
       <r>   -8.5071    1.0000 </r>
       <r>   -8.4462    1.0000 </r>
       <r>   -8.2978    1.0000 </r>
       <r>   -8.2617    1.0000 </r>
       <r>   -8.2181    1.0000 </r>
       <r>   -8.1196    1.0000 </r>
       <r>   -8.0919    1.0000 </r>
       <r>   -7.9668    1.0000 </r>
       <r>   -7.9069    1.0000 </r>
       <r>   -7.8411    1.0000 </r>
       <r>   -7.7805    1.0000 </r>
       <r>   -7.5873    1.0000 </r>
       <r>   -7.4456    1.0000 </r>
       <r>   -7.3536    1.0000 </r>
       <r>   -7.2600    1.0000 </r>
       <r>   -7.1697    1.0000 </r>
       <r>   -7.0811    1.0000 </r>
       <r>   -6.9742    1.0000 </r>
       <r>   -6.9128    1.0000 </r>
       <r>   -6.8529    1.0000 </r>
       <r>   -6.7111    1.0000 </r>
       <r>   -6.6383    1.0000 </r>
       <r>   -6.5771    1.0000 </r>
       <r>   -6.5358    1.0000 </r>
       <r>   -6.4882    1.0000 </r>
       <r>   -6.4350    1.0000 </r>
       <r>   -6.3498    1.0000 </r>
       <r>   -6.3083    1.0000 </r>
       <r>   -6.2139    1.0000 </r>
       <r>   -6.1746    1.0000 </r>
       <r>   -6.0385    1.0000 </r>
       <r>   -5.9864    1.0000 </r>
       <r>   -5.8996    1.0000 </r>
       <r>   -5.8188    1.0000 </r>
       <r>   -5.7060    1.0000 </r>
       <r>   -5.6834    1.0000 </r>
       <r>   -5.5328    1.0000 </r>
       <r>   -5.4816    1.0000 </r>
       <r>   -5.4204    1.0000 </r>
       <r>   -5.2123    1.0000 </r>
       <r>   -5.0937    1.0000 </r>
       <r>   -5.0591    1.0000 </r>
       <r>   -4.8935    1.0000 </r>
       <r>   -4.8302    1.0000 </r>
       <r>   -4.7094    1.0000 </r>
       <r>   -4.6204    1.0000 </r>
       <r>   -4.5093    1.0000 </r>
       <r>   -4.3379    1.0000 </r>
       <r>   -4.2530    1.0000 </r>
       <r>   -4.1617    1.0000 </r>
       <r>   -3.9487    1.0000 </r>
       <r>   -3.8564    1.0000 </r>
       <r>   -3.7475    0.9999 </r>
       <r>   -3.6231    0.9977 </r>
       <r>   -3.0888    0.1730 </r>
       <r>   -3.0348    0.0927 </r>
       <r>   -2.8809    0.0079 </r>
       <r>   -2.6863    0.0001 </r>
       <r>   -2.5984    0.0000 </r>
       <r>   -2.4803    0.0000 </r>
       <r>   -2.4030    0.0000 </r>
       <r>   -2.2201    0.0000 </r>
       <r>   -2.1364    0.0000 </r>
       <r>   -2.0768    0.0000 </r>
       <r>   -1.9240    0.0000 </r>
       <r>   -1.6743    0.0000 </r>
       <r>   -1.4324    0.0000 </r>
       <r>   -1.4161    0.0000 </r>
       <r>   -1.2987    0.0000 </r>
       <r>   -1.2492    0.0000 </r>
       <r>   -1.1927    0.0000 </r>
       <r>   -1.0685    0.0000 </r>
       <r>   -0.9785    0.0000 </r>
       <r>   -0.9430    0.0000 </r>
       <r>   -0.8613    0.0000 </r>
       <r>   -0.8378    0.0000 </r>
       <r>   -0.7721    0.0000 </r>
       <r>   -0.6288    0.0000 </r>
       <r>   -0.5459    0.0000 </r>
       <r>   -0.5096    0.0000 </r>
       <r>   -0.3678    0.0000 </r>
       <r>   -0.2865    0.0000 </r>
       <r>   -0.0970    0.0000 </r>
       <r>   -0.0505    0.0000 </r>
       <r>    0.0954    0.0000 </r>
       <r>    0.3676    0.0000 </r>
       <r>    0.6235    0.0000 </r>
       <r>    0.7054    0.0000 </r>
       <r>    0.9559    0.0000 </r>
       <r>    1.1817    0.0000 </r>
       <r>    1.3057    0.0000 </r>
       <r>    1.6426    0.0000 </r>
       <r>    2.1471    0.0000 </r>
       <r>    2.3034    0.0000 </r>
       <r>    2.4015    0.0000 </r>
      </set>
      <set comment="kpoint 32">
       <r>  -17.5446    1.0000 </r>
       <r>  -17.1797    1.0000 </r>
       <r>  -17.0632    1.0000 </r>
       <r>  -16.6985    1.0000 </r>
       <r>  -16.4945    1.0000 </r>
       <r>  -16.3802    1.0000 </r>
       <r>  -16.3192    1.0000 </r>
       <r>  -16.2201    1.0000 </r>
       <r>  -16.1219    1.0000 </r>
       <r>  -16.0840    1.0000 </r>
       <r>  -15.9719    1.0000 </r>
       <r>  -15.8467    1.0000 </r>
       <r>  -15.7865    1.0000 </r>
       <r>  -15.5909    1.0000 </r>
       <r>  -15.5555    1.0000 </r>
       <r>  -15.4633    1.0000 </r>
       <r>  -15.3616    1.0000 </r>
       <r>  -15.3243    1.0000 </r>
       <r>   -9.6754    1.0000 </r>
       <r>   -9.5961    1.0000 </r>
       <r>   -9.4319    1.0000 </r>
       <r>   -8.9299    1.0000 </r>
       <r>   -8.7390    1.0000 </r>
       <r>   -8.6686    1.0000 </r>
       <r>   -8.5382    1.0000 </r>
       <r>   -8.4644    1.0000 </r>
       <r>   -8.4192    1.0000 </r>
       <r>   -8.3892    1.0000 </r>
       <r>   -8.3226    1.0000 </r>
       <r>   -8.2579    1.0000 </r>
       <r>   -8.1746    1.0000 </r>
       <r>   -8.1050    1.0000 </r>
       <r>   -8.0431    1.0000 </r>
       <r>   -7.9312    1.0000 </r>
       <r>   -7.8506    1.0000 </r>
       <r>   -7.7841    1.0000 </r>
       <r>   -7.5543    1.0000 </r>
       <r>   -7.4505    1.0000 </r>
       <r>   -7.3269    1.0000 </r>
       <r>   -7.2763    1.0000 </r>
       <r>   -7.1695    1.0000 </r>
       <r>   -7.0271    1.0000 </r>
       <r>   -6.9531    1.0000 </r>
       <r>   -6.9117    1.0000 </r>
       <r>   -6.8406    1.0000 </r>
       <r>   -6.7556    1.0000 </r>
       <r>   -6.6630    1.0000 </r>
       <r>   -6.5967    1.0000 </r>
       <r>   -6.5076    1.0000 </r>
       <r>   -6.4781    1.0000 </r>
       <r>   -6.4331    1.0000 </r>
       <r>   -6.3770    1.0000 </r>
       <r>   -6.3503    1.0000 </r>
       <r>   -6.1933    1.0000 </r>
       <r>   -6.1245    1.0000 </r>
       <r>   -6.0239    1.0000 </r>
       <r>   -5.9590    1.0000 </r>
       <r>   -5.8680    1.0000 </r>
       <r>   -5.7872    1.0000 </r>
       <r>   -5.7607    1.0000 </r>
       <r>   -5.6543    1.0000 </r>
       <r>   -5.5532    1.0000 </r>
       <r>   -5.5039    1.0000 </r>
       <r>   -5.4094    1.0000 </r>
       <r>   -5.1857    1.0000 </r>
       <r>   -5.0870    1.0000 </r>
       <r>   -5.0026    1.0000 </r>
       <r>   -4.8622    1.0000 </r>
       <r>   -4.8499    1.0000 </r>
       <r>   -4.7900    1.0000 </r>
       <r>   -4.7413    1.0000 </r>
       <r>   -4.5181    1.0000 </r>
       <r>   -4.3435    1.0000 </r>
       <r>   -4.2509    1.0000 </r>
       <r>   -4.1324    1.0000 </r>
       <r>   -3.9659    1.0000 </r>
       <r>   -3.8206    1.0000 </r>
       <r>   -3.7011    0.9996 </r>
       <r>   -3.6537    0.9989 </r>
       <r>   -3.0721    0.1445 </r>
       <r>   -3.0563    0.1206 </r>
       <r>   -2.8384    0.0033 </r>
       <r>   -2.7143    0.0002 </r>
       <r>   -2.5864    0.0000 </r>
       <r>   -2.4986    0.0000 </r>
       <r>   -2.4021    0.0000 </r>
       <r>   -2.2435    0.0000 </r>
       <r>   -2.1325    0.0000 </r>
       <r>   -2.0677    0.0000 </r>
       <r>   -1.9161    0.0000 </r>
       <r>   -1.6894    0.0000 </r>
       <r>   -1.4584    0.0000 </r>
       <r>   -1.4122    0.0000 </r>
       <r>   -1.2819    0.0000 </r>
       <r>   -1.2532    0.0000 </r>
       <r>   -1.1898    0.0000 </r>
       <r>   -1.0484    0.0000 </r>
       <r>   -0.9781    0.0000 </r>
       <r>   -0.8864    0.0000 </r>
       <r>   -0.8629    0.0000 </r>
       <r>   -0.7951    0.0000 </r>
       <r>   -0.7255    0.0000 </r>
       <r>   -0.6504    0.0000 </r>
       <r>   -0.6146    0.0000 </r>
       <r>   -0.5438    0.0000 </r>
       <r>   -0.3754    0.0000 </r>
       <r>   -0.3020    0.0000 </r>
       <r>   -0.0735    0.0000 </r>
       <r>   -0.0293    0.0000 </r>
       <r>    0.1437    0.0000 </r>
       <r>    0.3883    0.0000 </r>
       <r>    0.5955    0.0000 </r>
       <r>    0.7747    0.0000 </r>
       <r>    0.9221    0.0000 </r>
       <r>    1.1324    0.0000 </r>
       <r>    1.2711    0.0000 </r>
       <r>    1.6189    0.0000 </r>
       <r>    2.1180    0.0000 </r>
       <r>    2.2700    0.0000 </r>
       <r>    2.5813    0.0000 </r>
      </set>
      <set comment="kpoint 33">
       <r>  -17.5139    1.0000 </r>
       <r>  -17.2989    1.0000 </r>
       <r>  -16.9267    1.0000 </r>
       <r>  -16.6964    1.0000 </r>
       <r>  -16.5024    1.0000 </r>
       <r>  -16.4842    1.0000 </r>
       <r>  -16.3240    1.0000 </r>
       <r>  -16.1931    1.0000 </r>
       <r>  -16.1444    1.0000 </r>
       <r>  -16.0642    1.0000 </r>
       <r>  -15.9022    1.0000 </r>
       <r>  -15.8298    1.0000 </r>
       <r>  -15.7885    1.0000 </r>
       <r>  -15.6254    1.0000 </r>
       <r>  -15.5694    1.0000 </r>
       <r>  -15.4626    1.0000 </r>
       <r>  -15.3550    1.0000 </r>
       <r>  -15.3244    1.0000 </r>
       <r>   -9.7771    1.0000 </r>
       <r>   -9.4475    1.0000 </r>
       <r>   -9.4061    1.0000 </r>
       <r>   -8.9123    1.0000 </r>
       <r>   -8.8364    1.0000 </r>
       <r>   -8.7528    1.0000 </r>
       <r>   -8.6274    1.0000 </r>
       <r>   -8.5740    1.0000 </r>
       <r>   -8.4164    1.0000 </r>
       <r>   -8.3073    1.0000 </r>
       <r>   -8.2503    1.0000 </r>
       <r>   -8.1665    1.0000 </r>
       <r>   -8.1352    1.0000 </r>
       <r>   -8.0688    1.0000 </r>
       <r>   -8.0129    1.0000 </r>
       <r>   -7.8987    1.0000 </r>
       <r>   -7.8444    1.0000 </r>
       <r>   -7.8135    1.0000 </r>
       <r>   -7.5514    1.0000 </r>
       <r>   -7.4414    1.0000 </r>
       <r>   -7.3967    1.0000 </r>
       <r>   -7.3244    1.0000 </r>
       <r>   -7.1425    1.0000 </r>
       <r>   -7.0012    1.0000 </r>
       <r>   -6.9640    1.0000 </r>
       <r>   -6.8714    1.0000 </r>
       <r>   -6.8344    1.0000 </r>
       <r>   -6.7679    1.0000 </r>
       <r>   -6.6781    1.0000 </r>
       <r>   -6.5873    1.0000 </r>
       <r>   -6.5240    1.0000 </r>
       <r>   -6.5019    1.0000 </r>
       <r>   -6.4400    1.0000 </r>
       <r>   -6.3535    1.0000 </r>
       <r>   -6.2904    1.0000 </r>
       <r>   -6.1971    1.0000 </r>
       <r>   -6.1286    1.0000 </r>
       <r>   -6.0516    1.0000 </r>
       <r>   -6.0013    1.0000 </r>
       <r>   -5.9208    1.0000 </r>
       <r>   -5.8427    1.0000 </r>
       <r>   -5.7162    1.0000 </r>
       <r>   -5.6475    1.0000 </r>
       <r>   -5.5324    1.0000 </r>
       <r>   -5.5038    1.0000 </r>
       <r>   -5.4142    1.0000 </r>
       <r>   -5.1985    1.0000 </r>
       <r>   -5.1039    1.0000 </r>
       <r>   -5.0440    1.0000 </r>
       <r>   -4.8650    1.0000 </r>
       <r>   -4.8245    1.0000 </r>
       <r>   -4.6831    1.0000 </r>
       <r>   -4.6565    1.0000 </r>
       <r>   -4.5420    1.0000 </r>
       <r>   -4.3485    1.0000 </r>
       <r>   -4.2718    1.0000 </r>
       <r>   -4.1217    1.0000 </r>
       <r>   -4.0527    1.0000 </r>
       <r>   -3.7956    1.0000 </r>
       <r>   -3.7312    0.9998 </r>
       <r>   -3.6381    0.9984 </r>
       <r>   -3.1011    0.1961 </r>
       <r>   -3.0233    0.0800 </r>
       <r>   -2.8666    0.0060 </r>
       <r>   -2.7089    0.0001 </r>
       <r>   -2.6052    0.0000 </r>
       <r>   -2.5230    0.0000 </r>
       <r>   -2.3694    0.0000 </r>
       <r>   -2.2193    0.0000 </r>
       <r>   -2.1176    0.0000 </r>
       <r>   -2.0340    0.0000 </r>
       <r>   -1.9114    0.0000 </r>
       <r>   -1.7062    0.0000 </r>
       <r>   -1.4888    0.0000 </r>
       <r>   -1.3760    0.0000 </r>
       <r>   -1.2734    0.0000 </r>
       <r>   -1.2541    0.0000 </r>
       <r>   -1.1788    0.0000 </r>
       <r>   -1.0666    0.0000 </r>
       <r>   -0.9822    0.0000 </r>
       <r>   -0.8899    0.0000 </r>
       <r>   -0.8403    0.0000 </r>
       <r>   -0.7973    0.0000 </r>
       <r>   -0.7313    0.0000 </r>
       <r>   -0.6331    0.0000 </r>
       <r>   -0.6028    0.0000 </r>
       <r>   -0.5570    0.0000 </r>
       <r>   -0.4105    0.0000 </r>
       <r>   -0.3587    0.0000 </r>
       <r>   -0.0687    0.0000 </r>
       <r>   -0.0458    0.0000 </r>
       <r>    0.2301    0.0000 </r>
       <r>    0.4241    0.0000 </r>
       <r>    0.5834    0.0000 </r>
       <r>    0.8764    0.0000 </r>
       <r>    0.9233    0.0000 </r>
       <r>    1.0744    0.0000 </r>
       <r>    1.2386    0.0000 </r>
       <r>    1.5913    0.0000 </r>
       <r>    2.1511    0.0000 </r>
       <r>    2.3032    0.0000 </r>
       <r>    2.4121    0.0000 </r>
      </set>
      <set comment="kpoint 34">
       <r>  -17.4743    1.0000 </r>
       <r>  -17.3773    1.0000 </r>
       <r>  -16.7952    1.0000 </r>
       <r>  -16.6806    1.0000 </r>
       <r>  -16.6478    1.0000 </r>
       <r>  -16.4923    1.0000 </r>
       <r>  -16.3216    1.0000 </r>
       <r>  -16.1862    1.0000 </r>
       <r>  -16.1502    1.0000 </r>
       <r>  -16.0546    1.0000 </r>
       <r>  -15.8261    1.0000 </r>
       <r>  -15.8225    1.0000 </r>
       <r>  -15.7783    1.0000 </r>
       <r>  -15.6802    1.0000 </r>
       <r>  -15.5795    1.0000 </r>
       <r>  -15.4626    1.0000 </r>
       <r>  -15.3513    1.0000 </r>
       <r>  -15.3247    1.0000 </r>
       <r>   -9.8176    1.0000 </r>
       <r>   -9.3749    1.0000 </r>
       <r>   -9.3148    1.0000 </r>
       <r>   -8.9667    1.0000 </r>
       <r>   -8.9342    1.0000 </r>
       <r>   -8.8147    1.0000 </r>
       <r>   -8.6690    1.0000 </r>
       <r>   -8.5919    1.0000 </r>
       <r>   -8.4310    1.0000 </r>
       <r>   -8.2978    1.0000 </r>
       <r>   -8.2320    1.0000 </r>
       <r>   -8.1504    1.0000 </r>
       <r>   -8.1017    1.0000 </r>
       <r>   -8.0196    1.0000 </r>
       <r>   -7.9165    1.0000 </r>
       <r>   -7.8678    1.0000 </r>
       <r>   -7.8521    1.0000 </r>
       <r>   -7.7346    1.0000 </r>
       <r>   -7.6144    1.0000 </r>
       <r>   -7.5148    1.0000 </r>
       <r>   -7.3973    1.0000 </r>
       <r>   -7.3454    1.0000 </r>
       <r>   -7.1178    1.0000 </r>
       <r>   -7.0396    1.0000 </r>
       <r>   -6.9861    1.0000 </r>
       <r>   -6.8649    1.0000 </r>
       <r>   -6.8169    1.0000 </r>
       <r>   -6.7054    1.0000 </r>
       <r>   -6.6184    1.0000 </r>
       <r>   -6.6021    1.0000 </r>
       <r>   -6.5394    1.0000 </r>
       <r>   -6.5119    1.0000 </r>
       <r>   -6.4329    1.0000 </r>
       <r>   -6.3885    1.0000 </r>
       <r>   -6.2833    1.0000 </r>
       <r>   -6.2590    1.0000 </r>
       <r>   -6.1793    1.0000 </r>
       <r>   -6.0396    1.0000 </r>
       <r>   -5.9994    1.0000 </r>
       <r>   -5.8417    1.0000 </r>
       <r>   -5.8225    1.0000 </r>
       <r>   -5.8000    1.0000 </r>
       <r>   -5.6328    1.0000 </r>
       <r>   -5.5942    1.0000 </r>
       <r>   -5.4868    1.0000 </r>
       <r>   -5.4131    1.0000 </r>
       <r>   -5.2145    1.0000 </r>
       <r>   -5.1186    1.0000 </r>
       <r>   -4.9963    1.0000 </r>
       <r>   -4.9059    1.0000 </r>
       <r>   -4.8297    1.0000 </r>
       <r>   -4.6040    1.0000 </r>
       <r>   -4.5610    1.0000 </r>
       <r>   -4.5282    1.0000 </r>
       <r>   -4.3188    1.0000 </r>
       <r>   -4.2876    1.0000 </r>
       <r>   -4.2120    1.0000 </r>
       <r>   -4.0753    1.0000 </r>
       <r>   -3.7978    1.0000 </r>
       <r>   -3.7442    0.9999 </r>
       <r>   -3.6297    0.9980 </r>
       <r>   -3.1126    0.2196 </r>
       <r>   -3.0035    0.0611 </r>
       <r>   -2.9014    0.0117 </r>
       <r>   -2.6961    0.0001 </r>
       <r>   -2.6248    0.0000 </r>
       <r>   -2.5310    0.0000 </r>
       <r>   -2.3483    0.0000 </r>
       <r>   -2.1925    0.0000 </r>
       <r>   -2.1090    0.0000 </r>
       <r>   -2.0103    0.0000 </r>
       <r>   -1.9176    0.0000 </r>
       <r>   -1.7156    0.0000 </r>
       <r>   -1.5000    0.0000 </r>
       <r>   -1.3320    0.0000 </r>
       <r>   -1.3004    0.0000 </r>
       <r>   -1.2400    0.0000 </r>
       <r>   -1.1808    0.0000 </r>
       <r>   -1.0830    0.0000 </r>
       <r>   -0.9825    0.0000 </r>
       <r>   -0.8962    0.0000 </r>
       <r>   -0.8364    0.0000 </r>
       <r>   -0.7960    0.0000 </r>
       <r>   -0.7432    0.0000 </r>
       <r>   -0.6286    0.0000 </r>
       <r>   -0.6049    0.0000 </r>
       <r>   -0.5780    0.0000 </r>
       <r>   -0.4239    0.0000 </r>
       <r>   -0.3343    0.0000 </r>
       <r>   -0.0925    0.0000 </r>
       <r>   -0.0606    0.0000 </r>
       <r>    0.2644    0.0000 </r>
       <r>    0.4424    0.0000 </r>
       <r>    0.5891    0.0000 </r>
       <r>    0.9288    0.0000 </r>
       <r>    0.9515    0.0000 </r>
       <r>    1.0329    0.0000 </r>
       <r>    1.2226    0.0000 </r>
       <r>    1.5775    0.0000 </r>
       <r>    2.2302    0.0000 </r>
       <r>    2.2698    0.0000 </r>
       <r>    2.3942    0.0000 </r>
      </set>
     </set>
    </set>
   </array>
  </eigenvalues>
  <separator name="orbital magnetization" >
   <v name="MAGDIPOLOUT">      0.00000000      0.00000000      0.00000000</v>
  </separator>
 </calculation>
 <structure name="finalpos" >
  <crystal>
   <varray name="basis" >
    <v>       8.32148090       4.82581177       0.00000000 </v>
    <v>      -8.30854592       4.80336760       0.00000000 </v>
    <v>       0.00000000       0.00000000      30.00000000 </v>
   </varray>
   <i name="volume">   2401.99831460 </i>
   <varray name="rec_basis" >
    <v>       0.05999214       0.10377042       0.00000000 </v>
    <v>      -0.06027246       0.10393197       0.00000000 </v>
    <v>       0.00000000       0.00000000       0.03333333 </v>
   </varray>
  </crystal>
  <varray name="positions" >
   <v>       0.69916637       0.68316306      -0.00150354 </v>
   <v>       0.29465615       0.64776293       0.00249597 </v>
   <v>       0.70634494       0.35384227      -0.00242861 </v>
   <v>       0.00489016       0.00425989      -0.00025494 </v>
   <v>       0.00389652       0.68762263      -0.00012864 </v>
   <v>       0.99983536       0.31317043      -0.00009436 </v>
   <v>       0.29644780      -0.01483167       0.00174995 </v>
   <v>       0.29800820       0.31291688       0.00147124 </v>
   <v>       0.70255394       0.01534496      -0.00138957 </v>
   <v>       0.10758581       0.21786449       0.94339064 </v>
   <v>       0.21916773       0.10960232       0.05726665 </v>
   <v>       0.10709854       0.55349072       0.94955165 </v>
   <v>       0.21973440       0.44455551       0.05499790 </v>
   <v>       0.10788527       0.89018853       0.94361351 </v>
   <v>       0.21935009       0.77559001       0.05543377 </v>
   <v>       0.44841258       0.22392247       0.95521851 </v>
   <v>       0.55723349       0.11566401       0.04306663 </v>
   <v>       0.44357531       0.55799197       0.95772171 </v>
   <v>       0.55852201       0.44452589       0.04234371 </v>
   <v>       0.44232528       0.88502491       0.95722418 </v>
   <v>       0.55295566       0.77390375       0.04361330 </v>
   <v>       0.78112912       0.22519236       0.94493581 </v>
   <v>       0.89264664       0.10963655       0.05613907 </v>
   <v>       0.77809614       0.55816168       0.94640218 </v>
   <v>       0.89390636       0.44718723       0.05008229 </v>
   <v>       0.77733915       0.88441740       0.94516077 </v>
   <v>       0.88545144       0.77804329       0.05392012 </v>
  </varray>
 </structure>
</modeling>
