unknown system                          
           1
     8.856247    5.109214    0.000000
    -8.852684    5.103085    0.000000
     0.000000    0.000000   30.000000
   V    Mo   W    S 
   3   3   3  18
Direct configuration=     1
   0.66666669  0.66666669  0.00000000
   0.33333334  0.66666669  0.00000000
   0.66666669  0.33333334  0.00000000
   0.00000000  0.00000000  0.00000000
   0.00000000  0.66666669  0.00000000
   1.00000000  0.33333334  0.00000000
   0.33333334  0.00000000  0.00000000
   0.33333334  0.33333334  0.00000000
   0.66666669  0.00000000  0.00000000
   0.11068511  0.22244981  0.95539999
   0.22244981  0.11068511  0.04460000
   0.11068511  0.55578315  0.95539999
   0.22244981  0.44401845  0.04460000
   0.11068511  0.88911647  0.95539999
   0.22244981  0.77735180  0.04460000
   0.44401845  0.22244981  0.95539999
   0.55578315  0.11068511  0.04460000
   0.44401845  0.55578315  0.95539999
   0.55578315  0.44401845  0.04460000
   0.44401845  0.88911647  0.95539999
   0.55578315  0.77735180  0.04460000
   0.77735180  0.22244981  0.95539999
   0.88911647  0.11068511  0.04460000
   0.77735180  0.55578315  0.95539999
   0.88911647  0.44401845  0.04460000
   0.77735180  0.88911647  0.95539999
   0.88911647  0.77735180  0.04460000
unknown system                          
           1
     8.668466    5.002916    0.000000
    -8.665273    4.997425    0.000000
     0.000000    0.000000   30.000000
   V    Mo   W    S 
   3   3   3  18
Direct configuration=     2
   0.66854549  0.66741056  0.00001350
   0.33140464  0.66554647  0.00012864
   0.66896341  0.33479830 -0.00014197
   0.00012306  0.00002839  0.00003846
  -0.00021426  0.66652561 -0.00002379
   0.99990791  0.33333215 -0.00017962
   0.33031271 -0.00154212  0.00018582
   0.33110563  0.33267726 -0.00000654
   0.66939376  0.00093916  0.00005486
   0.11190100  0.22260140  0.95072800
   0.22294771  0.11136394  0.04933019
   0.11538848  0.55756109  0.95194940
   0.22494403  0.44856441  0.04810567
   0.11189082  0.88927225  0.95073033
   0.22522726  0.77627801  0.04806265
   0.44826571  0.22401714  0.95193136
   0.55713873  0.11464953  0.04800780
   0.44585631  0.55891862  0.95315392
   0.55897881  0.44586532  0.04683085
   0.44265191  0.88510624  0.95199965
   0.55385358  0.77419518  0.04686637
   0.77479203  0.22371627  0.95192638
   0.88783185  0.11046627  0.04923616
   0.77318845  0.55336716  0.95308070
   0.88436861  0.44222732  0.04804561
   0.77507613  0.88479228  0.95190258
   0.88437070  0.77553626  0.04804292
unknown system                          
           1
     8.486447    4.902070    0.000000
    -8.484740    4.899147    0.000000
     0.000000    0.000000   30.000000
   V    Mo   W    S 
   3   3   3  18
Direct configuration=     3
   0.66913668  0.66773037  0.00006157
   0.33077272  0.66520349  0.00008783
   0.66972949  0.33519031 -0.00011125
   0.00050643  0.00035289  0.00004585
   0.00003844  0.66677525 -0.00002102
   0.99981943  0.33302759 -0.00020215
   0.32912415 -0.00197264  0.00015015
   0.33005469  0.33198511 -0.00006126
   0.67047685  0.00146278  0.00010023
   0.11213509  0.22273458  0.95063169
   0.22314790  0.11143942  0.04941430
   0.11553031  0.55764169  0.95191620
   0.22513162  0.44857029  0.04813767
   0.11212439  0.88940844  0.95065265
   0.22537975  0.77645007  0.04813010
   0.44809938  0.22396556  0.95206325
   0.55707414  0.11448679  0.04786215
   0.44579232  0.55873365  0.95328331
   0.55877918  0.44580424  0.04669184
   0.44272003  0.88526744  0.95216409
   0.55393666  0.77437628  0.04675748
   0.77465634  0.22354574  0.95186161
   0.88760949  0.11034935  0.04931435
   0.77310676  0.55330928  0.95306013
   0.88423352  0.44214877  0.04806082
   0.77489697  0.88480503  0.95187526
   0.88420170  0.77542268  0.04807307
unknown system                          
           1
     8.275602    4.787551    0.000000
    -8.268265    4.774879    0.000000
     0.000000    0.000000   30.000000
   V    Mo   W    S 
   3   3   3  18
Direct configuration=     4
   0.67134994  0.66910532  0.00023802
   0.32820361  0.66406878 -0.00010561
   0.67267469  0.33628745  0.00006615
   0.00252881  0.00203113  0.00005354
   0.00163279  0.66824263  0.00001000
   0.99921774  0.33137335 -0.00020234
   0.32433482 -0.00352811 -0.00004010
   0.32574523  0.32861266 -0.00022831
   0.67462911  0.00376462  0.00022406
   0.11205731  0.22274448  0.94860896
   0.22311880  0.11141233  0.05144111
   0.11671194  0.55830632  0.95038073
   0.22565759  0.44965980  0.04972618
   0.11199199  0.88935710  0.94872100
   0.22578285  0.77582379  0.04988910
   0.44893054  0.22444569  0.95113548
   0.55738936  0.11520816  0.04868564
   0.44636733  0.55957914  0.95247296
   0.55935060  0.44621791  0.04744217
   0.44248491  0.88462839  0.95141650
   0.55344392  0.77353618  0.04764452
   0.77419036  0.22406080  0.95010975
   0.88776633  0.11043200  0.05124764
   0.77220148  0.55280799  0.95166327
   0.88313119  0.44161579  0.04950529
   0.77437106  0.88375758  0.95029434
   0.88295015  0.77466316  0.04959985
unknown system                          
           1
     8.271621    4.793484    0.000000
    -8.259616    4.772720    0.000000
     0.000000    0.000000   30.000000
   V    Mo   W    S 
   3   3   3  18
Direct configuration=     5
   0.67539996  0.67177633  0.00045596
   0.32294513  0.66165186 -0.00044285
   0.67934882  0.33861488  0.00038234
   0.00709559  0.00593369  0.00000540
   0.00510781  0.67140046  0.00007124
   0.99775606  0.32756717 -0.00008733
   0.31386423 -0.00667354 -0.00023924
   0.31713173  0.32182856 -0.00033413
   0.68374012  0.00860145  0.00025708
   0.11097850  0.22230164  0.94555586
   0.22239661  0.11110224  0.05449687
   0.11714870  0.55840820  0.94823482
   0.22551030  0.45024482  0.05183774
   0.11052760  0.88869644  0.94580805
   0.22576035  0.77512130  0.05242813
   0.44946616  0.22473234  0.95013020
   0.55708218  0.11545952  0.04935689
   0.44663789  0.55984000  0.95161480
   0.55915885  0.44629319  0.04819086
   0.44270249  0.88459767  0.95091833
   0.55310816  0.77297756  0.04873327
   0.77439141  0.22498060  0.94753127
   0.88898359  0.11089455  0.05407613
   0.77200649  0.55274418  0.94961708
   0.88288628  0.44165830  0.05150962
   0.77471892  0.88306993  0.94816136
   0.88236053  0.77439113  0.05173015
unknown system                          
           1
     8.277639    4.799145    0.000000
    -8.263364    4.774455    0.000000
     0.000000    0.000000   30.000000
   V    Mo   W    S 
   3   3   3  18
Direct configuration=     6
   0.67745143  0.67312722  0.00049190
   0.32028273  0.66010328 -0.00043048
   0.68298041  0.34017307  0.00030430
   0.00747975  0.00649469 -0.00012328
   0.00556024  0.67215496 -0.00001368
   0.99745031  0.32657673 -0.00010827
   0.31075508 -0.00767834 -0.00004973
   0.31440063  0.31996701 -0.00026009
   0.68726271  0.01021463  0.00014343
   0.11025171  0.22208142  0.94511149
   0.22196960  0.11089299  0.05500142
   0.11623311  0.55775102  0.94810033
   0.22501904  0.44964359  0.05201115
   0.10921246  0.88826083  0.94532417
   0.22553442  0.77537151  0.05268029
   0.44876385  0.22422032  0.95046261
   0.55615479  0.11449542  0.04880429
   0.44597527  0.55885472  0.95188634
   0.55826021  0.44565641  0.04781955
   0.44329239  0.88584091  0.95149359
   0.55343323  0.77372560  0.04849638
   0.77496703  0.22519576  0.94723748
   0.89000403  0.11107412  0.05453488
   0.77260854  0.55302917  0.94951377
   0.88411240  0.44235001  0.05171698
   0.77554246  0.88363946  0.94796720
   0.88325663  0.77499793  0.05188389
unknown system                          
           1
     8.284004    4.815556    0.000000
    -8.259780    4.773641    0.000000
     0.000000    0.000000   30.000000
   V    Mo   W    S 
   3   3   3  18
Direct configuration=     7
   0.68000396  0.67479458  0.00060661
   0.31724887  0.65818280 -0.00042740
   0.68681508  0.34195052  0.00028530
   0.00755385  0.00678817 -0.00017661
   0.00582106  0.67297678 -0.00007731
   0.99743148  0.32568559 -0.00005430
   0.30737843 -0.00897544 -0.00000077
   0.31146231  0.31820251 -0.00022745
   0.69090611  0.01189211  0.00014302
   0.10965902  0.22191475  0.94479774
   0.22140232  0.11069353  0.05537038
   0.11547987  0.55723817  0.94802174
   0.22463136  0.44928769  0.05217627
   0.10834486  0.88797391  0.94505109
   0.22517087  0.77540060  0.05286785
   0.44825628  0.22376007  0.95097414
   0.55548533  0.11380780  0.04808989
   0.44539746  0.55806799  0.95233301
   0.55759498  0.44508010  0.04725705
   0.44386716  0.88684788  0.95223714
   0.55372477  0.77445147  0.04805652
   0.77554339  0.22542034  0.94695748
   0.89085059  0.11130862  0.05482708
   0.77298991  0.55319139  0.94941726
   0.88519931  0.44292774  0.05181727
   0.77605401  0.88391900  0.94771911
   0.88394179  0.77542579  0.05195778
unknown system                          
           1
     8.288293    4.829894    0.000000
    -8.255496    4.773128    0.000000
     0.000000    0.000000   30.000000
   V    Mo   W    S 
   3   3   3  18
Direct configuration=     8
   0.68444042  0.67763775  0.00064912
   0.31231378  0.65498789 -0.00037029
   0.69250082  0.34460043  0.00014151
   0.00726892  0.00700288 -0.00031245
   0.00600412  0.67426981 -0.00018999
   0.99769715  0.32432857 -0.00004507
   0.30277916 -0.01094228  0.00027051
   0.30690950  0.31576185 -0.00007659
   0.69601128  0.01438534 -0.00008257
   0.10852907  0.22146152  0.94424660
   0.22060758  0.11038235  0.05591987
   0.11432257  0.55654495  0.94782487
   0.22427635  0.44897351  0.05255821
   0.10679990  0.88740553  0.94449838
   0.22459796  0.77535942  0.05319146
   0.44773857  0.22324328  0.95177230
   0.55467885  0.11303915  0.04699217
   0.44464793  0.55711760  0.95307229
   0.55679324  0.44430702  0.04635734
   0.44464708  0.88803350  0.95340198
   0.55407664  0.77540313  0.04736805
   0.77643139  0.22574554  0.94653672
   0.89241484  0.11185209  0.05545424
   0.77335486  0.55339973  0.94919197
   0.88695300  0.44384865  0.05206898
   0.77649987  0.88410013  0.94730178
   0.88491959  0.77596511  0.05225852
unknown system                          
           1
     8.297421    4.831998    0.000000
    -8.269415    4.783489    0.000000
     0.000000    0.000000   30.000000
   V    Mo   W    S 
   3   3   3  18
Direct configuration=     9
   0.69181351  0.68195062  0.00058750
   0.30483591  0.65015442 -0.00004988
   0.70047498  0.34849636 -0.00021936
   0.00636376  0.00699627 -0.00041322
   0.00573764  0.67694332 -0.00036556
   0.99846119  0.32160693  0.00009026
   0.29678032 -0.01396986  0.00065816
   0.30040108  0.31289270  0.00026983
   0.70254054  0.01786427 -0.00034408
   0.10665423  0.22048826  0.94346256
   0.21915278  0.10986367  0.05663737
   0.11214764  0.55539991  0.94748535
   0.22372027  0.44858080  0.05324943
   0.10477824  0.88661200  0.94386081
   0.22336083  0.77487683  0.05370496
   0.44719749  0.22270095  0.95326643
   0.55384298  0.11234522  0.04513880
   0.44370934  0.55595628  0.95444704
   0.55571724  0.44316373  0.04470407
   0.44579874  0.88935033  0.95535647
   0.55461355  0.77674730  0.04602211
   0.77817638  0.22651805  0.94585909
   0.89466898  0.11275675  0.05613847
   0.77391024  0.55378488  0.94876867
   0.88991492  0.44532851  0.05231220
   0.77691576  0.88404093  0.94655953
   0.88652594  0.77676504  0.05281290
unknown system                          
           1
     8.297785    4.831097    0.000000
    -8.271973    4.786363    0.000000
     0.000000    0.000000   30.000000
   V    Mo   W    S 
   3   3   3  18
Direct configuration=    10
   0.69234219  0.68188365  0.00031089
   0.30426968  0.65018252  0.00012348
   0.70010532  0.34847530 -0.00040495
   0.00603911  0.00665537 -0.00044172
   0.00563800  0.67791767 -0.00036443
   0.99885567  0.32110405 -0.00001162
   0.29742177 -0.01401815  0.00082743
   0.30056717  0.31330348  0.00042694
   0.70166320  0.01748941 -0.00057671
   0.10638594  0.22016331  0.94347029
   0.21908081  0.10978006  0.05661146
   0.11173931  0.55519281  0.94757131
   0.22358511  0.44849952  0.05344502
   0.10477461  0.88668906  0.94385113
   0.22306814  0.77463440  0.05378487
   0.44739560  0.22291933  0.95348322
   0.55404617  0.11268412  0.04500836
   0.44393117  0.55625096  0.95471385
   0.55576957  0.44320380  0.04445647
   0.44565187  0.88889908  0.95552807
   0.55447275  0.77647650  0.04579180
   0.77861324  0.22660876  0.94582025
   0.89481760  0.11278414  0.05620074
   0.77400587  0.55403794  0.94860731
   0.89045114  0.44553260  0.05222710
   0.77671571  0.88392986  0.94651596
   0.88680773  0.77693488  0.05302338
unknown system                          
           1
     8.302939    4.830399    0.000000
    -8.280218    4.791010    0.000000
     0.000000    0.000000   30.000000
   V    Mo   W    S 
   3   3   3  18
Direct configuration=    11
   0.69610144  0.68357681  0.00004458
   0.30038446  0.64815392  0.00047235
   0.70341437  0.35036629 -0.00068773
   0.00540146  0.00624631 -0.00042778
   0.00539226  0.68044445 -0.00038773
   0.99947332  0.31907762  0.00003642
   0.29508706 -0.01550020  0.00108580
   0.29776589  0.31242006  0.00069158
   0.70413656  0.01872871 -0.00074171
   0.10561932  0.21944923  0.94321628
   0.21847872  0.10948055  0.05684832
   0.11043395  0.55455758  0.94762786
   0.22311355  0.44815146  0.05387933
   0.10432089  0.88667342  0.94365875
   0.22223481  0.77425383  0.05409688
   0.44731460  0.22287187  0.95434678
   0.55401344  0.11279915  0.04412172
   0.44377391  0.55610130  0.95560765
   0.55548592  0.44287713  0.04351556
   0.44579055  0.88886980  0.95646685
   0.55455215  0.77668538  0.04494663
   0.77973918  0.22697698  0.94548793
   0.89544904  0.11297454  0.05632746
   0.77446151  0.55451247  0.94823517
   0.89198137  0.44622142  0.05203957
   0.77669672  0.88384014  0.94613571
   0.88759799  0.77740423  0.05335566
unknown system                          
           1
     8.307669    4.831377    0.000000
    -8.286180    4.794120    0.000000
     0.000000    0.000000   30.000000
   V    Mo   W    S 
   3   3   3  18
Direct configuration=    12
   0.69606644  0.68322462 -0.00012857
   0.30024683  0.64843669  0.00060911
   0.70309565  0.35038990 -0.00078857
   0.00526097  0.00589358 -0.00040639
   0.00521683  0.68123199 -0.00035395
   0.99958594  0.31868280 -0.00000668
   0.29565046 -0.01533879  0.00113077
   0.29817923  0.31271425  0.00075445
   0.70350870  0.01826749 -0.00081677
   0.10572661  0.21923343  0.94325504
   0.21857133  0.10946702  0.05684503
   0.11014587  0.55445215  0.94780116
   0.22288558  0.44795494  0.05398429
   0.10465170  0.88698605  0.94366215
   0.22204437  0.77420324  0.05420945
   0.44740503  0.22298237  0.95441924
   0.55433520  0.11311152  0.04412712
   0.44395288  0.55640505  0.95577595
   0.55573866  0.44309668  0.04343580
   0.44542665  0.88839667  0.95646337
   0.55439892  0.77633915  0.04482906
   0.77991626  0.22692324  0.94547112
   0.89519282  0.11275952  0.05629273
   0.77469500  0.55477015  0.94807479
   0.89213205  0.44626364  0.05184217
   0.77660643  0.88386226  0.94607448
   0.88757805  0.77750485  0.05344353
unknown system                          
           1
     8.305371    4.828171    0.000000
    -8.285233    4.793250    0.000000
     0.000000    0.000000   30.000000
   V    Mo   W    S 
   3   3   3  18
Direct configuration=    13
   0.69642128  0.68321320 -0.00023604
   0.29984445  0.64838877  0.00072376
   0.70330892  0.35062788 -0.00087365
   0.00513356  0.00567464 -0.00038999
   0.00502914  0.68181077 -0.00033609
   0.99963829  0.31826140 -0.00001250
   0.29568331 -0.01539596  0.00118363
   0.29810258  0.31277227  0.00081030
   0.70347626  0.01813691 -0.00085238
   0.10580358  0.21910275  0.94327229
   0.21861707  0.10945504  0.05685009
   0.10993786  0.55438161  0.94791448
   0.22273372  0.44780779  0.05404033
   0.10485229  0.88718743  0.94365973
   0.22191136  0.77421624  0.05427512
   0.44747362  0.22303844  0.95450414
   0.55451737  0.11329297  0.04406726
   0.44403399  0.55655724  0.95592447
   0.55589928  0.44321371  0.04333870
   0.44523178  0.88815618  0.95651224
   0.55432668  0.77616123  0.04471267
   0.78002742  0.22690389  0.94545452
   0.89504444  0.11261998  0.05625928
   0.77484857  0.55492906  0.94798404
   0.89224746  0.44630679  0.05170393
   0.77656364  0.88384945  0.94602832
   0.88750651  0.77754479  0.05348128
unknown system                          
           1
     8.307574    4.826393    0.000000
    -8.289679    4.795355    0.000000
     0.000000    0.000000   30.000000
   V    Mo   W    S 
   3   3   3  18
Direct configuration=    14
   0.69692471  0.68319041 -0.00039963
   0.29914861  0.64829203  0.00089531
   0.70364130  0.35098126 -0.00101613
   0.00505942  0.00540783 -0.00037139
   0.00489194  0.68287716 -0.00031098
   0.99974773  0.31748592 -0.00003281
   0.29565368 -0.01548043  0.00125717
   0.29793479  0.31277895  0.00088973
   0.70345197  0.01794681 -0.00091787
   0.10591134  0.21887692  0.94330378
   0.21867058  0.10942897  0.05686071
   0.10955844  0.55426530  0.94811128
   0.22245662  0.44751795  0.05413849
   0.10516906  0.88751618  0.94366229
   0.22164508  0.77426303  0.05438591
   0.44752063  0.22309765  0.95466059
   0.55480598  0.11354383  0.04394327
   0.44408841  0.55673705  0.95618288
   0.55612024  0.44336952  0.04317373
   0.44492010  0.88780173  0.95662111
   0.55423102  0.77593079  0.04451637
   0.78021742  0.22681947  0.94542237
   0.89481776  0.11237400  0.05621778
   0.77515433  0.55521853  0.94781385
   0.89250547  0.44642808  0.05148743
   0.77653129  0.88389714  0.94594441
   0.88743654  0.77764839  0.05356023
unknown system                          
           1
     8.316417    4.830358    0.000000
    -8.298802    4.799807    0.000000
     0.000000    0.000000   30.000000
   V    Mo   W    S 
   3   3   3  18
Direct configuration=    15
   0.69757738  0.68315808 -0.00063869
   0.29828107  0.64823874  0.00115739
   0.70408258  0.35146766 -0.00123414
   0.00494666  0.00505378 -0.00034477
   0.00463004  0.68421992 -0.00027115
   0.99983092  0.31645414 -0.00005299
   0.29575882 -0.01546828  0.00136908
   0.29782672  0.31276513  0.00101508
   0.70332792  0.01758655 -0.00101697
   0.10605707  0.21856813  0.94327463
   0.21875127  0.10941571  0.05694865
   0.10895355  0.55406340  0.94834163
   0.22200896  0.44705031  0.05431772
   0.10557383  0.88797473  0.94359483
   0.22124978  0.77437281  0.05459202
   0.44763424  0.22319735  0.95480530
   0.55516440  0.11386582  0.04380899
   0.44417103  0.55697716  0.95647921
   0.55643012  0.44358005  0.04300717
   0.44452187  0.88736635  0.95672112
   0.55407587  0.77559727  0.04431545
   0.78046626  0.22668046  0.94532471
   0.89453753  0.11199505  0.05623106
   0.77563262  0.55567831  0.94753815
   0.89290929  0.44663043  0.05123115
   0.77653885  0.88394365  0.94578169
   0.88727580  0.77778172  0.05370359
unknown system                          
           1
     8.319534    4.828839    0.000000
    -8.303646    4.801283    0.000000
     0.000000    0.000000   30.000000
   V    Mo   W    S 
   3   3   3  18
Direct configuration=    16
   0.69826659  0.68315970 -0.00088498
   0.29712316  0.64804092  0.00144991
   0.70476213  0.35213984 -0.00148616
   0.00479942  0.00461889 -0.00032485
   0.00432977  0.68552821 -0.00023209
   0.99992429  0.31541136 -0.00007462
   0.29586791 -0.01544447  0.00146728
   0.29775282  0.31282700  0.00113292
   0.70316902  0.01706159 -0.00111001
   0.10636823  0.21825711  0.94328579
   0.21888389  0.10943843  0.05705228
   0.10837635  0.55390768  0.94870363
   0.22146394  0.44649076  0.05449454
   0.10618001  0.88861821  0.94355428
   0.22077774  0.77456504  0.05482068
   0.44783404  0.22335913  0.95496317
   0.55568096  0.11431661  0.04362715
   0.44417332  0.55728118  0.95686077
   0.55691393  0.44385452  0.04280816
   0.44398053  0.88677986  0.95685141
   0.55382295  0.77514691  0.04406991
   0.78067864  0.22643843  0.94522513
   0.89408564  0.11142142  0.05621831
   0.77622980  0.55623749  0.94721434
   0.89327984  0.44682582  0.05087123
   0.77659957  0.88401826  0.94559930
   0.88688995  0.77791455  0.05384243
unknown system                          
           1
     8.320147    4.826939    0.000000
    -8.305650    4.801792    0.000000
     0.000000    0.000000   30.000000
   V    Mo   W    S 
   3   3   3  18
Direct configuration=    17
   0.69919163  0.68314826 -0.00123790
   0.29561901  0.64784843  0.00191822
   0.70565238  0.35307573 -0.00189198
   0.00467542  0.00411740 -0.00027950
   0.00391886  0.68737374 -0.00016690
   0.99999703  0.31384276 -0.00010206
   0.29603341 -0.01533960  0.00162474
   0.29767183  0.31284600  0.00131397
   0.70293300  0.01629391 -0.00124852
   0.10683901  0.21784358  0.94332645
   0.21906431  0.10947025  0.05714601
   0.10749238  0.55365069  0.94919732
   0.22064354  0.44562660  0.05472693
   0.10705191  0.88951557  0.94352906
   0.22006936  0.77489404  0.05511203
   0.44807752  0.22357711  0.95519993
   0.55641691  0.11494810  0.04334028
   0.44412681  0.55768614  0.95740465
   0.55761204  0.44423659  0.04251316
   0.44319525  0.88595027  0.95705531
   0.55347717  0.77452883  0.04371746
   0.78098467  0.22603195  0.94511293
   0.89342875  0.11058656  0.05616857
   0.77712960  0.55708287  0.94678436
   0.89383900  0.44713129  0.05037674
   0.77674220  0.88415800  0.94536912
   0.88633148  0.77808937  0.05398952
unknown system                          
           1
     8.320593    4.824017    0.000000
    -8.308429    4.802908    0.000000
     0.000000    0.000000   30.000000
   V    Mo   W    S 
   3   3   3  18
Direct configuration=    18
   0.69920514  0.68315480 -0.00133538
   0.29528049  0.64783191  0.00211708
   0.70582005  0.35332916 -0.00208166
   0.00475213  0.00416436 -0.00026702
   0.00393539  0.68749552 -0.00015132
   0.99999639  0.31358023 -0.00010294
   0.29619320 -0.01514797  0.00166561
   0.29780691  0.31285962  0.00136667
   0.70276004  0.01590540 -0.00129796
   0.10707781  0.21777770  0.94334330
   0.21910128  0.10950253  0.05717894
   0.10724935  0.55358671  0.94933814
   0.22030623  0.44526759  0.05480993
   0.10735526  0.88980307  0.94354778
   0.21978052  0.77509338  0.05520829
   0.44817703  0.22367912  0.95522955
   0.55667916  0.11517380  0.04323980
   0.44399126  0.55781413  0.95754497
   0.55791393  0.44436362  0.04244482
   0.44289036  0.88562245  0.95712213
   0.55329971  0.77429261  0.04364816
   0.78104735  0.22575282  0.94506194
   0.89315532  0.11022050  0.05616196
   0.77750165  0.55748073  0.94664507
   0.89400363  0.44724890  0.05027016
   0.77691833  0.88423660  0.94529825
   0.88601652  0.77812515  0.05399363
unknown system                          
           1
     8.321481    4.825812    0.000000
    -8.308546    4.803368    0.000000
     0.000000    0.000000   30.000000
   V    Mo   W    S 
   3   3   3  18
Direct configuration=    19
   0.69923014  0.68315933 -0.00148111
   0.29469143  0.64777569  0.00242600
   0.70624031  0.35376290 -0.00234985
   0.00483663  0.00420638 -0.00025019
   0.00394565  0.68775987 -0.00012005
   0.99989878  0.31313170 -0.00009317
   0.29636361 -0.01493395  0.00173214
   0.29794944  0.31290596  0.00145639
   0.70262328  0.01544476 -0.00136633
   0.10747827  0.21776814  0.94337053
   0.21916430  0.10956838  0.05725436
   0.10700287  0.55349725  0.94954337
   0.21980589  0.44467768  0.05495998
   0.10782852  0.89018087  0.94359078
   0.21936997  0.77545708  0.05538778
   0.44836323  0.22386641  0.95524285
   0.55714267  0.11556243  0.04308980
   0.44370790  0.55798423  0.95772663
   0.55840704  0.44453031  0.04234984
   0.44241754  0.88511616  0.95721384
   0.55301075  0.77394703  0.04358163
   0.78114121  0.22528731  0.94496261
   0.89270415  0.10970175  0.05613527
   0.77804911  0.55808083  0.94641976
   0.89405025  0.44728372  0.05008071
   0.77722956  0.88439132  0.94517179
   0.88556197  0.77810092  0.05396454
unknown system                          
           1
     8.321481    4.825812    0.000000
    -8.308546    4.803368    0.000000
     0.000000    0.000000   30.000000
   V    Mo   W    S 
   3   3   3  18
Direct configuration=    20
   0.69916637  0.68316306 -0.00150354
   0.29465615  0.64776293  0.00249597
   0.70634494  0.35384227 -0.00242861
   0.00489016  0.00425989 -0.00025494
   0.00389652  0.68762263 -0.00012864
   0.99983536  0.31317043 -0.00009436
   0.29644780 -0.01483167  0.00174995
   0.29800820  0.31291688  0.00147124
   0.70255394  0.01534496 -0.00138957
   0.10758581  0.21786449  0.94339064
   0.21916773  0.10960232  0.05726665
   0.10709854  0.55349072  0.94955165
   0.21973440  0.44455551  0.05499790
   0.10788527  0.89018853  0.94361351
   0.21935009  0.77559001  0.05543377
   0.44841258  0.22392247  0.95521851
   0.55723349  0.11566401  0.04306663
   0.44357531  0.55799197  0.95772171
   0.55852201  0.44452589  0.04234371
   0.44232528  0.88502491  0.95722418
   0.55295566  0.77390375  0.04361330
   0.78112912  0.22519236  0.94493581
   0.89264664  0.10963655  0.05613907
   0.77809614  0.55816168  0.94640218
   0.89390636  0.44718723  0.05008229
   0.77733915  0.88441740  0.94516077
   0.88545144  0.77804329  0.05392012
