   27   27  100    1
  0.9710400E+02  0.1002848E-08  0.1002848E-08  0.3000000E-08  0.5000000E-15
  1.000000000000000E-004
  CAR 
 unknown system                          
    159     34    120
 
  0.0000000E+00  0.0000000E+00  0.0000000E+00  0.1562500E-01
    1      -17.860717   1.000000
    2      -16.799488   1.000000
    3      -16.688382   1.000000
    4      -16.603414   1.000000
    5      -16.578190   1.000000
    6      -16.430170   1.000000
    7      -16.354753   1.000000
    8      -16.339155   1.000000
    9      -16.242613   1.000000
   10      -16.138574   1.000000
   11      -16.076368   1.000000
   12      -15.982147   1.000000
   13      -15.868453   1.000000
   14      -15.633562   1.000000
   15      -15.583253   1.000000
   16      -15.460272   1.000000
   17      -15.222991   1.000000
   18      -15.189950   1.000000
   19       -9.474867   1.000000
   20       -9.059951   1.000000
   21       -9.030773   1.000000
   22       -8.925036   1.000000
   23       -8.756386   1.000000
   24       -8.708987   1.000000
   25       -8.642417   1.000000
   26       -8.569260   1.000000
   27       -8.486458   1.000000
   28       -8.452843   1.000000
   29       -8.409129   1.000000
   30       -8.362644   1.000000
   31       -8.234192   1.000000
   32       -8.198300   1.000000
   33       -8.153243   1.000000
   34       -8.052414   1.000000
   35       -7.809761   1.000000
   36       -7.771623   1.000000
   37       -7.631608   1.000000
   38       -7.614258   1.000000
   39       -7.500253   1.000000
   40       -7.374343   1.000000
   41       -7.305245   1.000000
   42       -7.212726   1.000000
   43       -7.085734   1.000000
   44       -6.957566   1.000000
   45       -6.828874   1.000000
   46       -6.824461   1.000000
   47       -6.751834   1.000000
   48       -6.717101   1.000000
   49       -6.642870   1.000000
   50       -6.509165   1.000000
   51       -6.399058   1.000000
   52       -6.252101   1.000000
   53       -6.209790   1.000000
   54       -6.178064   1.000000
   55       -6.118041   1.000000
   56       -6.039244   1.000000
   57       -5.982217   1.000000
   58       -5.877185   1.000000
   59       -5.851502   1.000000
   60       -5.728110   1.000000
   61       -5.607785   1.000000
   62       -5.341475   1.000000
   63       -5.292520   1.000000
   64       -5.044948   1.000000
   65       -4.984182   1.000000
   66       -4.895504   1.000000
   67       -4.850180   1.000000
   68       -4.780050   1.000000
   69       -4.744035   1.000000
   70       -4.720125   1.000000
   71       -4.654550   1.000000
   72       -4.619242   1.000000
   73       -4.412711   1.000000
   74       -4.359758   1.000000
   75       -4.283363   1.000000
   76       -3.990926   1.000000
   77       -3.747667   0.999909
   78       -3.574754   0.994127
   79       -3.501887   0.977487
   80       -3.187339   0.413025
   81       -3.143165   0.297318
   82       -2.847777   0.004386
   83       -2.690317   0.000094
   84       -2.665496   0.000046
   85       -2.517346   0.000000
   86       -2.510124   0.000000
   87       -2.288363   0.000000
   88       -2.225723   0.000000
   89       -2.182725   0.000000
   90       -1.937690   0.000000
   91       -1.730998   0.000000
   92       -1.610583   0.000000
   93       -1.491170   0.000000
   94       -1.189107   0.000000
   95       -1.128807   0.000000
   96       -1.018280   0.000000
   97       -0.954707   0.000000
   98       -0.875071   0.000000
   99       -0.811317   0.000000
  100       -0.630116   0.000000
  101       -0.544741   0.000000
  102       -0.496630   0.000000
  103       -0.375638   0.000000
  104       -0.228786   0.000000
  105       -0.127061   0.000000
  106       -0.061488   0.000000
  107       -0.023193   0.000000
  108        0.023593   0.000000
  109        0.130558   0.000000
  110        0.187332   0.000000
  111        0.440323   0.000000
  112        0.545128   0.000000
  113        0.614051   0.000000
  114        0.895420   0.000000
  115        0.977613   0.000000
  116        1.026444   0.000000
  117        1.139995   0.000000
  118        1.649825   0.000000
  119        1.843631   0.000000
  120        2.173298   0.000000
 
  0.1250000E+00  0.2775558E-16  0.0000000E+00  0.3125000E-01
    1      -17.836442   1.000000
    2      -16.830280   1.000000
    3      -16.779810   1.000000
    4      -16.610245   1.000000
    5      -16.540693   1.000000
    6      -16.442524   1.000000
    7      -16.383212   1.000000
    8      -16.324197   1.000000
    9      -16.268480   1.000000
   10      -16.052488   1.000000
   11      -16.021482   1.000000
   12      -16.001373   1.000000
   13      -15.834423   1.000000
   14      -15.632929   1.000000
   15      -15.578030   1.000000
   16      -15.466183   1.000000
   17      -15.249441   1.000000
   18      -15.188554   1.000000
   19       -9.483920   1.000000
   20       -9.152473   1.000000
   21       -9.110598   1.000000
   22       -9.041592   1.000000
   23       -8.783252   1.000000
   24       -8.698816   1.000000
   25       -8.633572   1.000000
   26       -8.573530   1.000000
   27       -8.507334   1.000000
   28       -8.490768   1.000000
   29       -8.393962   1.000000
   30       -8.310462   1.000000
   31       -8.204335   1.000000
   32       -8.076341   1.000000
   33       -8.009929   1.000000
   34       -7.912223   1.000000
   35       -7.839145   1.000000
   36       -7.759024   1.000000
   37       -7.698483   1.000000
   38       -7.496066   1.000000
   39       -7.436589   1.000000
   40       -7.406533   1.000000
   41       -7.338507   1.000000
   42       -7.201586   1.000000
   43       -7.136595   1.000000
   44       -6.999699   1.000000
   45       -6.885886   1.000000
   46       -6.851519   1.000000
   47       -6.740042   1.000000
   48       -6.679466   1.000000
   49       -6.617466   1.000000
   50       -6.539960   1.000000
   51       -6.384897   1.000000
   52       -6.274147   1.000000
   53       -6.239059   1.000000
   54       -6.171587   1.000000
   55       -6.127968   1.000000
   56       -6.034619   1.000000
   57       -5.977149   1.000000
   58       -5.853342   1.000000
   59       -5.778101   1.000000
   60       -5.662665   1.000000
   61       -5.562563   1.000000
   62       -5.364526   1.000000
   63       -5.312232   1.000000
   64       -5.212503   1.000000
   65       -5.056039   1.000000
   66       -5.010035   1.000000
   67       -4.885706   1.000000
   68       -4.863772   1.000000
   69       -4.770378   1.000000
   70       -4.648510   1.000000
   71       -4.580108   1.000000
   72       -4.477217   1.000000
   73       -4.378203   1.000000
   74       -4.297311   1.000000
   75       -4.274494   1.000000
   76       -3.907802   0.999999
   77       -3.808861   0.999985
   78       -3.670683   0.999308
   79       -3.477745   0.966651
   80       -3.394054   0.892868
   81       -2.955563   0.031536
   82       -2.858381   0.005450
   83       -2.707437   0.000151
   84       -2.640311   0.000022
   85       -2.513199   0.000000
   86       -2.504079   0.000000
   87       -2.285634   0.000000
   88       -2.195290   0.000000
   89       -2.153686   0.000000
   90       -1.941686   0.000000
   91       -1.735575   0.000000
   92       -1.591283   0.000000
   93       -1.475107   0.000000
   94       -1.188760   0.000000
   95       -1.130903   0.000000
   96       -1.008484   0.000000
   97       -0.963762   0.000000
   98       -0.878461   0.000000
   99       -0.818771   0.000000
  100       -0.667586   0.000000
  101       -0.601311   0.000000
  102       -0.559233   0.000000
  103       -0.460044   0.000000
  104       -0.314976   0.000000
  105       -0.196942   0.000000
  106       -0.130996   0.000000
  107       -0.053719   0.000000
  108        0.072276   0.000000
  109        0.168639   0.000000
  110        0.222882   0.000000
  111        0.433574   0.000000
  112        0.544687   0.000000
  113        0.627026   0.000000
  114        0.815974   0.000000
  115        0.996581   0.000000
  116        1.092526   0.000000
  117        1.233469   0.000000
  118        1.695084   0.000000
  119        1.882889   0.000000
  120        2.208800   0.000000
 
  0.2500000E+00  0.5551115E-16  0.0000000E+00  0.3125000E-01
    1      -17.765905   1.000000
    2      -17.017607   1.000000
    3      -16.778743   1.000000
    4      -16.640891   1.000000
    5      -16.594261   1.000000
    6      -16.480019   1.000000
    7      -16.366765   1.000000
    8      -16.278854   1.000000
    9      -16.219821   1.000000
   10      -16.050269   1.000000
   11      -15.972468   1.000000
   12      -15.915559   1.000000
   13      -15.775146   1.000000
   14      -15.614408   1.000000
   15      -15.561964   1.000000
   16      -15.473967   1.000000
   17      -15.303243   1.000000
   18      -15.202334   1.000000
   19       -9.598896   1.000000
   20       -9.334816   1.000000
   21       -9.203801   1.000000
   22       -9.107490   1.000000
   23       -8.888151   1.000000
   24       -8.721149   1.000000
   25       -8.630207   1.000000
   26       -8.551611   1.000000
   27       -8.488241   1.000000
   28       -8.453647   1.000000
   29       -8.355511   1.000000
   30       -8.257176   1.000000
   31       -8.086859   1.000000
   32       -8.045666   1.000000
   33       -7.950267   1.000000
   34       -7.817582   1.000000
   35       -7.739009   1.000000
   36       -7.613499   1.000000
   37       -7.576721   1.000000
   38       -7.542834   1.000000
   39       -7.429549   1.000000
   40       -7.390843   1.000000
   41       -7.304640   1.000000
   42       -7.205938   1.000000
   43       -7.131452   1.000000
   44       -7.027182   1.000000
   45       -6.950495   1.000000
   46       -6.840958   1.000000
   47       -6.760551   1.000000
   48       -6.679850   1.000000
   49       -6.543179   1.000000
   50       -6.508567   1.000000
   51       -6.367895   1.000000
   52       -6.305595   1.000000
   53       -6.270030   1.000000
   54       -6.192459   1.000000
   55       -6.099416   1.000000
   56       -6.077963   1.000000
   57       -5.863866   1.000000
   58       -5.817424   1.000000
   59       -5.762345   1.000000
   60       -5.683670   1.000000
   61       -5.525561   1.000000
   62       -5.498332   1.000000
   63       -5.440767   1.000000
   64       -5.259877   1.000000
   65       -5.182057   1.000000
   66       -5.120559   1.000000
   67       -5.013020   1.000000
   68       -4.853908   1.000000
   69       -4.763030   1.000000
   70       -4.597726   1.000000
   71       -4.445930   1.000000
   72       -4.417785   1.000000
   73       -4.276865   1.000000
   74       -4.254394   1.000000
   75       -4.133061   1.000000
   76       -4.056125   1.000000
   77       -3.919552   1.000000
   78       -3.721542   0.999813
   79       -3.482163   0.968905
   80       -3.406752   0.908523
   81       -2.930161   0.020760
   82       -2.844383   0.004087
   83       -2.696197   0.000111
   84       -2.591434   0.000005
   85       -2.519234   0.000000
   86       -2.471461   0.000000
   87       -2.281705   0.000000
   88       -2.136290   0.000000
   89       -2.073240   0.000000
   90       -1.947978   0.000000
   91       -1.747167   0.000000
   92       -1.527625   0.000000
   93       -1.430073   0.000000
   94       -1.215841   0.000000
   95       -1.141237   0.000000
   96       -1.011632   0.000000
   97       -0.988655   0.000000
   98       -0.877084   0.000000
   99       -0.861220   0.000000
  100       -0.786634   0.000000
  101       -0.703547   0.000000
  102       -0.677579   0.000000
  103       -0.587449   0.000000
  104       -0.464127   0.000000
  105       -0.337453   0.000000
  106       -0.198158   0.000000
  107       -0.087115   0.000000
  108        0.022588   0.000000
  109        0.145183   0.000000
  110        0.218078   0.000000
  111        0.410046   0.000000
  112        0.560983   0.000000
  113        0.689749   0.000000
  114        0.776352   0.000000
  115        1.090568   0.000000
  116        1.167011   0.000000
  117        1.403439   0.000000
  118        1.820238   0.000000
  119        1.995771   0.000000
  120        2.313739   0.000000
 
  0.3750000E+00  0.0000000E+00  0.0000000E+00  0.3125000E-01
    1      -17.660279   1.000000
    2      -17.212243   1.000000
    3      -16.765325   1.000000
    4      -16.669838   1.000000
    5      -16.653685   1.000000
    6      -16.515810   1.000000
    7      -16.339000   1.000000
    8      -16.228178   1.000000
    9      -16.182502   1.000000
   10      -16.056192   1.000000
   11      -15.892490   1.000000
   12      -15.879904   1.000000
   13      -15.762860   1.000000
   14      -15.588272   1.000000
   15      -15.544881   1.000000
   16      -15.446048   1.000000
   17      -15.351581   1.000000
   18      -15.233699   1.000000
   19       -9.778520   1.000000
   20       -9.443770   1.000000
   21       -9.219483   1.000000
   22       -9.118905   1.000000
   23       -8.956372   1.000000
   24       -8.771574   1.000000
   25       -8.614972   1.000000
   26       -8.537367   1.000000
   27       -8.457046   1.000000
   28       -8.360212   1.000000
   29       -8.289035   1.000000
   30       -8.255410   1.000000
   31       -8.102640   1.000000
   32       -8.007141   1.000000
   33       -7.937459   1.000000
   34       -7.801901   1.000000
   35       -7.738511   1.000000
   36       -7.615868   1.000000
   37       -7.587322   1.000000
   38       -7.550319   1.000000
   39       -7.413974   1.000000
   40       -7.314626   1.000000
   41       -7.211661   1.000000
   42       -7.139318   1.000000
   43       -7.032882   1.000000
   44       -6.997243   1.000000
   45       -6.911600   1.000000
   46       -6.806174   1.000000
   47       -6.732602   1.000000
   48       -6.582388   1.000000
   49       -6.512081   1.000000
   50       -6.472538   1.000000
   51       -6.352753   1.000000
   52       -6.267984   1.000000
   53       -6.221047   1.000000
   54       -6.183484   1.000000
   55       -6.115088   1.000000
   56       -6.077492   1.000000
   57       -6.025126   1.000000
   58       -5.952551   1.000000
   59       -5.815721   1.000000
   60       -5.716697   1.000000
   61       -5.657278   1.000000
   62       -5.515883   1.000000
   63       -5.459814   1.000000
   64       -5.316111   1.000000
   65       -5.174565   1.000000
   66       -5.107496   1.000000
   67       -5.015635   1.000000
   68       -4.822335   1.000000
   69       -4.775801   1.000000
   70       -4.678402   1.000000
   71       -4.490099   1.000000
   72       -4.418011   1.000000
   73       -4.260525   1.000000
   74       -4.221808   1.000000
   75       -4.141902   1.000000
   76       -4.024173   1.000000
   77       -3.912085   1.000000
   78       -3.728167   0.999844
   79       -3.551671   0.990775
   80       -3.227088   0.524438
   81       -2.988844   0.052258
   82       -2.865375   0.006273
   83       -2.663580   0.000044
   84       -2.580165   0.000003
   85       -2.523567   0.000000
   86       -2.417831   0.000000
   87       -2.253480   0.000000
   88       -2.096632   0.000000
   89       -2.020431   0.000000
   90       -1.896407   0.000000
   91       -1.762583   0.000000
   92       -1.478890   0.000000
   93       -1.356016   0.000000
   94       -1.276820   0.000000
   95       -1.155002   0.000000
   96       -1.062556   0.000000
   97       -1.040135   0.000000
   98       -0.960405   0.000000
   99       -0.888208   0.000000
  100       -0.836636   0.000000
  101       -0.772116   0.000000
  102       -0.741671   0.000000
  103       -0.701968   0.000000
  104       -0.552667   0.000000
  105       -0.486647   0.000000
  106       -0.234991   0.000000
  107       -0.133107   0.000000
  108       -0.034317   0.000000
  109        0.051460   0.000000
  110        0.163741   0.000000
  111        0.421914   0.000000
  112        0.562355   0.000000
  113        0.700999   0.000000
  114        0.858397   0.000000
  115        1.173579   0.000000
  116        1.240301   0.000000
  117        1.539872   0.000000
  118        2.006359   0.000000
  119        2.172760   0.000000
  120        2.473735   0.000000
 
  0.5000000E+00  0.1110223E-15  0.0000000E+00  0.1562500E-01
    1      -17.583156   1.000000
    2      -17.321344   1.000000
    3      -16.755198   1.000000
    4      -16.696364   1.000000
    5      -16.662692   1.000000
    6      -16.529970   1.000000
    7      -16.326540   1.000000
    8      -16.217056   1.000000
    9      -16.171356   1.000000
   10      -16.041319   1.000000
   11      -15.884186   1.000000
   12      -15.847179   1.000000
   13      -15.763031   1.000000
   14      -15.602624   1.000000
   15      -15.522165   1.000000
   16      -15.438738   1.000000
   17      -15.347300   1.000000
   18      -15.260153   1.000000
   19       -9.851439   1.000000
   20       -9.483277   1.000000
   21       -9.233523   1.000000
   22       -9.108641   1.000000
   23       -8.952323   1.000000
   24       -8.794722   1.000000
   25       -8.611327   1.000000
   26       -8.580748   1.000000
   27       -8.422129   1.000000
   28       -8.329467   1.000000
   29       -8.253079   1.000000
   30       -8.189915   1.000000
   31       -8.105129   1.000000
   32       -8.032099   1.000000
   33       -7.964596   1.000000
   34       -7.781312   1.000000
   35       -7.734318   1.000000
   36       -7.723099   1.000000
   37       -7.579097   1.000000
   38       -7.545928   1.000000
   39       -7.473458   1.000000
   40       -7.302532   1.000000
   41       -7.202160   1.000000
   42       -7.028906   1.000000
   43       -6.966872   1.000000
   44       -6.926353   1.000000
   45       -6.800455   1.000000
   46       -6.678861   1.000000
   47       -6.639357   1.000000
   48       -6.580858   1.000000
   49       -6.550509   1.000000
   50       -6.522452   1.000000
   51       -6.391709   1.000000
   52       -6.345127   1.000000
   53       -6.338605   1.000000
   54       -6.223064   1.000000
   55       -6.142697   1.000000
   56       -6.054939   1.000000
   57       -5.984003   1.000000
   58       -5.886479   1.000000
   59       -5.773678   1.000000
   60       -5.751274   1.000000
   61       -5.635337   1.000000
   62       -5.574666   1.000000
   63       -5.512395   1.000000
   64       -5.376548   1.000000
   65       -5.180807   1.000000
   66       -5.055525   1.000000
   67       -5.010177   1.000000
   68       -4.969979   1.000000
   69       -4.785557   1.000000
   70       -4.612460   1.000000
   71       -4.515744   1.000000
   72       -4.455612   1.000000
   73       -4.285294   1.000000
   74       -4.203950   1.000000
   75       -4.160763   1.000000
   76       -3.952822   1.000000
   77       -3.848111   0.999996
   78       -3.733087   0.999863
   79       -3.607856   0.997054
   80       -3.104474   0.210203
   81       -3.004323   0.065026
   82       -2.935767   0.022823
   83       -2.656429   0.000035
   84       -2.573600   0.000003
   85       -2.523017   0.000000
   86       -2.392137   0.000000
   87       -2.235267   0.000000
   88       -2.076863   0.000000
   89       -2.014762   0.000000
   90       -1.858060   0.000000
   91       -1.768968   0.000000
   92       -1.461876   0.000000
   93       -1.320169   0.000000
   94       -1.306104   0.000000
   95       -1.147224   0.000000
   96       -1.100756   0.000000
   97       -1.096313   0.000000
   98       -0.987363   0.000000
   99       -0.925661   0.000000
  100       -0.814536   0.000000
  101       -0.807985   0.000000
  102       -0.759755   0.000000
  103       -0.731369   0.000000
  104       -0.593006   0.000000
  105       -0.549786   0.000000
  106       -0.234332   0.000000
  107       -0.165047   0.000000
  108       -0.065936   0.000000
  109        0.022517   0.000000
  110        0.132563   0.000000
  111        0.435685   0.000000
  112        0.556955   0.000000
  113        0.710547   0.000000
  114        0.890584   0.000000
  115        1.198494   0.000000
  116        1.275371   0.000000
  117        1.591569   0.000000
  118        2.235023   0.000000
  119        2.245547   0.000000
  120        2.400516   0.000000
 
  0.0000000E+00  0.1250000E+00  0.0000000E+00  0.3125000E-01
    1      -17.838015   1.000000
    2      -16.837560   1.000000
    3      -16.719946   1.000000
    4      -16.656209   1.000000
    5      -16.594776   1.000000
    6      -16.430018   1.000000
    7      -16.348918   1.000000
    8      -16.310001   1.000000
    9      -16.242227   1.000000
   10      -16.112615   1.000000
   11      -16.000367   1.000000
   12      -15.965227   1.000000
   13      -15.863304   1.000000
   14      -15.644828   1.000000
   15      -15.581862   1.000000
   16      -15.477943   1.000000
   17      -15.224177   1.000000
   18      -15.193524   1.000000
   19       -9.468372   1.000000
   20       -9.204700   1.000000
   21       -9.061529   1.000000
   22       -9.013061   1.000000
   23       -8.831555   1.000000
   24       -8.748730   1.000000
   25       -8.667835   1.000000
   26       -8.574847   1.000000
   27       -8.490925   1.000000
   28       -8.448711   1.000000
   29       -8.358041   1.000000
   30       -8.243024   1.000000
   31       -8.149461   1.000000
   32       -8.108780   1.000000
   33       -8.049218   1.000000
   34       -8.023623   1.000000
   35       -7.746677   1.000000
   36       -7.727122   1.000000
   37       -7.656099   1.000000
   38       -7.582572   1.000000
   39       -7.488715   1.000000
   40       -7.479506   1.000000
   41       -7.263933   1.000000
   42       -7.222044   1.000000
   43       -7.119922   1.000000
   44       -7.010743   1.000000
   45       -6.902931   1.000000
   46       -6.796988   1.000000
   47       -6.729198   1.000000
   48       -6.669364   1.000000
   49       -6.568080   1.000000
   50       -6.457603   1.000000
   51       -6.420480   1.000000
   52       -6.305994   1.000000
   53       -6.211588   1.000000
   54       -6.157680   1.000000
   55       -6.126826   1.000000
   56       -6.066410   1.000000
   57       -5.994533   1.000000
   58       -5.934270   1.000000
   59       -5.768362   1.000000
   60       -5.682954   1.000000
   61       -5.576332   1.000000
   62       -5.454076   1.000000
   63       -5.375310   1.000000
   64       -5.134487   1.000000
   65       -5.059094   1.000000
   66       -4.926092   1.000000
   67       -4.841057   1.000000
   68       -4.792889   1.000000
   69       -4.745799   1.000000
   70       -4.648866   1.000000
   71       -4.604394   1.000000
   72       -4.537608   1.000000
   73       -4.421924   1.000000
   74       -4.295473   1.000000
   75       -4.252509   1.000000
   76       -4.054674   1.000000
   77       -3.755458   0.999927
   78       -3.649016   0.998836
   79       -3.567520   0.993216
   80       -3.147358   0.307665
   81       -3.105315   0.211923
   82       -2.809178   0.001903
   83       -2.671984   0.000056
   84       -2.639856   0.000021
   85       -2.512543   0.000000
   86       -2.497323   0.000000
   87       -2.269011   0.000000
   88       -2.201277   0.000000
   89       -2.133001   0.000000
   90       -1.942068   0.000000
   91       -1.746945   0.000000
   92       -1.602691   0.000000
   93       -1.470634   0.000000
   94       -1.198509   0.000000
   95       -1.142660   0.000000
   96       -1.034970   0.000000
   97       -0.945960   0.000000
   98       -0.882867   0.000000
   99       -0.818029   0.000000
  100       -0.706833   0.000000
  101       -0.643324   0.000000
  102       -0.545560   0.000000
  103       -0.474757   0.000000
  104       -0.308797   0.000000
  105       -0.178997   0.000000
  106       -0.071329   0.000000
  107        0.007350   0.000000
  108        0.046134   0.000000
  109        0.141173   0.000000
  110        0.241130   0.000000
  111        0.485614   0.000000
  112        0.551559   0.000000
  113        0.593263   0.000000
  114        0.936488   0.000000
  115        0.973190   0.000000
  116        1.045504   0.000000
  117        1.103161   0.000000
  118        1.691672   0.000000
  119        1.884517   0.000000
  120        2.207871   0.000000
 
  0.1250000E+00  0.1250000E+00  0.0000000E+00  0.3125000E-01
    1      -17.792572   1.000000
    2      -16.917947   1.000000
    3      -16.818725   1.000000
    4      -16.707118   1.000000
    5      -16.524336   1.000000
    6      -16.421297   1.000000
    7      -16.346939   1.000000
    8      -16.330406   1.000000
    9      -16.249746   1.000000
   10      -16.020071   1.000000
   11      -15.996268   1.000000
   12      -15.913157   1.000000
   13      -15.812860   1.000000
   14      -15.655145   1.000000
   15      -15.576160   1.000000
   16      -15.492035   1.000000
   17      -15.257170   1.000000
   18      -15.190177   1.000000
   19       -9.500245   1.000000
   20       -9.321823   1.000000
   21       -9.239685   1.000000
   22       -9.108845   1.000000
   23       -8.855226   1.000000
   24       -8.686329   1.000000
   25       -8.649514   1.000000
   26       -8.550119   1.000000
   27       -8.484184   1.000000
   28       -8.441160   1.000000
   29       -8.332946   1.000000
   30       -8.252461   1.000000
   31       -8.116123   1.000000
   32       -8.054238   1.000000
   33       -7.979580   1.000000
   34       -7.866724   1.000000
   35       -7.742737   1.000000
   36       -7.709247   1.000000
   37       -7.603128   1.000000
   38       -7.539155   1.000000
   39       -7.466764   1.000000
   40       -7.371296   1.000000
   41       -7.253646   1.000000
   42       -7.221399   1.000000
   43       -7.182805   1.000000
   44       -7.020176   1.000000
   45       -6.925846   1.000000
   46       -6.809079   1.000000
   47       -6.774058   1.000000
   48       -6.666838   1.000000
   49       -6.501609   1.000000
   50       -6.470385   1.000000
   51       -6.390079   1.000000
   52       -6.295799   1.000000
   53       -6.266603   1.000000
   54       -6.202313   1.000000
   55       -6.116444   1.000000
   56       -6.042039   1.000000
   57       -5.970762   1.000000
   58       -5.906282   1.000000
   59       -5.762443   1.000000
   60       -5.606541   1.000000
   61       -5.558115   1.000000
   62       -5.490841   1.000000
   63       -5.450497   1.000000
   64       -5.271797   1.000000
   65       -5.206272   1.000000
   66       -5.052634   1.000000
   67       -4.885374   1.000000
   68       -4.805207   1.000000
   69       -4.744274   1.000000
   70       -4.620440   1.000000
   71       -4.488267   1.000000
   72       -4.402875   1.000000
   73       -4.367376   1.000000
   74       -4.244885   1.000000
   75       -4.212300   1.000000
   76       -4.096400   1.000000
   77       -3.913165   1.000000
   78       -3.666446   0.999233
   79       -3.540933   0.988711
   80       -3.291439   0.697186
   81       -2.932688   0.021669
   82       -2.807683   0.001840
   83       -2.667495   0.000049
   84       -2.611358   0.000009
   85       -2.503575   0.000000
   86       -2.473086   0.000000
   87       -2.237230   0.000000
   88       -2.148851   0.000000
   89       -2.080908   0.000000
   90       -1.948667   0.000000
   91       -1.741987   0.000000
   92       -1.583366   0.000000
   93       -1.449658   0.000000
   94       -1.204041   0.000000
   95       -1.172007   0.000000
   96       -1.057066   0.000000
   97       -0.949787   0.000000
   98       -0.891577   0.000000
   99       -0.853980   0.000000
  100       -0.773540   0.000000
  101       -0.738599   0.000000
  102       -0.661799   0.000000
  103       -0.567498   0.000000
  104       -0.429684   0.000000
  105       -0.219905   0.000000
  106       -0.112725   0.000000
  107       -0.081787   0.000000
  108        0.056011   0.000000
  109        0.195556   0.000000
  110        0.280060   0.000000
  111        0.420632   0.000000
  112        0.534259   0.000000
  113        0.626982   0.000000
  114        0.869241   0.000000
  115        1.041499   0.000000
  116        1.083602   0.000000
  117        1.237827   0.000000
  118        1.774763   0.000000
  119        1.962387   0.000000
  120        2.277422   0.000000
 
  0.2500000E+00  0.1250000E+00  0.0000000E+00  0.3125000E-01
    1      -17.705330   1.000000
    2      -17.091562   1.000000
    3      -16.898298   1.000000
    4      -16.706779   1.000000
    5      -16.505437   1.000000
    6      -16.438288   1.000000
    7      -16.364536   1.000000
    8      -16.276353   1.000000
    9      -16.211177   1.000000
   10      -16.041217   1.000000
   11      -15.945037   1.000000
   12      -15.839346   1.000000
   13      -15.776197   1.000000
   14      -15.632830   1.000000
   15      -15.567962   1.000000
   16      -15.478235   1.000000
   17      -15.315797   1.000000
   18      -15.198417   1.000000
   19       -9.661419   1.000000
   20       -9.440541   1.000000
   21       -9.367483   1.000000
   22       -9.134558   1.000000
   23       -8.858778   1.000000
   24       -8.653124   1.000000
   25       -8.582164   1.000000
   26       -8.482783   1.000000
   27       -8.462305   1.000000
   28       -8.424089   1.000000
   29       -8.320165   1.000000
   30       -8.264311   1.000000
   31       -8.104212   1.000000
   32       -8.026568   1.000000
   33       -7.974448   1.000000
   34       -7.908884   1.000000
   35       -7.746950   1.000000
   36       -7.639909   1.000000
   37       -7.572323   1.000000
   38       -7.466235   1.000000
   39       -7.350773   1.000000
   40       -7.339690   1.000000
   41       -7.265721   1.000000
   42       -7.198290   1.000000
   43       -7.104374   1.000000
   44       -7.020839   1.000000
   45       -6.880593   1.000000
   46       -6.810722   1.000000
   47       -6.723711   1.000000