       N       E                     dE             d eps       ncg     rms          rms(c)
DAV:   1     0.112561961527E+04    0.11256E+04   -0.35982E+04  8160   0.577E+02
DAV:   2    -0.191587479185E+01   -0.11275E+04   -0.10860E+04 11160   0.173E+02
DAV:   3    -0.199908762900E+03   -0.19799E+03   -0.19009E+03 10920   0.821E+01
DAV:   4    -0.209020505902E+03   -0.91117E+01   -0.88225E+01 12280   0.259E+01
DAV:   5    -0.209324286373E+03   -0.30378E+00   -0.30283E+00 11520   0.336E+00    0.275E+01
DAV:   6    -0.236719938744E+03   -0.27396E+02   -0.10630E+02 12680   0.604E+01    0.594E+01
DAV:   7    -0.196530643465E+03    0.40189E+02   -0.17700E+02 13200   0.152E+02    0.200E+01
DAV:   8    -0.189393799653E+03    0.71368E+01   -0.17338E+01 11920   0.127E+01    0.125E+01
DAV:   9    -0.188133488379E+03    0.12603E+01   -0.30417E+00 13120   0.649E+00    0.903E+00
DAV:  10    -0.187009276055E+03    0.11242E+01   -0.21791E+00 13360   0.718E+00    0.282E+00
DAV:  11    -0.186972208400E+03    0.37068E-01   -0.61395E-01 13360   0.261E+00    0.282E+00
DAV:  12    -0.187103808697E+03   -0.13160E+00   -0.89517E-01 12200   0.506E+00    0.496E+00
DAV:  13    -0.186887360636E+03    0.21645E+00   -0.53905E-01 12600   0.404E+00    0.217E+00
DAV:  14    -0.186862781450E+03    0.24579E-01   -0.13583E-01 13320   0.217E+00    0.177E+00
DAV:  15    -0.186839602108E+03    0.23179E-01   -0.72877E-02 12240   0.164E+00    0.835E-01
DAV:  16    -0.186832728048E+03    0.68741E-02   -0.10840E-02 11720   0.411E-01    0.471E-01
DAV:  17    -0.186830887387E+03    0.18407E-02   -0.79591E-03 12840   0.407E-01    0.237E-01
DAV:  18    -0.186830211712E+03    0.67567E-03   -0.29262E-03 12000   0.162E-01    0.204E-01
DAV:  19    -0.186829795959E+03    0.41575E-03   -0.10914E-03 11200   0.157E-01    0.461E-02
DAV:  20    -0.186830542710E+03   -0.74675E-03   -0.70523E-04  9240   0.568E-02    0.498E-02
DAV:  21    -0.186831125850E+03   -0.58314E-03   -0.24492E-04  8000   0.427E-02    0.393E-02
DAV:  22    -0.186832297752E+03   -0.11719E-02   -0.19215E-04  7640   0.515E-02    0.336E-02
DAV:  23    -0.186833523044E+03   -0.12253E-02   -0.13091E-04  7560   0.399E-02    0.106E-02
DAV:  24    -0.186834126465E+03   -0.60342E-03   -0.29955E-05  6720   0.135E-02    0.708E-03
DAV:  25    -0.186834483268E+03   -0.35680E-03   -0.14895E-05  5680   0.112E-02    0.475E-03
DAV:  26    -0.186834713583E+03   -0.23032E-03   -0.88377E-06  6760   0.717E-03    0.160E-03
DAV:  27    -0.186834813972E+03   -0.10039E-03   -0.37058E-06  7160   0.444E-03    0.137E-03
DAV:  28    -0.186834856814E+03   -0.42842E-04   -0.20162E-06  7480   0.339E-03
   1 F= -.18683486E+03 E0= -.18666271E+03  d E =-.186835E+03
       N       E                     dE             d eps       ncg     rms          rms(c)
DAV:   1    -0.187451601189E+03   -0.61679E+00   -0.27167E+02  8160   0.350E+01    0.457E+00
DAV:   2    -0.189149117603E+03   -0.16975E+01   -0.19871E+01 12240   0.145E+01    0.691E+00
DAV:   3    -0.189402117038E+03   -0.25300E+00   -0.31939E+00 12480   0.112E+01    0.725E+00
DAV:   4    -0.188719182463E+03    0.68293E+00   -0.67320E-01 12720   0.524E+00    0.182E+00
DAV:   5    -0.188725874618E+03   -0.66922E-02   -0.32402E-01 10760   0.180E+00    0.257E+00
DAV:   6    -0.188696030680E+03    0.29844E-01   -0.36352E-01 12880   0.302E+00    0.277E+00
DAV:   7    -0.188665413602E+03    0.30617E-01   -0.23048E-01 12320   0.278E+00    0.177E+00
DAV:   8    -0.188630357439E+03    0.35056E-01   -0.59946E-02 12720   0.118E+00    0.425E-01
DAV:   9    -0.188629823902E+03    0.53354E-03   -0.98970E-03 12360   0.510E-01    0.442E-01
DAV:  10    -0.188628914504E+03    0.90940E-03   -0.47261E-03 13600   0.379E-01    0.234E-01
DAV:  11    -0.188628175521E+03    0.73898E-03   -0.21999E-03 12920   0.158E-01    0.845E-02
DAV:  12    -0.188628260725E+03   -0.85204E-04   -0.82886E-04 11080   0.876E-02
   2 F= -.18862826E+03 E0= -.18848628E+03  d E =-.179340E+01
       N       E                     dE             d eps       ncg     rms          rms(c)
DAV:   1    -0.190541727650E+03   -0.19136E+01   -0.30737E+01  9280   0.141E+01    0.447E+00
DAV:   2    -0.190564612500E+03   -0.22885E-01   -0.28747E+00 11400   0.991E+00    0.763E+00
DAV:   3    -0.190007670958E+03    0.55694E+00   -0.13299E+00 12320   0.870E+00    0.406E+00
DAV:   4    -0.189808477414E+03    0.19919E+00   -0.67173E-01 12720   0.395E+00    0.249E+00
DAV:   5    -0.189733082062E+03    0.75395E-01   -0.30861E-01 11400   0.213E+00    0.151E+00
DAV:   6    -0.189712206581E+03    0.20875E-01   -0.81416E-02 11960   0.167E+00    0.896E-01
DAV:   7    -0.189704792147E+03    0.74144E-02   -0.16034E-02 12680   0.700E-01    0.194E-01
DAV:   8    -0.189704872167E+03   -0.80020E-04   -0.25470E-03 11040   0.181E-01    0.159E-01
DAV:   9    -0.189705072549E+03   -0.20038E-03   -0.11793E-03 11200   0.201E-01    0.196E-01
DAV:  10    -0.189705338101E+03   -0.26555E-03   -0.15120E-03 10320   0.264E-01    0.212E-01
DAV:  11    -0.189704855286E+03    0.48282E-03   -0.75501E-04  9520   0.156E-01    0.235E-02
DAV:  12    -0.189704885179E+03   -0.29893E-04   -0.82574E-05  6600   0.328E-02
   3 F= -.18970489E+03 E0= -.18958546E+03  d E =-.107662E+01
       N       E                     dE             d eps       ncg     rms          rms(c)
DAV:   1    -0.191217893956E+03   -0.15130E+01   -0.66721E+01  8160   0.187E+01    0.459E+00
DAV:   2    -0.191163333594E+03    0.54560E-01   -0.53678E+00 13520   0.882E+00    0.563E+00
DAV:   3    -0.191084764246E+03    0.78569E-01   -0.15501E+00 12000   0.920E+00    0.586E+00
DAV:   4    -0.190765840929E+03    0.31892E+00   -0.11103E+00 13000   0.652E+00    0.283E+00
DAV:   5    -0.190755737182E+03    0.10104E-01   -0.43764E-01 12200   0.429E+00    0.312E+00
DAV:   6    -0.190642397616E+03    0.11334E+00   -0.19448E-01 12240   0.318E+00    0.928E-01
DAV:   7    -0.190636824388E+03    0.55732E-02   -0.36102E-02 12520   0.997E-01    0.545E-01
DAV:   8    -0.190635663256E+03    0.11611E-02   -0.13465E-02 11440   0.782E-01    0.584E-01
DAV:   9    -0.190632396560E+03    0.32667E-02   -0.50405E-03 11680   0.512E-01    0.139E-01
DAV:  10    -0.190632759809E+03   -0.36325E-03   -0.12290E-03 10120   0.124E-01    0.125E-01
DAV:  11    -0.190632564944E+03    0.19486E-03   -0.78189E-04 10760   0.107E-01    0.456E-02
DAV:  12    -0.190632569631E+03   -0.46870E-05   -0.11561E-04  7120   0.432E-02
   4 F= -.19063257E+03 E0= -.19053272E+03  d E =-.927684E+00
       N       E                     dE             d eps       ncg     rms          rms(c)
DAV:   1    -0.192063408577E+03   -0.14308E+01   -0.14061E+02  8160   0.268E+01    0.586E+00
DAV:   2    -0.191875383672E+03    0.18802E+00   -0.98077E+00 12600   0.977E+00    0.526E+00
DAV:   3    -0.192155324521E+03   -0.27994E+00   -0.24267E+00 10920   0.113E+01    0.935E+00
DAV:   4    -0.191527479556E+03    0.62784E+00   -0.29356E+00 12120   0.117E+01    0.409E+00
DAV:   5    -0.191453982477E+03    0.73497E-01   -0.85067E-01 12240   0.621E+00    0.371E+00
DAV:   6    -0.191264984754E+03    0.18900E+00   -0.28985E-01 12280   0.399E+00    0.977E-01
DAV:   7    -0.191258477490E+03    0.65073E-02   -0.53487E-02 12160   0.112E+00    0.541E-01
DAV:   8    -0.191253612058E+03    0.48654E-02   -0.10735E-02 10560   0.498E-01    0.268E-01
DAV:   9    -0.191254410034E+03   -0.79798E-03   -0.42487E-03 12640   0.476E-01    0.359E-01
DAV:  10    -0.191253594039E+03    0.81600E-03   -0.32073E-03 11240   0.369E-01    0.104E-01
DAV:  11    -0.191253508838E+03    0.85201E-04   -0.68705E-04 10600   0.103E-01
   5 F= -.19125351E+03 E0= -.19116104E+03  d E =-.620939E+00
       N       E                     dE             d eps       ncg     rms          rms(c)
DAV:   1    -0.191316746178E+03   -0.63152E-01   -0.59330E+00  8160   0.515E+00    0.671E-01
DAV:   2    -0.191374960892E+03   -0.58215E-01   -0.25342E-01 13320   0.257E+00    0.223E+00
DAV:   3    -0.191327461103E+03    0.47500E-01   -0.12038E-01 11840   0.239E+00    0.579E-01
DAV:   4    -0.191326804524E+03    0.65658E-03   -0.15101E-02 11400   0.824E-01    0.567E-01
DAV:   5    -0.191323589518E+03    0.32150E-02   -0.74808E-03 11280   0.662E-01    0.245E-01
DAV:   6    -0.191322976160E+03    0.61336E-03   -0.21844E-03 11120   0.256E-01    0.133E-01
DAV:   7    -0.191323349184E+03   -0.37302E-03   -0.19449E-03 11680   0.295E-01    0.233E-01
DAV:   8    -0.191322807972E+03    0.54121E-03   -0.11801E-03 10000   0.263E-01    0.700E-02
DAV:   9    -0.191322759875E+03    0.48098E-04   -0.11983E-04  6200   0.661E-02
   6 F= -.19132276E+03 E0= -.19122689E+03  d E =-.692510E-01
       N       E                     dE             d eps       ncg     rms          rms(c)
DAV:   1    -0.191368455448E+03   -0.45647E-01   -0.28805E+00  8160   0.359E+00    0.460E-01
DAV:   2    -0.191396782135E+03   -0.28327E-01   -0.11773E-01 13600   0.189E+00    0.156E+00
DAV:   3    -0.191372643393E+03    0.24139E-01   -0.55413E-02 12040   0.164E+00    0.370E-01
DAV:   4    -0.191372767244E+03   -0.12385E-03   -0.71147E-03 11320   0.576E-01    0.405E-01
DAV:   5    -0.191371137459E+03    0.16298E-02   -0.36239E-03 11240   0.453E-01    0.159E-01
DAV:   6    -0.191370900047E+03    0.23741E-03   -0.10361E-03 10520   0.167E-01    0.905E-02
DAV:   7    -0.191371062058E+03   -0.16201E-03   -0.85606E-04 10440   0.192E-01    0.151E-01
DAV:   8    -0.191370823394E+03    0.23866E-03   -0.48291E-04  8680   0.169E-01    0.434E-02
DAV:   9    -0.191370809609E+03    0.13785E-04   -0.55669E-05  6240   0.446E-02
   7 F= -.19137081E+03 E0= -.19127274E+03  d E =-.480497E-01
       N       E                     dE             d eps       ncg     rms          rms(c)
DAV:   1    -0.191310928738E+03    0.59895E-01   -0.42657E+00  8160   0.439E+00    0.554E-01
DAV:   2    -0.191343793863E+03   -0.32865E-01   -0.16012E-01 13600   0.214E+00    0.154E+00
DAV:   3    -0.191315626581E+03    0.28167E-01   -0.49843E-02 12000   0.172E+00    0.390E-01
DAV:   4    -0.191315948079E+03   -0.32150E-03   -0.92536E-03 11560   0.612E-01    0.462E-01
DAV:   5    -0.191314017327E+03    0.19308E-02   -0.56429E-03 11480   0.562E-01    0.240E-01
DAV:   6    -0.191313433031E+03    0.58430E-03   -0.19740E-03 11720   0.258E-01    0.105E-01
DAV:   7    -0.191313353433E+03    0.79598E-04   -0.77906E-04 10440   0.122E-01
   8 F= -.19131335E+03 E0= -.19121809E+03  d E =0.574562E-01
       N       E                     dE             d eps       ncg     rms          rms(c)
DAV:   1    -0.191231921562E+03    0.81511E-01   -0.97941E+00  8160   0.664E+00    0.752E-01
DAV:   2    -0.191279946840E+03   -0.48025E-01   -0.30033E-01 13600   0.232E+00    0.170E+00
DAV:   3    -0.191246471464E+03    0.33475E-01   -0.85043E-02 12400   0.217E+00    0.744E-01
DAV:   4    -0.191243669496E+03    0.28020E-02   -0.20710E-02 12640   0.895E-01    0.543E-01
DAV:   5    -0.191241186307E+03    0.24832E-02   -0.97860E-03 11720   0.718E-01    0.401E-01
DAV:   6    -0.191239754983E+03    0.14313E-02   -0.48784E-03 11040   0.490E-01    0.203E-01
DAV:   7    -0.191239735417E+03    0.19566E-04   -0.22443E-03 11920   0.281E-01    0.189E-01
DAV:   8    -0.191239383303E+03    0.35211E-03   -0.11009E-03 10560   0.249E-01    0.106E-01
DAV:   9    -0.191239256744E+03    0.12656E-03   -0.24694E-04  8040   0.108E-01    0.250E-02
DAV:  10    -0.191239258470E+03   -0.17263E-05   -0.63997E-05  7640   0.312E-02
   9 F= -.19123926E+03 E0= -.19114843E+03  d E =0.740950E-01
       N       E                     dE             d eps       ncg     rms          rms(c)
DAV:   1    -0.191291991396E+03   -0.52735E-01   -0.51042E+00  8160   0.478E+00    0.575E-01
DAV:   2    -0.191331626413E+03   -0.39635E-01   -0.18586E-01 13520   0.205E+00    0.181E+00
DAV:   3    -0.191300204680E+03    0.31422E-01   -0.83524E-02 12200   0.200E+00    0.528E-01
DAV:   4    -0.191299142178E+03    0.10625E-02   -0.10798E-02 11400   0.666E-01    0.465E-01
DAV:   5    -0.191297051074E+03    0.20911E-02   -0.51825E-03 11480   0.547E-01    0.226E-01
DAV:   6    -0.191296615768E+03    0.43531E-03   -0.19511E-03 11000   0.261E-01    0.143E-01
DAV:   7    -0.191296903898E+03   -0.28813E-03   -0.17116E-03 11960   0.286E-01    0.220E-01
DAV:   8    -0.191296397823E+03    0.50607E-03   -0.95789E-04  9400   0.239E-01    0.559E-02
DAV:   9    -0.191296369836E+03    0.27987E-04   -0.91812E-05  6200   0.544E-02
  10 F= -.19129637E+03 E0= -.19120154E+03  d E =-.571114E-01
       N       E                     dE             d eps       ncg     rms          rms(c)
DAV:   1    -0.191313635425E+03   -0.17238E-01   -0.45995E-01  8160   0.145E+00    0.219E-01
DAV:   2    -0.191319794952E+03   -0.61595E-02   -0.23843E-02 13480   0.928E-01    0.742E-01
DAV:   3    -0.191313981202E+03    0.58138E-02   -0.11043E-02 11560   0.763E-01    0.150E-01
DAV:   4    -0.191314140858E+03   -0.15966E-03   -0.15438E-03 10160   0.273E-01    0.200E-01
DAV:   5    -0.191313754854E+03    0.38600E-03   -0.94151E-04 10000   0.229E-01    0.861E-02
DAV:   6    -0.191313673496E+03    0.81358E-04   -0.25737E-04  7080   0.881E-02
  11 F= -.19131367E+03 E0= -.19121740E+03  d E =-.173037E-01
       N       E                     dE             d eps       ncg     rms          rms(c)
DAV:   1    -0.191378494813E+03   -0.64740E-01   -0.68999E+00  8160   0.558E+00    0.749E-01
DAV:   2    -0.191453760506E+03   -0.75266E-01   -0.30200E-01 13480   0.309E+00    0.269E+00
DAV:   3    -0.191387793401E+03    0.65967E-01   -0.17038E-01 11880   0.273E+00    0.621E-01
DAV:   4    -0.191388084070E+03   -0.29067E-03   -0.20562E-02 11600   0.100E+00    0.691E-01
DAV:   5    -0.191383162680E+03    0.49214E-02   -0.10549E-02 11680   0.761E-01    0.264E-01
DAV:   6    -0.191382420766E+03    0.74191E-03   -0.32417E-03 11040   0.293E-01    0.162E-01
DAV:   7    -0.191382999975E+03   -0.57921E-03   -0.29273E-03 11920   0.381E-01    0.292E-01
DAV:   8    -0.191382077331E+03    0.92264E-03   -0.15812E-03 10160   0.300E-01    0.580E-02
DAV:   9    -0.191382041303E+03    0.36028E-04   -0.11542E-04  6080   0.558E-02
  12 F= -.19138204E+03 E0= -.19128146E+03  d E =-.683678E-01
       N       E                     dE             d eps       ncg     rms          rms(c)
DAV:   1    -0.191389430296E+03   -0.73530E-02   -0.79362E-02  8160   0.601E-01    0.733E-02
DAV:   2    -0.191389923410E+03   -0.49311E-03   -0.28181E-03 13600   0.258E-01    0.193E-01
DAV:   3    -0.191389543374E+03    0.38004E-03   -0.98872E-04 10200   0.224E-01    0.685E-02
DAV:   4    -0.191389533646E+03    0.97279E-05   -0.16887E-04  5960   0.911E-02
  13 F= -.19138953E+03 E0= -.19128872E+03  d E =-.749234E-02
       N       E                     dE             d eps       ncg     rms          rms(c)
DAV:   1    -0.191361099983E+03    0.28443E-01   -0.20865E+00  8160   0.311E+00    0.440E-01
DAV:   2    -0.191375565446E+03   -0.14465E-01   -0.84647E-02 12800   0.149E+00    0.108E+00
DAV:   3    -0.191362515906E+03    0.13050E-01   -0.27592E-02 12240   0.125E+00    0.367E-01
DAV:   4    -0.191362516811E+03   -0.90536E-06   -0.76751E-03 11160   0.562E-01    0.408E-01
DAV:   5    -0.191361252090E+03    0.12647E-02   -0.54227E-03 10120   0.500E-01    0.256E-01
DAV:   6    -0.191360532846E+03    0.71924E-03   -0.21035E-03 11000   0.281E-01    0.941E-02
DAV:   7    -0.191360453686E+03    0.79160E-04   -0.67895E-04 10800   0.112E-01
  14 F= -.19136045E+03 E0= -.19126022E+03  d E =0.290800E-01
       N       E                     dE             d eps       ncg     rms          rms(c)
DAV:   1    -0.191437280412E+03   -0.76748E-01   -0.89739E+00  8160   0.643E+00    0.821E-01
DAV:   2    -0.191491728348E+03   -0.54448E-01   -0.33116E-01 13560   0.285E+00    0.207E+00
DAV:   3    -0.191448489518E+03    0.43239E-01   -0.12108E-01 12280   0.248E+00    0.673E-01
DAV:   4    -0.191446861461E+03    0.16281E-02   -0.23040E-02 12400   0.946E-01    0.689E-01
DAV:   5    -0.191443388296E+03    0.34732E-02   -0.16812E-02 12200   0.925E-01    0.486E-01
DAV:   6    -0.191441019103E+03    0.23692E-02   -0.69740E-03 11400   0.514E-01    0.191E-01
DAV:   7    -0.191441271432E+03   -0.25233E-03   -0.34976E-03 11880   0.355E-01    0.265E-01
DAV:   8    -0.191440593426E+03    0.67801E-03   -0.18713E-03 10080   0.323E-01    0.109E-01
DAV:   9    -0.191440438432E+03    0.15499E-03   -0.32441E-04  8280   0.108E-01    0.268E-02
DAV:  10    -0.191440434389E+03    0.40430E-05   -0.80691E-05  7200   0.325E-02
  15 F= -.19144043E+03 E0= -.19133807E+03  d E =-.799807E-01
       N       E                     dE             d eps       ncg     rms          rms(c)
DAV:   1    -0.191475360931E+03   -0.34922E-01   -0.16906E+00  8160   0.277E+00    0.356E-01
DAV:   2    -0.191489949944E+03   -0.14589E-01   -0.68129E-02 13600   0.138E+00    0.115E+00
DAV:   3    -0.191477477932E+03    0.12472E-01   -0.31317E-02 12200   0.120E+00    0.284E-01
DAV:   4    -0.191477602680E+03   -0.12475E-03   -0.42399E-03 11520   0.446E-01    0.322E-01
DAV:   5    -0.191476560711E+03    0.10420E-02   -0.25374E-03 10720   0.382E-01    0.141E-01
DAV:   6    -0.191476458862E+03    0.10185E-03   -0.10076E-03  9920   0.187E-01    0.112E-01
DAV:   7    -0.191476530446E+03   -0.71584E-04   -0.85813E-04  9800   0.219E-01
  16 F= -.19147653E+03 E0= -.19137402E+03  d E =-.360961E-01
       N       E                     dE             d eps       ncg     rms          rms(c)
DAV:   1    -0.191458595142E+03    0.17864E-01   -0.49390E-01  8160   0.150E+00    0.196E-01
DAV:   2    -0.191463290602E+03   -0.46955E-02   -0.21836E-02 13120   0.772E-01    0.617E-01
DAV:   3    -0.191459303552E+03    0.39871E-02   -0.77699E-03 10920   0.642E-01    0.146E-01
DAV:   4    -0.191459272031E+03    0.31521E-04   -0.11623E-03  9640   0.216E-01    0.144E-01
DAV:   5    -0.191459070799E+03    0.20123E-03   -0.61135E-04  9360   0.187E-01    0.782E-02
DAV:   6    -0.191459015709E+03    0.55089E-04   -0.23187E-04  6640   0.934E-02
  17 F= -.19145902E+03 E0= -.19135664E+03  d E =0.175147E-01
       N       E                     dE             d eps       ncg     rms          rms(c)
DAV:   1    -0.191459024469E+03    0.46330E-04   -0.13344E-04  7080   0.590E-02    0.365E-02
DAV:   2    -0.191459319099E+03   -0.29463E-03   -0.59009E-04  9640   0.193E-01    0.165E-01
DAV:   3    -0.191458999640E+03    0.31946E-03   -0.43418E-04  8000   0.166E-01    0.206E-02
DAV:   4    -0.191459009408E+03   -0.97677E-05   -0.17898E-05  5560   0.217E-02
  18 F= -.19145901E+03 E0= -.19135670E+03  d E =0.630159E-05
       N       E                     dE             d eps       ncg     rms          rms(c)
DAV:   1    -0.191506855387E+03   -0.47856E-01   -0.41075E+00  8160   0.430E+00    0.437E-01
DAV:   2    -0.191513844197E+03   -0.69888E-02   -0.93454E-02 13160   0.962E-01    0.594E-01
DAV:   3    -0.191513399649E+03    0.44455E-03   -0.24845E-02 12600   0.108E+00    0.667E-01
DAV:   4    -0.191509153187E+03    0.42465E-02   -0.94587E-03 12240   0.667E-01    0.214E-01
DAV:   5    -0.191508630768E+03    0.52242E-03   -0.27579E-03 11440   0.290E-01    0.188E-01
DAV:   6    -0.191508824906E+03   -0.19414E-03   -0.24734E-03 11640   0.367E-01    0.225E-01
DAV:   7    -0.191508316521E+03    0.50839E-03   -0.11080E-03 10080   0.242E-01    0.835E-02
DAV:   8    -0.191508276264E+03    0.40257E-04   -0.28913E-04  7680   0.125E-01
  19 F= -.19150828E+03 E0= -.19140653E+03  d E =-.492669E-01
       N       E                     dE             d eps       ncg     rms          rms(c)
DAV:   1    -0.191516065323E+03   -0.77488E-02   -0.60860E-01  8160   0.167E+00    0.304E-01
DAV:   2    -0.191526136085E+03   -0.10071E-01   -0.41259E-02 12560   0.123E+00    0.988E-01
DAV:   3    -0.191515717516E+03    0.10419E-01   -0.22409E-02 11560   0.107E+00    0.234E-01
DAV:   4    -0.191515294381E+03    0.42313E-03   -0.28137E-03 11320   0.311E-01    0.190E-01
DAV:   5    -0.191515311209E+03   -0.16828E-04   -0.20291E-03 11120   0.327E-01    0.222E-01
DAV:   6    -0.191514758424E+03    0.55279E-03   -0.13255E-03  9640   0.244E-01    0.782E-02
DAV:   7    -0.191514793737E+03   -0.35313E-04   -0.45747E-04  7360   0.150E-01
  20 F= -.19151479E+03 E0= -.19141369E+03  d E =-.651747E-02
       N       E                     dE             d eps       ncg     rms          rms(c)
DAV:   1    -0.191578862030E+03   -0.64104E-01   -0.50958E+00  8160   0.484E+00    0.548E-01
DAV:   2    -0.191601296718E+03   -0.22435E-01   -0.16740E-01 13480   0.174E+00    0.127E+00
DAV:   3    -0.191587430190E+03    0.13867E-01   -0.53795E-02 12040   0.158E+00    0.546E-01
DAV:   4    -0.191585902580E+03    0.15276E-02   -0.10457E-02 11600   0.688E-01    0.445E-01
DAV:   5    -0.191583986625E+03    0.19160E-02   -0.59212E-03 11600   0.596E-01    0.270E-01
DAV:   6    -0.191583531263E+03    0.45536E-03   -0.31608E-03 12040   0.352E-01    0.170E-01
DAV:   7    -0.191583518991E+03    0.12271E-04   -0.17570E-03 11280   0.289E-01    0.194E-01
DAV:   8    -0.191583096788E+03    0.42220E-03   -0.75694E-04  8920   0.215E-01    0.463E-02
DAV:   9    -0.191583077787E+03    0.19001E-04   -0.10238E-04  6280   0.544E-02
  21 F= -.19158308E+03 E0= -.19148452E+03  d E =-.682841E-01
       N       E                     dE             d eps       ncg     rms          rms(c)
DAV:   1    -0.191574635080E+03    0.84617E-02   -0.73160E-02  8160   0.578E-01    0.611E-02
DAV:   2    -0.191574794079E+03   -0.15900E-03   -0.19922E-03 13240   0.154E-01    0.868E-02
DAV:   3    -0.191574757279E+03    0.36801E-04   -0.40405E-04  9240   0.148E-01
  22 F= -.19157476E+03 E0= -.19147552E+03  d E =0.832051E-02
       N       E                     dE             d eps       ncg     rms          rms(c)
DAV:   1    -0.191545423628E+03    0.29370E-01   -0.10941E+00  8160   0.223E+00    0.269E-01
DAV:   2    -0.191550625045E+03   -0.52014E-02   -0.36177E-02 13440   0.812E-01    0.616E-01
DAV:   3    -0.191546905766E+03    0.37193E-02   -0.12557E-02 12520   0.792E-01    0.284E-01
DAV:   4    -0.191546268009E+03    0.63776E-03   -0.24282E-03 11320   0.294E-01    0.162E-01
DAV:   5    -0.191546075757E+03    0.19225E-03   -0.11912E-03 11160   0.243E-01    0.153E-01
DAV:   6    -0.191545988332E+03    0.87425E-04   -0.10766E-03 10280   0.238E-01    0.124E-01
DAV:   7    -0.191545873064E+03    0.11527E-03   -0.51950E-04  8720   0.158E-01    0.840E-02
DAV:   8    -0.191545807117E+03    0.65947E-04   -0.17737E-04  6440   0.109E-01
  23 F= -.19154581E+03 E0= -.19144522E+03  d E =0.289502E-01
       N       E                     dE             d eps       ncg     rms          rms(c)
DAV:   1    -0.191619895893E+03   -0.74023E-01   -0.71371E+00  8160   0.569E+00    0.579E-01
DAV:   2    -0.191639906203E+03   -0.20010E-01   -0.19639E-01 12440   0.161E+00    0.103E+00
DAV:   3    -0.191633168638E+03    0.67376E-02   -0.49258E-02 12320   0.155E+00    0.694E-01
DAV:   4    -0.191628813652E+03    0.43550E-02   -0.11224E-02 11920   0.713E-01    0.351E-01
DAV:   5    -0.191627863055E+03    0.95060E-03   -0.50416E-03 11440   0.533E-01    0.310E-01
DAV:   6    -0.191627588783E+03    0.27427E-03   -0.42399E-03 12520   0.466E-01    0.234E-01
DAV:   7    -0.191627136166E+03    0.45262E-03   -0.20199E-03 11160   0.313E-01    0.170E-01
DAV:   8    -0.191626829241E+03    0.30693E-03   -0.66158E-04  8640   0.203E-01    0.530E-02
DAV:   9    -0.191626803947E+03    0.25294E-04   -0.11892E-04  6680   0.618E-02
  24 F= -.19162680E+03 E0= -.19153052E+03  d E =-.809968E-01
       N       E                     dE             d eps       ncg     rms          rms(c)
DAV:   1    -0.191645180832E+03   -0.18352E-01   -0.37592E-01  8160   0.131E+00    0.133E-01
DAV:   2    -0.191645854511E+03   -0.67368E-03   -0.10603E-02 12160   0.298E-01    0.121E-01
DAV:   3    -0.191646083376E+03   -0.22886E-03   -0.15360E-03 11160   0.278E-01    0.199E-01
DAV:   4    -0.191645677335E+03    0.40604E-03   -0.80657E-04  9480   0.213E-01    0.734E-02
DAV:   5    -0.191645673447E+03    0.38878E-05   -0.24126E-04  6480   0.117E-01
  25 F= -.19164567E+03 E0= -.19155037E+03  d E =-.188695E-01
       N       E                     dE             d eps       ncg     rms          rms(c)
DAV:   1    -0.191635436498E+03    0.10241E-01   -0.21861E-01  8160   0.106E+00    0.193E-01
DAV:   2    -0.191636471040E+03   -0.10345E-02   -0.11707E-02 12440   0.468E-01    0.349E-01
DAV:   3    -0.191635476258E+03    0.99478E-03   -0.48044E-03 11040   0.527E-01    0.223E-01
DAV:   4    -0.191635037797E+03    0.43846E-03   -0.14599E-03  9760   0.256E-01    0.126E-01
DAV:   5    -0.191634949363E+03    0.88434E-04   -0.78884E-04  8760   0.216E-01
  26 F= -.19163495E+03 E0= -.19153906E+03  d E =0.107241E-01
       N       E                     dE             d eps       ncg     rms          rms(c)
DAV:   1    -0.191717350722E+03   -0.82313E-01   -0.73044E+00  8160   0.587E+00    0.743E-01
DAV:   2    -0.191730791627E+03   -0.13441E-01   -0.24929E-01 12600   0.166E+00    0.884E-01
DAV:   3    -0.191731367170E+03   -0.57554E-03   -0.51142E-02 11800   0.169E+00    0.947E-01
DAV:   4    -0.191721418528E+03    0.99486E-02   -0.20910E-02 11200   0.110E+00    0.464E-01
DAV:   5    -0.191720499722E+03    0.91881E-03   -0.10496E-02 11880   0.758E-01    0.454E-01
DAV:   6    -0.191718740779E+03    0.17589E-02   -0.68273E-03 11360   0.619E-01    0.213E-01
DAV:   7    -0.191718072473E+03    0.66831E-03   -0.17857E-03 11480   0.234E-01    0.694E-02
DAV:   8    -0.191717997493E+03    0.74980E-04   -0.30066E-04  8640   0.936E-02
  27 F= -.19171800E+03 E0= -.19162661E+03  d E =-.830481E-01
       N       E                     dE             d eps       ncg     rms          rms(c)
DAV:   1    -0.191759870514E+03   -0.41798E-01   -0.28623E+00  8160   0.366E+00    0.499E-01
DAV:   2    -0.191767000617E+03   -0.71301E-02   -0.10526E-01 12480   0.124E+00    0.754E-01
DAV:   3    -0.191763832645E+03    0.31680E-02   -0.22747E-02 12200   0.121E+00    0.587E-01
DAV:   4    -0.191760210422E+03    0.36222E-02   -0.94076E-03 11600   0.701E-01    0.265E-01
DAV:   5    -0.191760045269E+03    0.16515E-03   -0.45250E-03 11240   0.451E-01    0.275E-01
DAV:   6    -0.191759344897E+03    0.70037E-03   -0.26049E-03 12680   0.405E-01    0.151E-01
DAV:   7    -0.191759082862E+03    0.26204E-03   -0.73346E-04 10080   0.176E-01    0.650E-02
DAV:   8    -0.191759067298E+03    0.15564E-04   -0.22008E-04  7480   0.114E-01
  28 F= -.19175907E+03 E0= -.19167142E+03  d E =-.410698E-01
       N       E                     dE             d eps       ncg     rms          rms(c)
DAV:   1    -0.191795385797E+03   -0.36303E-01   -0.16794E+00  8160   0.283E+00    0.400E-01
DAV:   2    -0.191798045707E+03   -0.26599E-02   -0.62357E-02 13120   0.855E-01    0.492E-01
DAV:   3    -0.191798151960E+03   -0.10625E-03   -0.14345E-02 12280   0.963E-01    0.529E-01
DAV:   4    -0.191794792105E+03    0.33599E-02   -0.58851E-03 12000   0.596E-01    0.172E-01
DAV:   5    -0.191794748625E+03    0.43480E-04   -0.23312E-03 11320   0.309E-01    0.207E-01
DAV:   6    -0.191794396353E+03    0.35227E-03   -0.15859E-03 11040   0.311E-01    0.116E-01
DAV:   7    -0.191794272043E+03    0.12431E-03   -0.39183E-04  8560   0.149E-01    0.656E-02
DAV:   8    -0.191794228277E+03    0.43767E-04   -0.11920E-04  6040   0.949E-02
  29 F= -.19179423E+03 E0= -.19170764E+03  d E =-.351610E-01
       N       E                     dE             d eps       ncg     rms          rms(c)
DAV:   1    -0.191857053313E+03   -0.62781E-01   -0.65921E+00  8160   0.550E+00    0.570E-01
DAV:   2    -0.191871626983E+03   -0.14574E-01   -0.20714E-01 11720   0.132E+00    0.558E-01
DAV:   3    -0.191875298278E+03   -0.36713E-02   -0.28665E-02 12520   0.132E+00    0.837E-01
DAV:   4    -0.191867206606E+03    0.80917E-02   -0.13087E-02 12280   0.929E-01    0.229E-01
DAV:   5    -0.191866952169E+03    0.25444E-03   -0.35214E-03 11320   0.329E-01    0.219E-01
DAV:   6    -0.191867375066E+03   -0.42290E-03   -0.33897E-03 12840   0.477E-01    0.305E-01
DAV:   7    -0.191866271797E+03    0.11033E-02   -0.14830E-03 10240   0.322E-01    0.450E-02
DAV:   8    -0.191866260949E+03    0.10848E-04   -0.14676E-04  5920   0.526E-02
  30 F= -.19186626E+03 E0= -.19178394E+03  d E =-.720327E-01
       N       E                     dE             d eps       ncg     rms          rms(c)
DAV:   1    -0.191934306845E+03   -0.68035E-01   -0.12550E+01  8160   0.756E+00    0.750E-01
DAV:   2    -0.191963000407E+03   -0.28694E-01   -0.39928E-01 12080   0.174E+00    0.611E-01
DAV:   3    -0.191970815887E+03   -0.78155E-02   -0.37635E-02 12280   0.155E+00    0.112E+00
DAV:   4    -0.191957466355E+03    0.13350E-01   -0.21086E-02 11680   0.126E+00    0.322E-01
DAV:   5    -0.191956572460E+03    0.89389E-03   -0.56220E-03 11560   0.384E-01    0.226E-01
DAV:   6    -0.191956850850E+03   -0.27839E-03   -0.41343E-03 12600   0.464E-01    0.309E-01
DAV:   7    -0.191955727242E+03    0.11236E-02   -0.18232E-03 11520   0.365E-01    0.604E-02
DAV:   8    -0.191955710699E+03    0.16543E-04   -0.21154E-04  6760   0.821E-02
  31 F= -.19195571E+03 E0= -.19187898E+03  d E =-.894497E-01
       N       E                     dE             d eps       ncg     rms          rms(c)
DAV:   1    -0.192012175783E+03   -0.56449E-01   -0.19712E+01  8160   0.947E+00    0.956E-01
DAV:   2    -0.192058210544E+03   -0.46035E-01   -0.64018E-01 11840   0.217E+00    0.771E-01
DAV:   3    -0.192069046713E+03   -0.10836E-01   -0.57055E-02 12160   0.192E+00    0.137E+00
DAV:   4    -0.192049361994E+03    0.19685E-01   -0.32663E-02 11720   0.161E+00    0.423E-01
DAV:   5    -0.192047350791E+03    0.20112E-02   -0.92427E-03 12280   0.520E-01    0.261E-01
DAV:   6    -0.192047514597E+03   -0.16381E-03   -0.59393E-03 12320   0.518E-01    0.320E-01
DAV:   7    -0.192046212350E+03    0.13022E-02   -0.20622E-03 12560   0.400E-01    0.732E-02
DAV:   8    -0.192046179550E+03    0.32800E-04   -0.32625E-04  8640   0.103E-01
  32 F= -.19204618E+03 E0= -.19197583E+03  d E =-.904689E-01
       N       E                     dE             d eps       ncg     rms          rms(c)
DAV:   1    -0.192071455340E+03   -0.25243E-01   -0.27130E+00  8160   0.348E+00    0.388E-01
DAV:   2    -0.192080217745E+03   -0.87624E-02   -0.10410E-01 12240   0.976E-01    0.442E-01
DAV:   3    -0.192080488475E+03   -0.27073E-03   -0.12782E-02 12480   0.939E-01    0.487E-01
DAV:   4    -0.192077773532E+03    0.27149E-02   -0.41978E-03 12520   0.580E-01    0.157E-01
DAV:   5    -0.192077768641E+03    0.48905E-05   -0.13502E-03 11600   0.283E-01    0.166E-01
DAV:   6    -0.192077739038E+03    0.29603E-04   -0.11284E-03 10800   0.293E-01    0.135E-01
DAV:   7    -0.192077481972E+03    0.25707E-03   -0.40667E-04  9480   0.150E-01    0.355E-02
DAV:   8    -0.192077481928E+03    0.44839E-07   -0.81541E-05  7040   0.697E-02
  33 F= -.19207748E+03 E0= -.19200908E+03  d E =-.313024E-01
       N       E                     dE             d eps       ncg     rms          rms(c)
DAV:   1    -0.192109847809E+03   -0.32366E-01   -0.90196E+00  8160   0.637E+00    0.696E-01
DAV:   2    -0.192131532296E+03   -0.21684E-01   -0.30369E-01 12280   0.156E+00    0.593E-01
DAV:   3    -0.192135643068E+03   -0.41108E-02   -0.35773E-02 12600   0.144E+00    0.880E-01
DAV:   4    -0.192126935460E+03    0.87076E-02   -0.15984E-02 12280   0.115E+00    0.335E-01
DAV:   5    -0.192125730455E+03    0.12050E-02   -0.41684E-03 12440   0.420E-01    0.206E-01
DAV:   6    -0.192126403253E+03   -0.67280E-03   -0.33347E-03 12120   0.485E-01    0.294E-01
DAV:   7    -0.192125268720E+03    0.11345E-02   -0.16949E-03 12080   0.356E-01    0.583E-02
DAV:   8    -0.192125235661E+03    0.33059E-04   -0.18497E-04  7040   0.822E-02
  34 F= -.19212524E+03 E0= -.19205988E+03  d E =-.477537E-01
       N       E                     dE             d eps       ncg     rms          rms(c)
DAV:   1    -0.192143795150E+03   -0.18526E-01   -0.94745E+00  8160   0.654E+00    0.707E-01
DAV:   2    -0.192165114979E+03   -0.21320E-01   -0.31063E-01 12200   0.151E+00    0.534E-01
DAV:   3    -0.192167637824E+03   -0.25228E-02   -0.29567E-02 12800   0.124E+00    0.753E-01
DAV:   4    -0.192160916224E+03    0.67216E-02   -0.12490E-02 12440   0.103E+00    0.330E-01
DAV:   5    -0.192159823526E+03    0.10927E-02   -0.43821E-03 12680   0.435E-01    0.214E-01
DAV:   6    -0.192160601725E+03   -0.77820E-03   -0.36383E-03 12320   0.513E-01    0.328E-01
DAV:   7    -0.192159308337E+03    0.12934E-02   -0.17720E-03 11080   0.387E-01    0.613E-02
DAV:   8    -0.192159253474E+03    0.54864E-04   -0.14469E-04  6440   0.684E-02
  35 F= -.19215925E+03 E0= -.19209590E+03  d E =-.340178E-01
       N       E                     dE             d eps       ncg     rms          rms(c)
DAV:   1    -0.192166211331E+03   -0.69030E-02   -0.25453E+00  8160   0.339E+00    0.399E-01
DAV:   2    -0.192174701950E+03   -0.84906E-02   -0.10614E-01 12560   0.111E+00    0.461E-01
DAV:   3    -0.192174387361E+03    0.31459E-03   -0.12860E-02 12480   0.951E-01    0.474E-01
DAV:   4    -0.192171806420E+03    0.25809E-02   -0.50164E-03 12280   0.602E-01    0.177E-01
DAV:   5    -0.192171629062E+03    0.17736E-03   -0.19134E-03 11680   0.281E-01    0.168E-01
DAV:   6    -0.192171629047E+03    0.15388E-07   -0.12531E-03 11160   0.311E-01    0.150E-01
DAV:   7    -0.192171339315E+03    0.28973E-03   -0.52112E-04 10040   0.179E-01    0.432E-02
DAV:   8    -0.192171333972E+03    0.53436E-05   -0.96155E-05  7360   0.777E-02
  36 F= -.19217133E+03 E0= -.19210871E+03  d E =-.120805E-01
       N       E                     dE             d eps       ncg     rms          rms(c)
DAV:   1    -0.192174732057E+03   -0.33927E-02   -0.41744E+00  8160   0.433E+00    0.464E-01
DAV:   2    -0.192184183751E+03   -0.94517E-02   -0.14080E-01 12240   0.102E+00    0.308E-01
DAV:   3    -0.192184277087E+03   -0.93336E-04   -0.10646E-02 12520   0.581E-01    0.372E-01
DAV:   4    -0.192182612425E+03    0.16647E-02   -0.38997E-03 12560   0.561E-01    0.235E-01
DAV:   5    -0.192182124492E+03    0.48793E-03   -0.22065E-03 12000   0.343E-01    0.138E-01
DAV:   6    -0.192182055086E+03    0.69406E-04   -0.12244E-03 12040   0.209E-01    0.116E-01
DAV:   7    -0.192181911535E+03    0.14355E-03   -0.38982E-04 10400   0.175E-01    0.552E-02
DAV:   8    -0.192181873149E+03    0.38386E-04   -0.70745E-05  6760   0.673E-02
  37 F= -.19218187E+03 E0= -.19211989E+03  d E =-.105392E-01
       N       E                     dE             d eps       ncg     rms          rms(c)
DAV:   1    -0.192182911070E+03   -0.99953E-03   -0.82489E-02  8240   0.621E-01    0.837E-02
DAV:   2    -0.192183563234E+03   -0.65216E-03   -0.43119E-03 12560   0.324E-01    0.201E-01
DAV:   3    -0.192183113916E+03    0.44932E-03   -0.92656E-04 11280   0.263E-01    0.570E-02
DAV:   4    -0.192183074477E+03    0.39439E-04   -0.71501E-05  6200   0.683E-02
  38 F= -.19218307E+03 E0= -.19212120E+03  d E =-.120133E-02
       N       E                     dE             d eps       ncg     rms          rms(c)
DAV:   1    -0.192185201005E+03   -0.20871E-02   -0.10125E+00  8160   0.213E+00    0.239E-01
DAV:   2    -0.192188345699E+03   -0.31447E-02   -0.41083E-02 11600   0.612E-01    0.235E-01
DAV:   3    -0.192188800638E+03   -0.45494E-03   -0.41765E-03 12640   0.558E-01    0.327E-01
DAV:   4    -0.192187529997E+03    0.12706E-02   -0.17824E-03 10800   0.378E-01    0.894E-02
DAV:   5    -0.192187508316E+03    0.21681E-04   -0.62287E-04 10520   0.121E-01
  39 F= -.19218751E+03 E0= -.19212614E+03  d E =-.443384E-02
       N       E                     dE             d eps       ncg     rms          rms(c)
DAV:   1    -0.192187797553E+03   -0.26756E-03   -0.19537E-02  8720   0.340E-01    0.117E-01
DAV:   2    -0.192189917457E+03   -0.21199E-02   -0.43574E-03 12400   0.589E-01    0.427E-01
DAV:   3    -0.192187609475E+03    0.23080E-02   -0.24562E-03 11040   0.488E-01    0.427E-02
DAV:   4    -0.192187609551E+03   -0.75878E-07   -0.10033E-04  6360   0.659E-02
  40 F= -.19218761E+03 E0= -.19212618E+03  d E =-.101235E-03
       N       E                     dE             d eps       ncg     rms          rms(c)
DAV:   1    -0.192188535466E+03   -0.92599E-03   -0.92309E-01  8160   0.204E+00    0.232E-01
DAV:   2    -0.192191344429E+03   -0.28090E-02   -0.39106E-02 10800   0.564E-01    0.187E-01
DAV:   3    -0.192191954541E+03   -0.61011E-03   -0.34882E-03 13200   0.494E-01    0.312E-01
DAV:   4    -0.192190754732E+03    0.11998E-02   -0.16485E-03 10680   0.375E-01    0.844E-02
DAV:   5    -0.192190755972E+03   -0.12402E-05   -0.60315E-04 10480   0.113E-01
  41 F= -.19219076E+03 E0= -.19212964E+03  d E =-.314642E-02
       N       E                     dE             d eps       ncg     rms          rms(c)
DAV:   1    -0.192189352626E+03    0.14021E-02   -0.18771E-01  8160   0.924E-01    0.140E-01
DAV:   2    -0.192191738617E+03   -0.23860E-02   -0.10342E-02 12320   0.611E-01    0.407E-01
DAV:   3    -0.192189702144E+03    0.20365E-02   -0.26555E-03 11680   0.492E-01    0.809E-02
DAV:   4    -0.192189700628E+03    0.15163E-05   -0.33510E-04  8680   0.139E-01
  42 F= -.19218970E+03 E0= -.19212848E+03  d E =0.105534E-02
       N       E                     dE             d eps       ncg     rms          rms(c)
DAV:   1    -0.192189785729E+03   -0.83585E-04   -0.13879E-02  8240   0.290E-01    0.541E-02
DAV:   2    -0.192189832248E+03   -0.46519E-04   -0.85941E-04 11560   0.975E-02
  43 F= -.19218983E+03 E0= -.19212866E+03  d E =-.131621E-03
