<?xml version="1.0" encoding="ISO-8859-1"?>
<modeling>
 <generator>
  <i name="program" type="string">vasp </i>
  <i name="version" type="string">5.4.1  </i>
  <i name="subversion" type="string">05Feb16 (build Jul 05 2020 17:13:04) complex                          parallel </i>
  <i name="platform" type="string">IFC91_ompi </i>
  <i name="date" type="string">2024 04 20 </i>
  <i name="time" type="string">15:02:14 </i>
 </generator>
 <incar>
  <i type="int" name="ISTART">     0</i>
  <i type="string" name="PREC">normal</i>
  <i type="string" name="ALGO"> Normal</i>
  <i type="int" name="ISPIN">     1</i>
  <i type="int" name="ICHARG">     2</i>
  <i type="int" name="IBRION">     1</i>
  <i type="int" name="NSW">   100</i>
  <i type="int" name="ISIF">     3</i>
  <i type="int" name="ISYM">     0</i>
  <i name="SYMPREC">      0.00000001</i>
  <i name="POTIM">      0.50000000</i>
  <i type="logical" name="LREAL"> F  </i>
  <i type="logical" name="LPLANE"> F  </i>
  <i type="int" name="ISMEAR">     0</i>
  <i type="logical" name="LWAVE"> F  </i>
  <i type="logical" name="LCHARG"> F  </i>
  <v type="int" name="KPOINT_BSE">    -1     0     0     0</v>
 </incar>
 <kpoints>
  <generation param="Gamma">
   <v type="int" name="divisions">       8        8        1 </v>
   <v name="usershift">      0.00000000       0.00000000       0.00000000 </v>
   <v name="genvec1">      0.12500000       0.00000000       0.00000000 </v>
   <v name="genvec2">     -0.00000000       0.12500000       0.00000000 </v>
   <v name="genvec3">      0.00000000       0.00000000       1.00000000 </v>
   <v name="shift">      0.00000000       0.00000000       0.00000000 </v>
  </generation>
  <varray name="kpointlist" >
   <v>       0.00000000       0.00000000       0.00000000 </v>
   <v>       0.12500000       0.00000000       0.00000000 </v>
   <v>       0.25000000       0.00000000       0.00000000 </v>
   <v>       0.37500000       0.00000000       0.00000000 </v>
   <v>       0.50000000       0.00000000       0.00000000 </v>
   <v>       0.00000000       0.12500000       0.00000000 </v>
   <v>       0.12500000       0.12500000       0.00000000 </v>
   <v>       0.25000000       0.12500000       0.00000000 </v>
   <v>       0.37500000       0.12500000       0.00000000 </v>
   <v>       0.50000000       0.12500000       0.00000000 </v>
   <v>      -0.37500000       0.12500000       0.00000000 </v>
   <v>      -0.25000000       0.12500000       0.00000000 </v>
   <v>      -0.12500000       0.12500000       0.00000000 </v>
   <v>       0.00000000       0.25000000       0.00000000 </v>
   <v>       0.12500000       0.25000000       0.00000000 </v>
   <v>       0.25000000       0.25000000       0.00000000 </v>
   <v>       0.37500000       0.25000000       0.00000000 </v>
   <v>       0.50000000       0.25000000       0.00000000 </v>
   <v>      -0.37500000       0.25000000       0.00000000 </v>
   <v>      -0.25000000       0.25000000       0.00000000 </v>
   <v>      -0.12500000       0.25000000       0.00000000 </v>
   <v>      -0.00000000       0.37500000       0.00000000 </v>
   <v>       0.12500000       0.37500000       0.00000000 </v>
   <v>       0.25000000       0.37500000       0.00000000 </v>
   <v>       0.37500000       0.37500000       0.00000000 </v>
   <v>       0.50000000       0.37500000       0.00000000 </v>
   <v>      -0.37500000       0.37500000       0.00000000 </v>
   <v>      -0.25000000       0.37500000       0.00000000 </v>
   <v>      -0.12500000       0.37500000       0.00000000 </v>
   <v>       0.00000000       0.50000000       0.00000000 </v>
   <v>       0.12500000       0.50000000       0.00000000 </v>
   <v>       0.25000000       0.50000000       0.00000000 </v>
   <v>       0.37500000       0.50000000       0.00000000 </v>
   <v>       0.50000000       0.50000000       0.00000000 </v>
  </varray>
  <varray name="weights" >
   <v>       0.01562500 </v>
   <v>       0.03125000 </v>
   <v>       0.03125000 </v>
   <v>       0.03125000 </v>
   <v>       0.01562500 </v>
   <v>       0.03125000 </v>
   <v>       0.03125000 </v>
   <v>       0.03125000 </v>
   <v>       0.03125000 </v>
   <v>       0.03125000 </v>
   <v>       0.03125000 </v>
   <v>       0.03125000 </v>
   <v>       0.03125000 </v>
   <v>       0.03125000 </v>
   <v>       0.03125000 </v>
   <v>       0.03125000 </v>
   <v>       0.03125000 </v>
   <v>       0.03125000 </v>
   <v>       0.03125000 </v>
   <v>       0.03125000 </v>
   <v>       0.03125000 </v>
   <v>       0.03125000 </v>
   <v>       0.03125000 </v>
   <v>       0.03125000 </v>
   <v>       0.03125000 </v>
   <v>       0.03125000 </v>
   <v>       0.03125000 </v>
   <v>       0.03125000 </v>
   <v>       0.03125000 </v>
   <v>       0.01562500 </v>
   <v>       0.03125000 </v>
   <v>       0.03125000 </v>
   <v>       0.03125000 </v>
   <v>       0.01562500 </v>
  </varray>
 </kpoints>
 <parameters>
  <separator name="general" >
   <i type="string" name="SYSTEM">unknown system</i>
   <i type="logical" name="LCOMPAT"> F  </i>
  </separator>
  <separator name="electronic" >
   <i type="string" name="PREC">normal</i>
   <i name="ENMAX">    280.00000000</i>
   <i name="ENAUG">    373.43800000</i>
   <i name="EDIFF">      0.00010000</i>
   <i type="int" name="IALGO">    38</i>
   <i type="int" name="IWAVPR">    11</i>
   <i type="int" name="NBANDS">   120</i>
   <i name="NELECT">    159.00000000</i>
   <i type="int" name="TURBO">     0</i>
   <i type="int" name="IRESTART">     0</i>
   <i type="int" name="NREBOOT">     0</i>
   <i type="int" name="NMIN">     0</i>
   <i name="EREF">      0.00000000</i>
   <separator name="electronic smearing" >
    <i type="int" name="ISMEAR">     0</i>
    <i name="SIGMA">      0.20000000</i>
    <i name="KSPACING">      0.50000000</i>
    <i type="logical" name="KGAMMA"> T  </i>
   </separator>
   <separator name="electronic projectors" >
    <i type="logical" name="LREAL"> F  </i>
    <v name="ROPT">      0.00000000      0.00000000      0.00000000      0.00000000</v>
    <i type="int" name="LMAXPAW">  -100</i>
    <i type="int" name="LMAXMIX">     2</i>
    <i type="logical" name="NLSPLINE"> F  </i>
   </separator>
   <separator name="electronic startup" >
    <i type="int" name="ISTART">     0</i>
    <i type="int" name="ICHARG">     2</i>
    <i type="int" name="INIWAV">     1</i>
   </separator>
   <separator name="electronic spin" >
    <i type="int" name="ISPIN">     1</i>
    <i type="logical" name="LNONCOLLINEAR"> F  </i>
    <v name="MAGMOM">      1.00000000      1.00000000      1.00000000      1.00000000      1.00000000      1.00000000      1.00000000      1.00000000      1.00000000      1.00000000      1.00000000      1.00000000      1.00000000      1.00000000      1.00000000      1.00000000      1.00000000      1.00000000      1.00000000      1.00000000
      1.00000000      1.00000000      1.00000000      1.00000000      1.00000000      1.00000000      1.00000000</v>
    <i name="NUPDOWN">     -1.00000000</i>
    <i type="logical" name="LSORBIT"> F  </i>
    <v name="SAXIS">      0.00000000      0.00000000      1.00000000</v>
    <i type="logical" name="LSPIRAL"> F  </i>
    <v name="QSPIRAL">      0.00000000      0.00000000      0.00000000</v>
    <i type="logical" name="LZEROZ"> F  </i>
   </separator>
   <separator name="electronic exchange-correlation" >
    <i type="logical" name="LASPH"> F  </i>
    <i type="logical" name="LMETAGGA"> F  </i>
   </separator>
   <separator name="electronic convergence" >
    <i type="int" name="NELM">    60</i>
    <i type="int" name="NELMDL">    -5</i>
    <i type="int" name="NELMIN">     2</i>
    <i name="ENINI">    280.00000000</i>
    <separator name="electronic convergence detail" >
     <i type="logical" name="LDIAG"> T  </i>
     <i type="logical" name="LSUBROT"> F  </i>
     <i name="WEIMIN">      0.00100000</i>
     <i name="EBREAK">      0.00000021</i>
     <i name="DEPER">      0.30000000</i>
     <i type="int" name="NRMM">     4</i>
     <i name="TIME">      0.40000000</i>
    </separator>
   </separator>
   <separator name="electronic mixer" >
    <i name="AMIX">      0.40000000</i>
    <i name="BMIX">      1.00000000</i>
    <i name="AMIN">      0.10000000</i>
    <i name="AMIX_MAG">      1.60000000</i>
    <i name="BMIX_MAG">      1.00000000</i>
    <separator name="electronic mixer details" >
     <i type="int" name="IMIX">     4</i>
     <i type="logical" name="MIXFIRST"> F  </i>
     <i type="int" name="MAXMIX">   -45</i>
     <i name="WC">    100.00000000</i>
     <i type="int" name="INIMIX">     1</i>
     <i type="int" name="MIXPRE">     1</i>
     <i type="int" name="MREMOVE">     5</i>
    </separator>
   </separator>
   <separator name="electronic dipolcorrection" >
    <i type="logical" name="LDIPOL"> F  </i>
    <i type="logical" name="LMONO"> F  </i>
    <i type="int" name="IDIPOL">     0</i>
    <i name="EPSILON">      1.00000000</i>
    <v name="DIPOL">   -100.00000000   -100.00000000   -100.00000000</v>
    <i name="EFIELD">      0.00000000</i>
   </separator>
  </separator>
  <separator name="grids" >
   <i type="int" name="NGX">    42</i>
   <i type="int" name="NGY">    42</i>
   <i type="int" name="NGZ">   126</i>
   <i type="int" name="NGXF">    84</i>
   <i type="int" name="NGYF">    84</i>
   <i type="int" name="NGZF">   252</i>
   <i type="logical" name="ADDGRID"> F  </i>
  </separator>
  <separator name="ionic" >
   <i type="int" name="NSW">   100</i>
   <i type="int" name="IBRION">     1</i>
   <i type="int" name="ISIF">     3</i>
   <i name="PSTRESS">      0.00000000</i>
   <i name="EDIFFG">      0.00100000</i>
   <i type="int" name="NFREE">     0</i>
   <i name="POTIM">      0.50000000</i>
   <i name="SMASS">     -3.00000000</i>
   <i name="SCALEE">      1.00000000</i>
  </separator>
  <separator name="ionic md" >
   <i name="TEBEG">      0.00010000</i>
   <i name="TEEND">      0.00010000</i>
   <i type="int" name="NBLOCK">     1</i>
   <i type="int" name="KBLOCK">   100</i>
   <i type="int" name="NPACO">   256</i>
   <i name="APACO">     16.00000000</i>
  </separator>
  <separator name="symmetry" >
   <i type="int" name="ISYM">     0</i>
   <i name="SYMPREC">      0.00000001</i>
  </separator>
  <separator name="dos" >
   <i type="logical" name="LORBIT"> F  </i>
   <v name="RWIGS">     -1.00000000     -1.00000000     -1.00000000     -1.00000000</v>
   <i type="int" name="NEDOS">   301</i>
   <i name="EMIN">     10.00000000</i>
   <i name="EMAX">    -10.00000000</i>
   <i name="EFERMI">      0.00000000</i>
  </separator>
  <separator name="writing" >
   <i type="int" name="NWRITE">     2</i>
   <i type="logical" name="LWAVE"> F  </i>
   <i type="logical" name="LCHARG"> F  </i>
   <i type="logical" name="LPARD"> F  </i>
   <i type="logical" name="LVTOT"> F  </i>
   <i type="logical" name="LVHAR"> F  </i>
   <i type="logical" name="LELF"> F  </i>
   <i type="logical" name="LOPTICS"> F  </i>
   <v name="STM">      0.00000000      0.00000000      0.00000000      0.00000000      0.00000000      0.00000000      0.00000000</v>
  </separator>
  <separator name="performance" >
   <i type="int" name="NPAR">    40</i>
   <i type="int" name="NSIM">     4</i>
   <i type="int" name="NBLK">    -1</i>
   <i type="logical" name="LPLANE"> F  </i>
   <i type="logical" name="LSCALAPACK"> T  </i>
   <i type="logical" name="LSCAAWARE"> F  </i>
   <i type="logical" name="LSCALU"> F  </i>
   <i type="logical" name="LASYNC"> F  </i>
   <i type="logical" name="LORBITALREAL"> F  </i>
  </separator>
  <separator name="miscellaneous" >
   <i type="int" name="IDIOT">     3</i>
   <i type="logical" name="LMUSIC"> F  </i>
   <v name="POMASS">     50.94100000     95.94000000    183.85000000     32.06600000</v>
   <v name="DARWINR">      0.00000000      0.00000000      0.00000000      0.00000000</v>
   <v name="DARWINV">      1.00000000      1.00000000      1.00000000      1.00000000</v>
   <i type="logical" name="LCORR"> T  </i>
  </separator>
  <i type="logical" name="GGA_COMPAT"> T  </i>
  <i type="logical" name="LBERRY"> F  </i>
  <i type="int" name="ICORELEVEL">     0</i>
  <i type="logical" name="LDAU"> F  </i>
  <i type="int" name="I_CONSTRAINED_M">     0</i>
  <separator name="electronic exchange-correlation" >
   <i type="string" name="GGA">--</i>
   <i type="int" name="VOSKOWN">     0</i>
   <i type="logical" name="LHFCALC"> F  </i>
   <i type="string" name="PRECFOCK"></i>
   <i type="logical" name="LSYMGRAD"> F  </i>
   <i type="logical" name="LHFONE"> F  </i>
   <i type="logical" name="LRHFCALC"> F  </i>
   <i type="logical" name="LTHOMAS"> F  </i>
   <i type="logical" name="LMODELHF"> F  </i>
   <i name="ENCUT4O">     -1.00000000</i>
   <i type="int" name="EXXOEP">     0</i>
   <i type="int" name="FOURORBIT">     0</i>
   <i name="AEXX">      0.00000000</i>
   <i name="HFALPHA">      0.00000000</i>
   <i name="MCALPHA">      0.00000000</i>
   <i name="ALDAX">      1.00000000</i>
   <i name="AGGAX">      1.00000000</i>
   <i name="ALDAC">      1.00000000</i>
   <i name="AGGAC">      1.00000000</i>
   <i type="int" name="NKREDX">     1</i>
   <i type="int" name="NKREDY">     1</i>
   <i type="int" name="NKREDZ">     1</i>
   <i type="logical" name="SHIFTRED"> F  </i>
   <i type="logical" name="ODDONLY"> F  </i>
   <i type="logical" name="EVENONLY"> F  </i>
   <i type="int" name="LMAXFOCK">     0</i>
   <i type="int" name="NMAXFOCKAE">     0</i>
   <i type="logical" name="LFOCKAEDFT"> F  </i>
   <i name="HFSCREEN">      0.00000000</i>
   <i name="HFSCREENC">      0.00000000</i>
   <i type="int" name="NBANDSGWLOW">     0</i>
  </separator>
  <separator name="vdW DFT" >
   <i type="logical" name="LUSE_VDW"> F  </i>
   <i name="Zab_VDW">     -0.84910000</i>
   <i name="PARAM1">      0.12340000</i>
   <i name="PARAM2">      1.00000000</i>
   <i name="PARAM3">      0.00000000</i>
  </separator>
  <separator name="model GW" >
   <i type="int" name="MODEL_GW">     0</i>
   <i name="MODEL_EPS0">     58.26239943</i>
   <i name="MODEL_ALPHA">      1.00000000</i>
  </separator>
  <separator name="linear response parameters" >
   <i type="logical" name="LEPSILON"> F  </i>
   <i type="logical" name="LRPA"> F  </i>
   <i type="logical" name="LNABLA"> F  </i>
   <i type="logical" name="LVEL"> F  </i>
   <i type="int" name="KINTER">     0</i>
   <i name="CSHIFT">      0.10000000</i>
   <i name="OMEGAMAX">     -1.00000000</i>
   <i name="DEG_THRESHOLD">      0.00200000</i>
  </separator>
  <separator name="orbital magnetization" >
   <i type="logical" name="NUCIND"> F  </i>
   <v name="MAGPOS">      0.00000000      0.00000000      0.00000000</v>
   <i type="logical" name="LNICSALL"> T  </i>
   <i type="logical" name="ORBITALMAG"> F  </i>
   <i type="logical" name="LMAGBLOCH"> F  </i>
   <i type="logical" name="LCHIMAG"> F  </i>
   <i type="logical" name="LGAUGE"> T  </i>
   <i type="int" name="MAGATOM">     0</i>
   <v name="MAGDIPOL">      0.00000000      0.00000000      0.00000000</v>
   <v name="AVECCONST">      0.00000000      0.00000000      0.00000000</v>
  </separator>
  <separator name="response functions" >
   <i type="logical" name="LADDER"> F  </i>
   <i type="logical" name="LFXC"> F  </i>
   <i type="logical" name="LHARTREE"> T  </i>
   <i type="int" name="IBSE">     0</i>
   <v type="int" name="KPOINT">    -1     0     0     0</v>
   <i type="logical" name="LTCTE"> F  </i>
   <i type="logical" name="LTETE"> F  </i>
   <i type="logical" name="LTRIPLET"> F  </i>
   <i type="logical" name="LFXCEPS"> F  </i>
   <i type="logical" name="LFXHEG"> F  </i>
   <i type="int" name="NATURALO">     0</i>
   <i type="logical" name="L2ORDER"> F  </i>
   <i type="logical" name="LUSEW"> F  </i>
   <i name="ENCUTGW">     -2.00000000</i>
   <i name="ENCUTGWSOFT">     -2.00000000</i>
   <i name="ENCUTLF">     -1.00000000</i>
   <i type="int" name="LMAXMP2">    -1</i>
   <i name="SCISSOR">      0.00000000</i>
   <i type="int" name="NOMEGA">     0</i>
   <i type="int" name="NOMEGAR">     0</i>
   <i type="int" name="NBANDSGW">    -1</i>
   <i type="int" name="NBANDSO">    -1</i>
   <i type="int" name="NBANDSV">    -1</i>
   <i type="int" name="NELM">     1</i>
   <i type="int" name="NELMHF">     1</i>
   <i type="int" name="DIM">     3</i>
   <i type="int" name="ANTIRES">     0</i>
   <i name="OMEGAMAX">    -30.00000000</i>
   <i name="OMEGAMIN">    -30.00000000</i>
   <i name="OMEGATL">   -200.00000000</i>
   <i type="int" name="OMEGAGRID">     0</i>
   <i name="CSHIFT">     -0.10000000</i>
   <i type="logical" name="SELFENERGY"> F  </i>
   <i type="logical" name="LSPECTRAL"> F  </i>
   <i type="logical" name="LSPECTRALGW"> F  </i>
   <i type="logical" name="LSINGLES"> F  </i>
   <i type="logical" name="LFERMIGW"> F  </i>
   <i type="logical" name="ODDONLYGW"> F  </i>
   <i type="logical" name="EVENONLYGW"> F  </i>
   <i type="int" name="NKREDLFX">     1</i>
   <i type="int" name="NKREDLFY">     1</i>
   <i type="int" name="NKREDLFZ">     1</i>
   <i type="int" name="MAXMEM">  1800</i>
   <i type="int" name="TELESCOPE">     0</i>
   <i type="int" name="TAUPAR">     1</i>
   <i type="int" name="OMEGAPAR">    -1</i>
   <i name="LAMBDA">      1.00000000</i>
  </separator>
  <separator name="External order field" >
   <i name="OFIELD_KAPPA">      0.00000000</i>
   <v name="OFIELD_K">      0.00000000      0.00000000      0.00000000</v>
   <i name="OFIELD_Q6_NEAR">      0.00000000</i>
   <i name="OFIELD_Q6_FAR">      0.00000000</i>
   <i name="OFIELD_A">      0.00000000</i>
  </separator>
 </parameters>
 <atominfo>
  <atoms>      27 </atoms>
  <types>       4 </types>
  <array name="atoms" >
   <dimension dim="1">ion</dimension>
   <field type="string">element</field>
   <field type="int">atomtype</field>
   <set>
    <rc><c>V </c><c>   1</c></rc>
    <rc><c>V </c><c>   1</c></rc>
    <rc><c>V </c><c>   1</c></rc>
    <rc><c>Mo</c><c>   2</c></rc>
    <rc><c>Mo</c><c>   2</c></rc>
    <rc><c>Mo</c><c>   2</c></rc>
    <rc><c>W </c><c>   3</c></rc>
    <rc><c>W </c><c>   3</c></rc>
    <rc><c>W </c><c>   3</c></rc>
    <rc><c>S </c><c>   4</c></rc>
    <rc><c>S </c><c>   4</c></rc>
    <rc><c>S </c><c>   4</c></rc>
    <rc><c>S </c><c>   4</c></rc>
    <rc><c>S </c><c>   4</c></rc>
    <rc><c>S </c><c>   4</c></rc>
    <rc><c>S </c><c>   4</c></rc>
    <rc><c>S </c><c>   4</c></rc>
    <rc><c>S </c><c>   4</c></rc>
    <rc><c>S </c><c>   4</c></rc>
    <rc><c>S </c><c>   4</c></rc>
    <rc><c>S </c><c>   4</c></rc>
    <rc><c>S </c><c>   4</c></rc>
    <rc><c>S </c><c>   4</c></rc>
    <rc><c>S </c><c>   4</c></rc>
    <rc><c>S </c><c>   4</c></rc>
    <rc><c>S </c><c>   4</c></rc>
    <rc><c>S </c><c>   4</c></rc>
   </set>
  </array>
  <array name="atomtypes" >
   <dimension dim="1">type</dimension>
   <field type="int">atomspertype</field>
   <field type="string">element</field>
   <field>mass</field>
   <field>valence</field>
   <field type="string">pseudopotential</field>
   <set>
    <rc><c>   3</c><c>V </c><c>     50.94100000</c><c>      5.00000000</c><c> PAW_PBE V 08Apr2002                    </c></rc>
    <rc><c>   3</c><c>Mo</c><c>     95.94000000</c><c>      6.00000000</c><c> PAW_PBE Mo 08Apr2002                   </c></rc>
    <rc><c>   3</c><c>W </c><c>    183.85000000</c><c>      6.00000000</c><c> PAW_PBE W 08Apr2002                    </c></rc>
    <rc><c>  18</c><c>S </c><c>     32.06600000</c><c>      6.00000000</c><c>  PAW_PBE S 17Jan2003                   </c></rc>
   </set>
  </array>
 </atominfo>
 <structure name="initialpos" >
  <crystal>
   <varray name="basis" >
    <v>       8.66999996       5.03999989       0.00000000 </v>
    <v>      -8.66999982       5.04000013       0.00000000 </v>
    <v>       0.00000000       0.00000000      30.00000000 </v>
   </varray>
   <i name="volume">   2621.80797419 </i>
   <varray name="rec_basis" >
    <v>       0.05767013       0.09920635       0.00000000 </v>
    <v>      -0.05767013       0.09920635       0.00000000 </v>
    <v>       0.00000000       0.00000000       0.03333333 </v>
   </varray>
  </crystal>
  <varray name="positions" >
   <v>       0.00000000       0.66666669       0.00000000 </v>
   <v>       0.00000000       0.00000000       0.00000000 </v>
   <v>       0.66666669       0.00000000       0.00000000 </v>
   <v>       0.66666669       0.33333334       0.00000000 </v>
   <v>       0.33333334       0.00000000       0.00000000 </v>
   <v>       1.00000000       0.33333334       0.00000000 </v>
   <v>       0.33333334       0.33333334       0.00000000 </v>
   <v>       0.33333334       0.66666669       0.00000000 </v>
   <v>       0.66666669       0.66666669       0.00000000 </v>
   <v>       0.11068511       0.22244981       0.95539999 </v>
   <v>       0.22244981       0.11068511       0.04460000 </v>
   <v>       0.11068511       0.55578315       0.95539999 </v>
   <v>       0.22244981       0.44401845       0.04460000 </v>
   <v>       0.11068511       0.88911647       0.95539999 </v>
   <v>       0.22244981       0.77735180       0.04460000 </v>
   <v>       0.44401845       0.22244981       0.95539999 </v>
   <v>       0.55578315       0.11068511       0.04460000 </v>
   <v>       0.44401845       0.55578315       0.95539999 </v>
   <v>       0.55578315       0.44401845       0.04460000 </v>
   <v>       0.44401845       0.88911647       0.95539999 </v>
   <v>       0.55578315       0.77735180       0.04460000 </v>
   <v>       0.77735180       0.22244981       0.95539999 </v>
   <v>       0.88911647       0.11068511       0.04460000 </v>
   <v>       0.77735180       0.55578315       0.95539999 </v>
   <v>       0.88911647       0.44401845       0.04460000 </v>
   <v>       0.77735180       0.88911647       0.95539999 </v>
   <v>       0.88911647       0.77735180       0.04460000 </v>
  </varray>
 </structure>
 <calculation>
  <scstep>
   <time name="dav">   21.69   21.75</time>
   <time name="total">   21.74   21.80</time>
   <energy>
    <i name="alphaZ">     81.65567618 </i>
    <i name="ewald">  41890.25208822 </i>
    <i name="hartreedc"> -47722.89523260 </i>
    <i name="XCdc">   -242.92705571 </i>
    <i name="pawpsdc">   3467.42045192 </i>
    <i name="pawaedc">  -2871.19716117 </i>
    <i name="eentropy">     -0.53107274 </i>
    <i name="bandstr">   -237.60060309 </i>
    <i name="atom">   6761.44252427 </i>
    <i name="e_fr_energy">   1125.61961527 </i>
    <i name="e_wo_entrp">   1126.15068801 </i>
    <i name="e_0_energy">   1125.88515164 </i>
   </energy>
  </scstep>
  <scstep>
   <time name="dav">   28.06   28.13</time>
   <time name="total">   28.06   28.13</time>
   <energy>
    <i name="e_fr_energy">     -1.91587479 </i>
    <i name="e_wo_entrp">     -1.72082257 </i>
    <i name="e_0_energy">     -1.81834868 </i>
   </energy>
  </scstep>
  <scstep>
   <time name="dav">   27.51   27.58</time>
   <time name="total">   27.51   27.58</time>
   <energy>
    <i name="e_fr_energy">   -199.90876290 </i>
    <i name="e_wo_entrp">   -199.64500094 </i>
    <i name="e_0_energy">   -199.77688192 </i>
   </energy>
  </scstep>
  <scstep>
   <time name="dav">   30.34   30.41</time>
   <time name="total">   30.34   30.42</time>
   <energy>
    <i name="e_fr_energy">   -209.02050590 </i>
    <i name="e_wo_entrp">   -208.72038154 </i>
    <i name="e_0_energy">   -208.87044372 </i>
   </energy>
  </scstep>
  <scstep>
   <time name="dav">   28.68   28.75</time>
   <time name="total">   29.15   29.23</time>
   <energy>
    <i name="e_fr_energy">   -209.32428637 </i>
    <i name="e_wo_entrp">   -209.02701736 </i>
    <i name="e_0_energy">   -209.17565186 </i>
   </energy>
  </scstep>
  <scstep>
   <time name="dav">   31.06   31.14</time>
   <time name="total">   31.56   31.65</time>
   <energy>
    <i name="e_fr_energy">   -236.71993874 </i>
    <i name="e_wo_entrp">   -236.44230045 </i>
    <i name="e_0_energy">   -236.58111960 </i>
   </energy>
  </scstep>
  <scstep>
   <time name="dav">   32.16   32.24</time>
   <time name="total">   32.67   32.75</time>
   <energy>
    <i name="e_fr_energy">   -196.53064346 </i>
    <i name="e_wo_entrp">   -196.21620742 </i>
    <i name="e_0_energy">   -196.37342544 </i>
   </energy>
  </scstep>
  <scstep>
   <time name="dav">   29.52   29.59</time>
   <time name="total">   30.04   30.12</time>
   <energy>
    <i name="e_fr_energy">   -189.39379965 </i>
    <i name="e_wo_entrp">   -189.09748882 </i>
    <i name="e_0_energy">   -189.24564424 </i>
   </energy>
  </scstep>
  <scstep>
   <time name="dav">   32.03   32.11</time>
   <time name="total">   32.56   32.65</time>
   <energy>
    <i name="e_fr_energy">   -188.13348838 </i>
    <i name="e_wo_entrp">   -187.80075452 </i>
    <i name="e_0_energy">   -187.96712145 </i>
   </energy>
  </scstep>
  <scstep>
   <time name="dav">   32.51   32.59</time>
   <time name="total">   33.05   33.14</time>
   <energy>
    <i name="e_fr_energy">   -187.00927605 </i>
    <i name="e_wo_entrp">   -186.66402274 </i>
    <i name="e_0_energy">   -186.83664940 </i>
   </energy>
  </scstep>
  <scstep>
   <time name="dav">   32.54   32.62</time>
   <time name="total">   33.07   33.16</time>
   <energy>
    <i name="e_fr_energy">   -186.97220840 </i>
    <i name="e_wo_entrp">   -186.62129268 </i>
    <i name="e_0_energy">   -186.79675054 </i>
   </energy>
  </scstep>
  <scstep>
   <time name="dav">   30.10   30.17</time>
   <time name="total">   30.64   30.72</time>
   <energy>
    <i name="e_fr_energy">   -187.10380870 </i>
    <i name="e_wo_entrp">   -186.76420120 </i>
    <i name="e_0_energy">   -186.93400495 </i>
   </energy>
  </scstep>
  <scstep>
   <time name="dav">   30.91   30.99</time>
   <time name="total">   31.45   31.54</time>
   <energy>
    <i name="e_fr_energy">   -186.88736064 </i>
    <i name="e_wo_entrp">   -186.55212769 </i>
    <i name="e_0_energy">   -186.71974416 </i>
   </energy>
  </scstep>
  <scstep>
   <time name="dav">   32.46   32.53</time>
   <time name="total">   33.00   33.09</time>
   <energy>
    <i name="e_fr_energy">   -186.86278145 </i>
    <i name="e_wo_entrp">   -186.51965104 </i>
    <i name="e_0_energy">   -186.69121624 </i>
   </energy>
  </scstep>
  <scstep>
   <time name="dav">   30.15   30.23</time>
   <time name="total">   30.70   30.78</time>
   <energy>
    <i name="e_fr_energy">   -186.83960211 </i>
    <i name="e_wo_entrp">   -186.49327349 </i>
    <i name="e_0_energy">   -186.66643780 </i>
   </energy>
  </scstep>
  <scstep>
   <time name="dav">   29.06   29.13</time>
   <time name="total">   29.61   29.69</time>
   <energy>
    <i name="e_fr_energy">   -186.83272805 </i>
    <i name="e_wo_entrp">   -186.48654408 </i>
    <i name="e_0_energy">   -186.65963606 </i>
   </energy>
  </scstep>
  <scstep>
   <time name="dav">   31.35   31.42</time>
   <time name="total">   31.89   31.98</time>
   <energy>
    <i name="e_fr_energy">   -186.83088739 </i>
    <i name="e_wo_entrp">   -186.48674438 </i>
    <i name="e_0_energy">   -186.65881588 </i>
   </energy>
  </scstep>
  <scstep>
   <time name="dav">   29.65   29.73</time>
   <time name="total">   30.20   30.28</time>
   <energy>
    <i name="e_fr_energy">   -186.83021171 </i>
    <i name="e_wo_entrp">   -186.48619340 </i>
    <i name="e_0_energy">   -186.65820256 </i>
   </energy>
  </scstep>
  <scstep>
   <time name="dav">   27.94   28.00</time>
   <time name="total">   28.47   28.55</time>
   <energy>
    <i name="e_fr_energy">   -186.82979596 </i>
    <i name="e_wo_entrp">   -186.48524602 </i>
    <i name="e_0_energy">   -186.65752099 </i>
   </energy>
  </scstep>
  <scstep>
   <time name="dav">   23.88   23.94</time>
   <time name="total">   24.42   24.49</time>
   <energy>
    <i name="e_fr_energy">   -186.83054271 </i>
    <i name="e_wo_entrp">   -186.48623046 </i>
    <i name="e_0_energy">   -186.65838658 </i>
   </energy>
  </scstep>
  <scstep>
   <time name="dav">   21.39   21.44</time>
   <time name="total">   21.93   22.00</time>
   <energy>
    <i name="e_fr_energy">   -186.83112585 </i>
    <i name="e_wo_entrp">   -186.48690526 </i>
    <i name="e_0_energy">   -186.65901555 </i>
   </energy>
  </scstep>
  <scstep>
   <time name="dav">   20.65   20.70</time>
   <time name="total">   21.19   21.25</time>
   <energy>
    <i name="e_fr_energy">   -186.83229775 </i>
    <i name="e_wo_entrp">   -186.48795291 </i>
    <i name="e_0_energy">   -186.66012533 </i>
   </energy>
  </scstep>
  <scstep>
   <time name="dav">   20.49   20.54</time>
   <time name="total">   21.03   21.09</time>
   <energy>
    <i name="e_fr_energy">   -186.83352304 </i>
    <i name="e_wo_entrp">   -186.48927136 </i>
    <i name="e_0_energy">   -186.66139720 </i>
   </energy>
  </scstep>
  <scstep>
   <time name="dav">   18.82   18.87</time>
   <time name="total">   19.37   19.42</time>
   <energy>
    <i name="e_fr_energy">   -186.83412647 </i>
    <i name="e_wo_entrp">   -186.48985997 </i>
    <i name="e_0_energy">   -186.66199322 </i>
   </energy>
  </scstep>
  <scstep>
   <time name="dav">   16.69   16.73</time>
   <time name="total">   17.23   17.28</time>
   <energy>
    <i name="e_fr_energy">   -186.83448327 </i>
    <i name="e_wo_entrp">   -186.49017828 </i>
    <i name="e_0_energy">   -186.66233077 </i>
   </energy>
  </scstep>
  <scstep>
   <time name="dav">   18.90   18.95</time>
   <time name="total">   19.45   19.50</time>
   <energy>
    <i name="e_fr_energy">   -186.83471358 </i>
    <i name="e_wo_entrp">   -186.49042363 </i>
    <i name="e_0_energy">   -186.66256860 </i>
   </energy>
  </scstep>
  <scstep>
   <time name="dav">   19.77   19.82</time>
   <time name="total">   20.32   20.37</time>
   <energy>
    <i name="e_fr_energy">   -186.83481397 </i>
    <i name="e_wo_entrp">   -186.49052369 </i>
    <i name="e_0_energy">   -186.66266883 </i>
   </energy>
  </scstep>
  <scstep>
   <time name="dav">   20.49   20.54</time>
   <time name="total">   20.52   20.58</time>
   <energy>
    <i name="alphaZ">     81.65567618 </i>
    <i name="ewald">  41890.25208822 </i>
    <i name="hartreedc"> -47832.90858149 </i>
    <i name="XCdc">   -231.61206838 </i>
    <i name="pawpsdc">   4192.02565021 </i>
    <i name="pawaedc">  -3610.02677166 </i>
    <i name="eentropy">     -0.34428858 </i>
    <i name="bandstr">  -1437.31908558 </i>
    <i name="atom">   6761.44252427 </i>
    <i name="e_fr_energy">   -186.83485681 </i>
    <i name="e_wo_entrp">   -186.49056823 </i>
    <i name="e_0_energy">   -186.66271252 </i>
   </energy>
  </scstep>
  <structure>
   <crystal>
    <varray name="basis" >
     <v>       8.66999996       5.03999989       0.00000000 </v>
     <v>      -8.66999982       5.04000013       0.00000000 </v>
     <v>       0.00000000       0.00000000      30.00000000 </v>
    </varray>
    <i name="volume">   2621.80797419 </i>
    <varray name="rec_basis" >
     <v>       0.05767013       0.09920635       0.00000000 </v>
     <v>      -0.05767013       0.09920635       0.00000000 </v>
     <v>       0.00000000       0.00000000       0.03333333 </v>
    </varray>
   </crystal>
   <varray name="positions" >
    <v>       0.00000000       0.66666669       0.00000000 </v>
    <v>       0.00000000       0.00000000       0.00000000 </v>
    <v>       0.66666669       0.00000000       0.00000000 </v>
    <v>       0.66666669       0.33333334       0.00000000 </v>
    <v>       0.33333334       0.00000000       0.00000000 </v>
    <v>       1.00000000       0.33333334       0.00000000 </v>
    <v>       0.33333334       0.33333334       0.00000000 </v>
    <v>       0.33333334       0.66666669       0.00000000 </v>
    <v>       0.66666669       0.66666669       0.00000000 </v>
    <v>       0.11068511       0.22244981       0.95539999 </v>
    <v>       0.22244981       0.11068511       0.04460000 </v>
    <v>       0.11068511       0.55578315       0.95539999 </v>
    <v>       0.22244981       0.44401845       0.04460000 </v>
    <v>       0.11068511       0.88911647       0.95539999 </v>
    <v>       0.22244981       0.77735180       0.04460000 </v>
    <v>       0.44401845       0.22244981       0.95539999 </v>
    <v>       0.55578315       0.11068511       0.04460000 </v>
    <v>       0.44401845       0.55578315       0.95539999 </v>
    <v>       0.55578315       0.44401845       0.04460000 </v>
    <v>       0.44401845       0.88911647       0.95539999 </v>
    <v>       0.55578315       0.77735180       0.04460000 </v>
    <v>       0.77735180       0.22244981       0.95539999 </v>
    <v>       0.88911647       0.11068511       0.04460000 </v>
    <v>       0.77735180       0.55578315       0.95539999 </v>
    <v>       0.88911647       0.44401845       0.04460000 </v>
    <v>       0.77735180       0.88911647       0.95539999 </v>
    <v>       0.88911647       0.77735180       0.04460000 </v>
   </varray>
  </structure>
  <varray name="forces" >
   <v>       0.14917718      -0.07619010      -0.12032738 </v>
   <v>       0.00908218       0.15088973      -0.02630682 </v>
   <v>      -0.36357460       0.28819739       0.11335935 </v>
   <v>       0.26960191      -0.13401884       0.13268518 </v>
   <v>      -0.01354378       0.22232987      -0.06502481 </v>
   <v>      -0.25854540      -0.19528942       0.07958299 </v>
   <v>       0.29708557      -0.20248106      -0.00127331 </v>
   <v>      -0.33294310      -0.12389310      -0.11078201 </v>
   <v>       0.27335763      -0.02085368      -0.02480771 </v>
   <v>       0.61067433      -0.53075950      -2.14412751 </v>
   <v>      -0.62263663      -0.53409055       2.17583445 </v>
   <v>      -0.68795914       0.17126276      -2.16527932 </v>
   <v>      -0.03290151       0.13270616       2.85810288 </v>
   <v>      -0.31401785      -0.67665554      -1.39992043 </v>
   <v>      -0.37869625      -0.68934224       2.15733176 </v>
   <v>      -0.06025609       0.00099055      -2.89301065 </v>
   <v>       0.77066527       0.01864063       2.16294147 </v>
   <v>       0.11126028      -0.01643103      -2.92724585 </v>
   <v>      -0.26340644      -0.00915403       2.91495072 </v>
   <v>       0.62169198       0.53671494      -2.13898251 </v>
   <v>      -0.46903831       0.60167965       2.15684327 </v>
   <v>       0.53824059      -0.68702587      -2.17680763 </v>
   <v>       0.30703839      -0.68267423       1.42602211 </v>
   <v>       0.36426918       0.73531429      -2.16065476 </v>
   <v>      -0.52198873       0.67901574       2.14858007 </v>
   <v>      -0.23362687       0.51940749      -1.38885631 </v>
   <v>       0.23099020       0.52170999       1.41717275 </v>
  </varray>
  <varray name="stress" >
   <v>       7.30349486      -0.03682034      -1.57522303 </v>
   <v>      -0.03682032       4.43304098      -0.01169976 </v>
   <v>      -1.57522321      -0.01169966      30.31881219 </v>
  </varray>
  <energy>
   <i name="e_fr_energy">   -186.83485681 </i>
   <i name="e_wo_entrp">   -186.66271252 </i>
   <i name="e_0_energy">     -0.34428858 </i>
  </energy>
  <time name="totalsc">  803.48  805.63</time>
 </calculation>
 <calculation>
  <scstep>
   <time name="dav">   21.64   21.69</time>
   <time name="total">   22.18   22.24</time>
   <energy>
    <i name="alphaZ">     78.92542043 </i>
    <i name="ewald">  39381.54358566 </i>
    <i name="hartreedc"> -45339.00051267 </i>
    <i name="XCdc">   -239.06828322 </i>
    <i name="pawpsdc">   4192.02468559 </i>
    <i name="pawaedc">  -3610.02579034 </i>
    <i name="eentropy">     -0.28739725 </i>
    <i name="bandstr">  -1413.00583366 </i>
    <i name="atom">   6761.44252427 </i>
    <i name="e_fr_energy">   -187.45160119 </i>
    <i name="e_wo_entrp">   -187.16420394 </i>
    <i name="e_0_energy">   -187.30790257 </i>
   </energy>
  </scstep>
  <scstep>
   <time name="dav">   30.24   30.31</time>
   <time name="total">   30.78   30.87</time>
   <energy>
    <i name="e_fr_energy">   -189.14911760 </i>
    <i name="e_wo_entrp">   -188.84140692 </i>
    <i name="e_0_energy">   -188.99526226 </i>
   </energy>
  </scstep>
  <scstep>
   <time name="dav">   30.58   30.65</time>
   <time name="total">   31.12   31.21</time>
   <energy>
    <i name="e_fr_energy">   -189.40211704 </i>
    <i name="e_wo_entrp">   -189.12279346 </i>
    <i name="e_0_energy">   -189.26245525 </i>
   </energy>
  </scstep>
  <scstep>
   <time name="dav">   31.09   31.16</time>
   <time name="total">   31.64   31.72</time>
   <energy>
    <i name="e_fr_energy">   -188.71918246 </i>
    <i name="e_wo_entrp">   -188.43264850 </i>
    <i name="e_0_energy">   -188.57591548 </i>
   </energy>
  </scstep>
  <scstep>
   <time name="dav">   27.02   27.09</time>
   <time name="total">   27.57   27.64</time>
   <energy>
    <i name="e_fr_energy">   -188.72587462 </i>
    <i name="e_wo_entrp">   -188.43972225 </i>
    <i name="e_0_energy">   -188.58279843 </i>
   </energy>
  </scstep>
  <scstep>
   <time name="dav">   31.44   31.52</time>
   <time name="total">   31.99   32.07</time>
   <energy>
    <i name="e_fr_energy">   -188.69603068 </i>
    <i name="e_wo_entrp">   -188.40576301 </i>
    <i name="e_0_energy">   -188.55089684 </i>
   </energy>
  </scstep>
  <scstep>
   <time name="dav">   30.28   30.35</time>
   <time name="total">   30.83   30.91</time>
   <energy>
    <i name="e_fr_energy">   -188.66541360 </i>
    <i name="e_wo_entrp">   -188.38105780 </i>
    <i name="e_0_energy">   -188.52323570 </i>
   </energy>
  </scstep>
  <scstep>
   <time name="dav">   31.13   31.21</time>
   <time name="total">   31.68   31.77</time>
   <energy>
    <i name="e_fr_energy">   -188.63035744 </i>
    <i name="e_wo_entrp">   -188.34511977 </i>
    <i name="e_0_energy">   -188.48773860 </i>
   </energy>
  </scstep>
  <scstep>
   <time name="dav">   30.38   30.46</time>
   <time name="total">   30.93   31.01</time>
   <energy>
    <i name="e_fr_energy">   -188.62982390 </i>
    <i name="e_wo_entrp">   -188.34551100 </i>
    <i name="e_0_energy">   -188.48766745 </i>
   </energy>
  </scstep>
  <scstep>
   <time name="dav">   33.06   33.14</time>
   <time name="total">   33.60   33.69</time>
   <energy>
    <i name="e_fr_energy">   -188.62891450 </i>
    <i name="e_wo_entrp">   -188.34433336 </i>
    <i name="e_0_energy">   -188.48662393 </i>
   </energy>
  </scstep>
  <scstep>
   <time name="dav">   31.56   31.63</time>
   <time name="total">   32.10   32.19</time>
   <energy>
    <i name="e_fr_energy">   -188.62817552 </i>
    <i name="e_wo_entrp">   -188.34380917 </i>
    <i name="e_0_energy">   -188.48599235 </i>
   </energy>
  </scstep>
  <scstep>
   <time name="dav">   27.76   27.83</time>
   <time name="total">   27.80   27.88</time>
   <energy>
    <i name="alphaZ">     78.92542043 </i>
    <i name="ewald">  39381.54358566 </i>
    <i name="hartreedc"> -45350.01088937 </i>
    <i name="XCdc">   -237.97506431 </i>
    <i name="pawpsdc">   3952.11683477 </i>
    <i name="pawaedc">  -3366.63861861 </i>
    <i name="eentropy">     -0.28396742 </i>
    <i name="bandstr">  -1407.74808614 </i>
    <i name="atom">   6761.44252427 </i>
    <i name="e_fr_energy">   -188.62826073 </i>
    <i name="e_wo_entrp">   -188.34429331 </i>
    <i name="e_0_energy">   -188.48627702 </i>
   </energy>
  </scstep>
  <structure>
   <crystal>
    <varray name="basis" >
     <v>       8.85460048       5.10439310       0.00000000 </v>
     <v>      -8.85568553       5.10626012       0.00000000 </v>
     <v>       0.00000000       0.00000000      30.00000000 </v>
    </varray>
    <i name="volume">   2712.50380132 </i>
    <varray name="rec_basis" >
     <v>       0.05647469       0.09794293       0.00000000 </v>
     <v>      -0.05645404       0.09793093       0.00000000 </v>
     <v>       0.00000000       0.00000000       0.03333333 </v>
    </varray>
   </crystal>
   <varray name="positions" >
    <v>       0.00005039       0.66588701      -0.00019350 </v>
    <v>       0.00074742       0.00069689      -0.00004230 </v>
    <v>       0.66703447       0.00239083       0.00018229 </v>
    <v>       0.66677535       0.33194186       0.00021337 </v>
    <v>       0.33435973       0.00110175      -0.00010457 </v>
    <v>       0.99834603       0.33311801       0.00012798 </v>
    <v>       0.33319081       0.33153773      -0.00000205 </v>
    <v>       0.33181409       0.66700004      -0.00017815 </v>
    <v>       0.66732741       0.66580636      -0.00003989 </v>
    <v>       0.10984390       0.21821061       0.95195204 </v>
    <v>       0.21816139       0.10986124       0.04809893 </v>
    <v>       0.10959076       0.55851682       0.95191803 </v>
    <v>       0.22299340       0.44474512       0.04919608 </v>
    <v>       0.10657300       0.88675166       0.95314879 </v>
    <v>       0.21809704       0.77510621       0.04806918 </v>
    <v>       0.44385555       0.22262219       0.95074777 </v>
    <v>       0.55801648       0.10863021       0.04807820 </v>
    <v>       0.44424936       0.55539497       0.95069272 </v>
    <v>       0.55500650       0.44470748       0.04928750 </v>
    <v>       0.44831681       0.88995553       0.95196032 </v>
    <v>       0.55735784       0.78153636       0.04806839 </v>
    <v>       0.77556118       0.21766425       0.95189949 </v>
    <v>       0.88670343       0.10656362       0.04689317 </v>
    <v>       0.78188445       0.55828890       0.95192547 </v>
    <v>       0.89091396       0.44872046       0.04805511 </v>
    <v>       0.77918768       0.89225233       0.95316659 </v>
    <v>       0.89225601       0.77920604       0.04687894 </v>
   </varray>
  </structure>
  <varray name="forces" >
   <v>       0.20450215      -0.06931882      -0.03689118 </v>
   <v>       0.00791734       0.20240489      -0.09004584 </v>
   <v>      -0.35635705       0.25065633       0.04240792 </v>
   <v>       0.08648926      -0.22530945       0.04456065 </v>
   <v>      -0.05433246       0.36628453      -0.07559048 </v>
   <v>      -0.23819065      -0.01522386       0.08822148 </v>
   <v>       0.29190007      -0.01340416      -0.01236102 </v>
   <v>      -0.16400247      -0.18099275       0.05343716 </v>
   <v>       0.18270583      -0.28740033      -0.01406795 </v>
   <v>       0.07064508       0.03732710       0.05245394 </v>
   <v>      -0.07211851       0.03448589       0.05832508 </v>
   <v>      -0.01268202       0.09692518      -0.12474087 </v>
   <v>       0.07648586       0.12138177      -0.11059122 </v>
   <v>      -0.01423063      -0.03643388       0.10882114 </v>
   <v>       0.08800851      -0.05053419      -0.06626862 </v>
   <v>      -0.12547173       0.02055403      -0.13681852 </v>
   <v>       0.07657193       0.00458995       0.21898877 </v>
   <v>      -0.02206474      -0.02342481       0.10298727 </v>
   <v>      -0.09272367      -0.00640995       0.05359862 </v>
   <v>       0.09594674      -0.03852732       0.02493360 </v>
   <v>       0.04976440      -0.05230097      -0.22285925 </v>
   <v>       0.03952553      -0.07058126      -0.11650032 </v>
   <v>       0.00274881      -0.05486600      -0.03257192 </v>
   <v>      -0.08825040       0.05839510       0.01598163 </v>
   <v>      -0.03901932       0.07177797       0.08369755 </v>
   <v>       0.06057800      -0.07318818       0.23162797 </v>
   <v>      -0.05434588      -0.06686683      -0.14073561 </v>
  </varray>
  <varray name="stress" >
   <v>     -19.93329453       0.01328134       0.02891155 </v>
   <v>       0.01328126     -19.52871985       0.03034929 </v>
   <v>       0.02891153       0.03034946      -1.77446710 </v>
  </varray>
  <energy>
   <i name="e_fr_energy">   -188.62826073 </i>
   <i name="e_wo_entrp">   -188.48627702 </i>
   <i name="e_0_energy">     -0.28396742 </i>
  </energy>
  <time name="totalsc">  404.36  405.42</time>
 </calculation>
 <calculation>
  <scstep>
   <time name="dav">   23.93   23.99</time>
   <time name="total">   24.47   24.53</time>
   <energy>
    <i name="alphaZ">     82.35466822 </i>
    <i name="ewald">  41307.27170719 </i>
    <i name="hartreedc"> -47306.31764477 </i>
    <i name="XCdc">   -233.85094323 </i>
    <i name="pawpsdc">   3950.31247981 </i>
    <i name="pawaedc">  -3364.81424864 </i>
    <i name="eentropy">     -0.23597018 </i>
    <i name="bandstr">  -1386.70430031 </i>
    <i name="atom">   6761.44252427 </i>
    <i name="e_fr_energy">   -190.54172765 </i>
    <i name="e_wo_entrp">   -190.30575747 </i>
    <i name="e_0_energy">   -190.42374256 </i>
   </energy>
  </scstep>
  <scstep>
   <time name="dav">   28.33   28.40</time>
   <time name="total">   28.86   28.94</time>
   <energy>
    <i name="e_fr_energy">   -190.56461250 </i>
    <i name="e_wo_entrp">   -190.32668454 </i>
    <i name="e_0_energy">   -190.44564852 </i>
   </energy>
  </scstep>
  <scstep>
   <time name="dav">   30.22   30.29</time>
   <time name="total">   30.75   30.83</time>
   <energy>
    <i name="e_fr_energy">   -190.00767096 </i>
    <i name="e_wo_entrp">   -189.76025628 </i>
    <i name="e_0_energy">   -189.88396362 </i>
   </energy>
  </scstep>
  <scstep>
   <time name="dav">   31.10   31.17</time>
   <time name="total">   31.64   31.72</time>
   <energy>
    <i name="e_fr_energy">   -189.80847741 </i>
    <i name="e_wo_entrp">   -189.57218066 </i>
    <i name="e_0_energy">   -189.69032904 </i>
   </energy>
  </scstep>
  <scstep>
   <time name="dav">   28.30   28.37</time>
   <time name="total">   28.84   28.91</time>
   <energy>
    <i name="e_fr_energy">   -189.73308206 </i>
    <i name="e_wo_entrp">   -189.49057473 </i>
    <i name="e_0_energy">   -189.61182839 </i>
   </energy>
  </scstep>
  <scstep>
   <time name="dav">   29.54   29.61</time>
   <time name="total">   30.08   30.16</time>
   <energy>
    <i name="e_fr_energy">   -189.71220658 </i>
    <i name="e_wo_entrp">   -189.47379595 </i>
    <i name="e_0_energy">   -189.59300127 </i>
   </energy>
  </scstep>
  <scstep>
   <time name="dav">   31.01   31.09</time>
   <time name="total">   31.55   31.63</time>
   <energy>
    <i name="e_fr_energy">   -189.70479215 </i>
    <i name="e_wo_entrp">   -189.46580997 </i>
    <i name="e_0_energy">   -189.58530106 </i>
   </energy>
  </scstep>
  <scstep>
   <time name="dav">   27.59   27.65</time>
   <time name="total">   28.13   28.20</time>
   <energy>
    <i name="e_fr_energy">   -189.70487217 </i>
    <i name="e_wo_entrp">   -189.46619364 </i>
    <i name="e_0_energy">   -189.58553290 </i>
   </energy>
  </scstep>
  <scstep>
   <time name="dav">   27.99   28.06</time>
   <time name="total">   28.53   28.60</time>
   <energy>
    <i name="e_fr_energy">   -189.70507255 </i>
    <i name="e_wo_entrp">   -189.46609745 </i>
    <i name="e_0_energy">   -189.58558500 </i>
   </energy>
  </scstep>
  <scstep>
   <time name="dav">   26.12   26.18</time>
   <time name="total">   26.66   26.73</time>
   <energy>
    <i name="e_fr_energy">   -189.70533810 </i>
    <i name="e_wo_entrp">   -189.46646846 </i>
    <i name="e_0_energy">   -189.58590328 </i>
   </energy>
  </scstep>
  <scstep>
   <time name="dav">   24.56   24.62</time>
   <time name="total">   25.10   25.16</time>
   <energy>
    <i name="e_fr_energy">   -189.70485529 </i>
    <i name="e_wo_entrp">   -189.46593521 </i>
    <i name="e_0_energy">   -189.58539525 </i>
   </energy>
  </scstep>
  <scstep>
   <time name="dav">   18.64   18.68</time>
   <time name="total">   18.67   18.73</time>
   <energy>
    <i name="alphaZ">     82.35466822 </i>
    <i name="ewald">  41307.27170719 </i>
    <i name="hartreedc"> -47279.65054984 </i>
    <i name="XCdc">   -235.24725537 </i>
    <i name="pawpsdc">   4038.78975339 </i>
    <i name="pawaedc">  -3454.48797055 </i>
    <i name="eentropy">     -0.23884041 </i>
    <i name="bandstr">  -1409.93892207 </i>
    <i name="atom">   6761.44252427 </i>
    <i name="e_fr_energy">   -189.70488518 </i>
    <i name="e_wo_entrp">   -189.46604477 </i>
    <i name="e_0_energy">   -189.58546497 </i>
   </energy>
  </scstep>
  <structure>
   <crystal>
    <varray name="basis" >
     <v>       8.66644997       4.99821635       0.00000000 </v>
     <v>      -8.66736734       4.99979366       0.00000000 </v>
     <v>       0.00000000       0.00000000      30.00000000 </v>
    </varray>
    <i name="volume">   2599.55516262 </i>
    <varray name="rec_basis" >
     <v>       0.05769980       0.10002520       0.00000000 </v>
     <v>      -0.05768160       0.10001461       0.00000000 </v>
     <v>       0.00000000       0.00000000       0.03333333 </v>
    </varray>
   </crystal>
   <varray name="positions" >
    <v>       0.00013134       0.66557521      -0.00021441 </v>
    <v>       0.00109218       0.00102639      -0.00009335 </v>
    <v>       0.66710972       0.00315044       0.00020633 </v>
    <v>       0.66648312       0.33148356       0.00023863 </v>
    <v>       0.33491767       0.00176396      -0.00014742 </v>
    <v>       0.99809190       0.33332134       0.00017799 </v>
    <v>       0.33344885       0.33123515      -0.00000906 </v>
    <v>       0.33135509       0.66685605      -0.00014785 </v>
    <v>       0.66702416       0.66515227      -0.00004787 </v>
    <v>       0.10997393       0.21820495       0.95198178 </v>
    <v>       0.21814957       0.10998792       0.04813200 </v>
    <v>       0.10974003       0.55869043       0.95184731 </v>
    <v>       0.22326905       0.44487385       0.04913339 </v>
    <v>       0.10649865       0.88670464       0.95321048 </v>
    <v>       0.21809739       0.77493755       0.04803161 </v>
    <v>       0.44376928       0.22277689       0.95067021 </v>
    <v>       0.55809767       0.10856434       0.04820234 </v>
    <v>       0.44418915       0.55537714       0.95075110 </v>
    <v>       0.55490677       0.44478583       0.04931788 </v>
    <v>       0.44834478       0.88979924       0.95197445 </v>
    <v>       0.55731852       0.78140147       0.04794205 </v>
    <v>       0.77548157       0.21750874       0.95183345 </v>
    <v>       0.88661468       0.10646960       0.04687470 </v>
    <v>       0.78189696       0.55847088       0.95193453 </v>
    <v>       0.89099605       0.44887747       0.04810255 </v>
    <v>       0.77912395       0.89207227       0.95329790 </v>
    <v>       0.89209243       0.77914685       0.04679915 </v>
   </varray>
  </structure>
  <varray name="forces" >
   <v>       0.24495427      -0.08221965      -0.01016800 </v>
   <v>       0.01192403       0.22403268      -0.08492246 </v>
   <v>      -0.36640725       0.21864846       0.01103439 </v>
   <v>       0.01210882      -0.25033856       0.01117085 </v>
   <v>      -0.06230176       0.40023122      -0.05322691 </v>
   <v>      -0.23457664       0.05413989       0.05968666 </v>
   <v>       0.28458125       0.07009887      -0.00903346 </v>
   <v>      -0.09740228      -0.20863867       0.07644371 </v>
   <v>       0.15694427      -0.38088998      -0.00926637 </v>
   <v>       0.05256939      -0.08972063      -0.43351723 </v>
   <v>      -0.06013878      -0.10484258       0.56637344 </v>
   <v>      -0.12572123       0.01330357      -0.64398914 </v>
   <v>       0.04646034       0.05376913       0.42866051 </v>
   <v>      -0.04516849      -0.09695595      -0.32964592 </v>
   <v>      -0.05001854      -0.10127622       0.42023816 </v>
   <v>      -0.03549604       0.03372715      -0.70357572 </v>
   <v>       0.14577278      -0.00033560       0.73434213 </v>
   <v>      -0.02350155      -0.03237706      -0.45962272 </v>
   <v>      -0.01085388      -0.01116547       0.62516782 </v>
   <v>       0.09777234       0.09897149      -0.47083377 </v>
   <v>      -0.02099705       0.07272280       0.26724628 </v>
   <v>       0.07511541      -0.12795941      -0.60191588 </v>
   <v>       0.04632015      -0.11672726       0.41873153 </v>
   <v>       0.04555176       0.10690098      -0.48395892 </v>
   <v>      -0.09291084       0.13774108       0.57647549 </v>
   <v>      -0.02128467       0.05168802      -0.20939427 </v>
   <v>       0.02670420       0.06747171       0.30749978 </v>
  </varray>
  <varray name="stress" >
   <v>     -10.12956975       0.01380082       0.00535807 </v>
   <v>       0.01380077      -9.81227253       0.03625411 </v>
   <v>       0.00535798       0.03625391       6.51284554 </v>
  </varray>
  <energy>
   <i name="e_fr_energy">   -189.70488518 </i>
   <i name="e_wo_entrp">   -189.58546497 </i>
   <i name="e_0_energy">     -0.23884041 </i>
  </energy>
  <time name="totalsc">  375.34  376.34</time>
 </calculation>
 <calculation>
  <scstep>
   <time name="dav">   21.65   21.70</time>
   <time name="total">   22.17   22.22</time>
   <energy>
    <i name="alphaZ">     85.81026598 </i>
    <i name="ewald">  42826.34810634 </i>
    <i name="hartreedc"> -48843.05726542 </i>
    <i name="XCdc">   -232.98267818 </i>
    <i name="pawpsdc">   4038.82196549 </i>
    <i name="pawaedc">  -3454.51767171 </i>
    <i name="eentropy">     -0.19388204 </i>
    <i name="bandstr">  -1372.88925870 </i>
    <i name="atom">   6761.44252427 </i>
    <i name="e_fr_energy">   -191.21789396 </i>
    <i name="e_wo_entrp">   -191.02401192 </i>
    <i name="e_0_energy">   -191.12095294 </i>
   </energy>
  </scstep>
  <scstep>
   <time name="dav">   32.87   32.95</time>
   <time name="total">   33.39   33.47</time>
   <energy>
    <i name="e_fr_energy">   -191.16333359 </i>
    <i name="e_wo_entrp">   -190.96224277 </i>
    <i name="e_0_energy">   -191.06278818 </i>
   </energy>
  </scstep>
  <scstep>
   <time name="dav">   29.57   29.64</time>
   <time name="total">   30.09   30.17</time>
   <energy>
    <i name="e_fr_energy">   -191.08476425 </i>
    <i name="e_wo_entrp">   -190.87340286 </i>
    <i name="e_0_energy">   -190.97908355 </i>
   </energy>
  </scstep>
  <scstep>
   <time name="dav">   31.73   31.81</time>
   <time name="total">   32.26   32.34</time>
   <energy>
    <i name="e_fr_energy">   -190.76584093 </i>
    <i name="e_wo_entrp">   -190.56596314 </i>
    <i name="e_0_energy">   -190.66590203 </i>
   </energy>
  </scstep>
  <scstep>
   <time name="dav">   29.98   30.06</time>
   <time name="total">   30.50   30.59</time>
   <energy>
    <i name="e_fr_energy">   -190.75573718 </i>
    <i name="e_wo_entrp">   -190.55863815 </i>
    <i name="e_0_energy">   -190.65718767 </i>
   </energy>
  </scstep>
  <scstep>
   <time name="dav">   30.05   30.13</time>
   <time name="total">   30.58   30.66</time>
   <energy>
    <i name="e_fr_energy">   -190.64239762 </i>
    <i name="e_wo_entrp">   -190.44099170 </i>
    <i name="e_0_energy">   -190.54169466 </i>
   </energy>
  </scstep>
  <scstep>
   <time name="dav">   30.67   30.74</time>
   <time name="total">   31.19   31.27</time>
   <energy>
    <i name="e_fr_energy">   -190.63682439 </i>
    <i name="e_wo_entrp">   -190.43734058 </i>
    <i name="e_0_energy">   -190.53708248 </i>
   </energy>
  </scstep>
  <scstep>
   <time name="dav">   28.40   28.47</time>
   <time name="total">   28.93   29.00</time>
   <energy>
    <i name="e_fr_energy">   -190.63566326 </i>
    <i name="e_wo_entrp">   -190.43600590 </i>
    <i name="e_0_energy">   -190.53583458 </i>
   </energy>
  </scstep>
  <scstep>
   <time name="dav">   28.97   29.04</time>
   <time name="total">   29.49   29.57</time>
   <energy>
    <i name="e_fr_energy">   -190.63239656 </i>
    <i name="e_wo_entrp">   -190.43270693 </i>
    <i name="e_0_energy">   -190.53255174 </i>
   </energy>
  </scstep>
  <scstep>
   <time name="dav">   25.66   25.72</time>
   <time name="total">   26.19   26.26</time>
   <energy>
    <i name="e_fr_energy">   -190.63275981 </i>
    <i name="e_wo_entrp">   -190.43289308 </i>
    <i name="e_0_energy">   -190.53282644 </i>
   </energy>
  </scstep>
  <scstep>
   <time name="dav">   27.06   27.13</time>
   <time name="total">   27.58   27.65</time>
   <energy>
    <i name="e_fr_energy">   -190.63256494 </i>
    <i name="e_wo_entrp">   -190.43283184 </i>
    <i name="e_0_energy">   -190.53269839 </i>
   </energy>
  </scstep>
  <scstep>
   <time name="dav">   19.68   19.73</time>
   <time name="total">   19.72   19.77</time>
   <energy>
    <i name="alphaZ">     85.81026598 </i>
    <i name="ewald">  42826.34810634 </i>
    <i name="hartreedc"> -48814.61745953 </i>
    <i name="XCdc">   -234.31502227 </i>
    <i name="pawpsdc">   4062.39333300 </i>
    <i name="pawaedc">  -3478.24788194 </i>
    <i name="eentropy">     -0.19969113 </i>
    <i name="bandstr">  -1399.24674436 </i>
    <i name="atom">   6761.44252427 </i>
    <i name="e_fr_energy">   -190.63256963 </i>
    <i name="e_wo_entrp">   -190.43287850 </i>
    <i name="e_0_energy">   -190.53272407 </i>
   </energy>
  </scstep>
  <structure>
   <crystal>
    <varray name="basis" >
     <v>       8.48609757       4.89946755       0.00000000 </v>
     <v>      -8.48649158       4.90013934       0.00000000 </v>
     <v>       0.00000000       0.00000000      30.00000000 </v>
    </varray>
    <i name="volume">   2494.87052026 </i>
    <varray name="rec_basis" >
     <v>       0.05892257       0.10204728       0.00000000 </v>
     <v>      -0.05891449       0.10204254       0.00000000 </v>
     <v>       0.00000000       0.00000000       0.03333333 </v>
    </varray>
   </crystal>
   <varray name="positions" >
    <v>       0.00052699       0.66408712      -0.00021289 </v>
    <v>       0.00259623       0.00243278      -0.00026460 </v>
    <v>       0.66706138       0.00577556       0.00020268 </v>
    <v>       0.66479221       0.32991800       0.00023356 </v>
    <v>       0.33726961       0.00458814      -0.00023859 </v>
    <v>       0.99776098       0.33467330       0.00027731 </v>
    <v>       0.33511121       0.33086416      -0.00002492 </v>
    <v>       0.32972480       0.66573863       0.00002960 </v>
    <v>       0.66493905       0.66200818      -0.00006297 </v>
    <v>       0.10926158       0.21716489       0.95067553 </v>
    <v>       0.21694827       0.10918660       0.04973155 </v>
    <v>       0.10900058       0.55918159       0.95007785 </v>
    <v>       0.22356265       0.44491788       0.05047455 </v>
    <v>       0.10553474       0.88615528       0.95215905 </v>
    <v>       0.21696013       0.77455592       0.04931086 </v>
    <v>       0.44401342       0.22302007       0.94873747 </v>
    <v>       0.55870847       0.10792511       0.05015532 </v>
    <v>       0.44387750       0.55523926       0.94932622 </v>
    <v>       0.55490296       0.44462638       0.05109258 </v>
    <v>       0.44966039       0.89040376       0.95058278 </v>
    <v>       0.55790649       0.78234318       0.04890804 </v>
    <v>       0.77486077       0.21624411       0.95017951 </v>
    <v>       0.88596051       0.10535662       0.04812114 </v>
    <v>       0.78304171       0.55890432       0.95051220 </v>
    <v>       0.89160894       0.45031495       0.04971011 </v>
    <v>       0.77956305       0.89289891       0.95249292 </v>
    <v>       0.89305982       0.77968974       0.04781304 </v>
   </varray>
  </structure>
  <varray name="forces" >
   <v>       0.28523776      -0.08884354       0.04507332 </v>
   <v>       0.01379882       0.22263627      -0.04684371 </v>
   <v>      -0.35725247       0.20240791      -0.04733075 </v>
   <v>      -0.09721430      -0.28544178      -0.02399269 </v>
   <v>      -0.09421225       0.44182585       0.00566093 </v>
   <v>      -0.24780476       0.11268107       0.00764892 </v>
   <v>       0.32738236       0.16728298      -0.00108335 </v>
   <v>      -0.04729642      -0.25835744       0.05165001 </v>
   <v>       0.16326763      -0.41311771      -0.01041107 </v>
   <v>      -0.00694855      -0.01137926      -0.26086680 </v>
   <v>       0.00509806      -0.03179639       0.37955288 </v>
   <v>      -0.05534981      -0.02000526      -0.48555271 </v>
   <v>       0.03437693      -0.03670389       0.27712095 </v>
   <v>       0.02412112       0.01353103      -0.24638733 </v>
   <v>      -0.08097846       0.01124972       0.23001711 </v>
   <v>       0.03263505       0.02675180      -0.54698968 </v>
   <v>       0.03183674       0.01608521       0.56868792 </v>
   <v>      -0.01573743      -0.06529271      -0.34144500 </v>
   <v>       0.06826655      -0.04382646       0.50235844 </v>
   <v>       0.02363412       0.04597925      -0.26987854 </v>
   <v>      -0.01787863       0.03929351       0.13317813 </v>
   <v>       0.01463276      -0.02440032      -0.39498884 </v>
   <v>      -0.01151417      -0.01556739       0.32382459 </v>
   <v>       0.06559520      -0.00588504      -0.32569917 </v>
   <v>      -0.06280726       0.01325568       0.40376473 </v>
   <v>      -0.00670823      -0.01217578      -0.08303357 </v>
   <v>       0.01181966      -0.00018729       0.15596525 </v>
  </varray>
  <varray name="stress" >
   <v>      -5.85659618      -0.01305222      -0.09217698 </v>
   <v>      -0.01305223      -5.87687536       0.00114040 </v>
   <v>      -0.09217713       0.00114041       4.47414336 </v>
  </varray>
  <energy>
   <i name="e_fr_energy">   -190.63256963 </i>
   <i name="e_wo_entrp">   -190.53272407 </i>
   <i name="e_0_energy">     -0.19969113 </i>
  </energy>
  <time name="totalsc">  384.27  385.29</time>
 </calculation>
 <calculation>
  <scstep>
   <time name="dav">   21.63   21.68</time>
   <time name="total">   22.13   22.19</time>
   <energy>
    <i name="alphaZ">     90.35886440 </i>
    <i name="ewald">  44748.26301645 </i>
    <i name="hartreedc"> -50794.15458543 </i>
    <i name="XCdc">   -231.71070518 </i>
    <i name="pawpsdc">   4062.34848750 </i>
    <i name="pawaedc">  -3478.19890650 </i>
    <i name="eentropy">     -0.17645188 </i>
    <i name="bandstr">  -1350.23565221 </i>
    <i name="atom">   6761.44252427 </i>
    <i name="e_fr_energy">   -192.06340858 </i>
    <i name="e_wo_entrp">   -191.88695670 </i>
    <i name="e_0_energy">   -191.97518264 </i>
   </energy>
  </scstep>
  <scstep>
   <time name="dav">   30.85   30.92</time>
   <time name="total">   31.36   31.44</time>
   <energy>
    <i name="e_fr_energy">   -191.87538367 </i>
    <i name="e_wo_entrp">   -191.68867041 </i>
    <i name="e_0_energy">   -191.78202704 </i>
   </energy>
  </scstep>
  <scstep>
   <time name="dav">   27.32   27.38</time>
   <time name="total">   27.82   27.90</time>
   <energy>
    <i name="e_fr_energy">   -192.15532452 </i>
    <i name="e_wo_entrp">   -191.95457901 </i>
    <i name="e_0_energy">   -192.05495177 </i>
   </energy>
  </scstep>
  <scstep>
   <time name="dav">   29.81   29.88</time>
   <time name="total">   30.32   30.40</time>
   <energy>
    <i name="e_fr_energy">   -191.52747956 </i>
    <i name="e_wo_entrp">   -191.34405575 </i>
    <i name="e_0_energy">   -191.43576765 </i>
   </energy>
  </scstep>
  <scstep>
   <time name="dav">   30.07   30.15</time>
   <time name="total">   30.58   30.66</time>
   <energy>
    <i name="e_fr_energy">   -191.45398248 </i>
    <i name="e_wo_entrp">   -191.27430965 </i>
    <i name="e_0_energy">   -191.36414606 </i>
   </energy>
  </scstep>
  <scstep>
   <time name="dav">   30.12   30.20</time>
   <time name="total">   30.64   30.72</time>
   <energy>
    <i name="e_fr_energy">   -191.26498475 </i>
    <i name="e_wo_entrp">   -191.07926249 </i>
    <i name="e_0_energy">   -191.17212362 </i>
   </energy>
  </scstep>
  <scstep>
   <time name="dav">   29.88   29.95</time>
   <time name="total">   30.38   30.46</time>
   <energy>
    <i name="e_fr_energy">   -191.25847749 </i>
    <i name="e_wo_entrp">   -191.07372054 </i>
    <i name="e_0_energy">   -191.16609902 </i>
   </energy>
  </scstep>
  <scstep>
   <time name="dav">   26.61   26.68</time>
   <time name="total">   27.13   27.20</time>
   <energy>
    <i name="e_fr_energy">   -191.25361206 </i>
    <i name="e_wo_entrp">   -191.06881329 </i>
    <i name="e_0_energy">   -191.16121268 </i>
   </energy>
  </scstep>
  <scstep>
   <time name="dav">   30.94   31.01</time>
   <time name="total">   31.45   31.53</time>
   <energy>
    <i name="e_fr_energy">   -191.25441003 </i>
    <i name="e_wo_entrp">   -191.06960813 </i>
    <i name="e_0_energy">   -191.16200908 </i>
   </energy>
  </scstep>
  <scstep>
   <time name="dav">   27.97   28.05</time>
   <time name="total">   28.49   28.57</time>
   <energy>
    <i name="e_fr_energy">   -191.25359404 </i>
    <i name="e_wo_entrp">   -191.06877251 </i>
    <i name="e_0_energy">   -191.16118328 </i>
   </energy>
  </scstep>
  <scstep>
   <time name="dav">   26.72   26.78</time>
   <time name="total">   26.75   26.83</time>
   <energy>
    <i name="alphaZ">     90.35886440 </i>
    <i name="ewald">  44748.26301645 </i>
    <i name="hartreedc"> -50758.10284912 </i>
    <i name="XCdc">   -233.33781045 </i>
    <i name="pawpsdc">   4083.27409254 </i>
    <i name="pawaedc">  -3499.19098041 </i>
    <i name="eentropy">     -0.18493902 </i>
    <i name="bandstr">  -1383.77542750 </i>
    <i name="atom">   6761.44252427 </i>
    <i name="e_fr_energy">   -191.25350884 </i>
    <i name="e_wo_entrp">   -191.06856982 </i>
    <i name="e_0_energy">   -191.16103933 </i>
   </energy>
  </scstep>
  <structure>
   <crystal>
    <varray name="basis" >
     <v>       8.26959463       4.77387744       0.00000000 </v>
     <v>      -8.27064424       4.77568481       0.00000000 </v>
     <v>       0.00000000       0.00000000      30.00000000 </v>
    </varray>
    <i name="volume">   2369.28058325 </i>
    <varray name="rec_basis" >
     <v>       0.06047006       0.10472349       0.00000000 </v>
     <v>      -0.06044718       0.10471020       0.00000000 </v>
     <v>       0.00000000       0.00000000       0.03333333 </v>
    </varray>
   </crystal>
   <varray name="positions" >
    <v>       0.00148594       0.66083341      -0.00003109 </v>
    <v>       0.00557657       0.00520193      -0.00047303 </v>
    <v>       0.66691823       0.01088732       0.00000859 </v>
    <v>       0.66045121       0.32703142       0.00012042 </v>
    <v>       0.34220314       0.01085699      -0.00022523 </v>
    <v>       0.99750379       0.33798538       0.00030854 </v>
    <v>       0.33963114       0.33072778      -0.00003040 </v>
    <v>       0.32619070       0.66276324       0.00027910 </v>
    <v>       0.66064280       0.65543658      -0.00010022 </v>
    <v>       0.10857906       0.21652717       0.94901158 </v>
    <v>       0.21599563       0.10824876       0.05191362 </v>
    <v>       0.10788639       0.55940491       0.94746454 </v>
    <v>       0.22326413       0.44419850       0.05224794 </v>
    <v>       0.10538545       0.88590026       0.95065278 </v>
    <v>       0.21595765       0.77514799       0.05085835 </v>
    <v>       0.44472747       0.22308395       0.94582423 </v>
    <v>       0.55933346       0.10761950       0.05311030 </v>
    <v>       0.44295944       0.55457089       0.94728321 </v>
    <v>       0.55495213       0.44355659       0.05380855 </v>
    <v>       0.45099365       0.89123830       0.94885608 </v>
    <v>       0.55857917       0.78352703       0.05003005 </v>
    <v>       0.77443023       0.21535660       0.94794593 </v>
    <v>       0.88545284       0.10475041       0.04996521 </v>
    <v>       0.78399718       0.55848202       0.94857558 </v>
    <v>       0.89160886       0.45147589       0.05196824 </v>
    <v>       0.77968961       0.89343531       0.95163135 </v>
    <v>       0.89381858       0.77996632       0.04899566 </v>
   </varray>
  </structure>
  <varray name="forces" >
   <v>       0.26173347      -0.08272086       0.02248992 </v>
   <v>      -0.00792671       0.17677621      -0.03184855 </v>
   <v>      -0.25161165       0.23222875       0.01508209 </v>
   <v>      -0.19532095      -0.15618863       0.00641267 </v>
   <v>      -0.12316468       0.28070186       0.02837190 </v>
   <v>      -0.18365341       0.12084455       0.01865290 </v>
   <v>       0.26768087       0.21448465      -0.03035783 </v>
   <v>       0.05513582      -0.30799177      -0.01275067 </v>
   <v>       0.16903326      -0.33052876      -0.01514517 </v>
   <v>      -0.04510199       0.14827964       0.05070127 </v>
   <v>       0.04508901       0.09785477       0.08469054 </v>
   <v>       0.01293224      -0.01598182      -0.16995770 </v>
   <v>       0.08334455      -0.12096127       0.01881625 </v>
   <v>       0.11218898       0.12340472       0.06066226 </v>
   <v>      -0.05311761       0.13720663      -0.06506952 </v>
   <v>       0.03171056       0.00839290      -0.25198603 </v>
   <v>      -0.07141464       0.04198939       0.15923334 </v>
   <v>      -0.01089266      -0.11381655      -0.12273813 </v>
   <v>       0.11464729      -0.07402856       0.26935185 </v>
   <v>      -0.06253555      -0.04813979       0.09322981 </v>
   <v>       0.00897175      -0.04341724      -0.15991407 </v>
   <v>      -0.09077655       0.08131997      -0.10067501 </v>
   <v>      -0.08100183       0.07890431       0.01952885 </v>
   <v>       0.02998864      -0.11084231      -0.03307486 </v>
   <v>      -0.03081561      -0.13094319       0.07087871 </v>
   <v>       0.00537148      -0.11583460       0.18402602 </v>
   <v>       0.00950592      -0.09099299      -0.10861083 </v>
  </varray>
  <varray name="stress" >
   <v>      -0.27248675       0.00933460       0.05180108 </v>
   <v>       0.00933443       0.01884329      -0.06888424 </v>
   <v>       0.05180109      -0.06888439      -0.41851031 </v>
  </varray>
  <energy>
   <i name="e_fr_energy">   -191.25350884 </i>
   <i name="e_wo_entrp">   -191.16103933 </i>
   <i name="e_0_energy">     -0.18493902 </i>
  </energy>
  <time name="totalsc">  358.85  359.81</time>
 </calculation>
 <calculation>
  <scstep>
   <time name="dav">   21.62   21.67</time>
   <time name="total">   22.13   22.19</time>
   <energy>
    <i name="alphaZ">     90.47249025 </i>
    <i name="ewald">  44780.17689963 </i>
    <i name="hartreedc"> -50792.12444014 </i>
    <i name="XCdc">   -233.34182897 </i>
    <i name="pawpsdc">   4083.72451521 </i>
    <i name="pawaedc">  -3499.63917573 </i>
    <i name="eentropy">     -0.19037090 </i>
    <i name="bandstr">  -1381.83735982 </i>
    <i name="atom">   6761.44252427 </i>
    <i name="e_fr_energy">   -191.31674618 </i>
    <i name="e_wo_entrp">   -191.12637528 </i>
    <i name="e_0_energy">   -191.22156073 </i>
   </energy>
  </scstep>
  <scstep>
   <time name="dav">   32.44   32.52</time>
   <time name="total">   32.95   33.04</time>
   <energy>
    <i name="e_fr_energy">   -191.37496089 </i>
    <i name="e_wo_entrp">   -191.17684698 </i>
    <i name="e_0_energy">   -191.27590394 </i>
   </energy>
  </scstep>
  <scstep>
   <time name="dav">   29.20   29.27</time>
   <time name="total">   29.71   29.79</time>
   <energy>
    <i name="e_fr_energy">   -191.32746110 </i>
    <i name="e_wo_entrp">   -191.13634523 </i>
    <i name="e_0_energy">   -191.23190317 </i>
   </energy>
  </scstep>
  <scstep>
   <time name="dav">   28.34   28.40</time>
   <time name="total">   28.84   28.92</time>
   <energy>
    <i name="e_fr_energy">   -191.32680452 </i>
    <i name="e_wo_entrp">   -191.13582116 </i>
    <i name="e_0_energy">   -191.23131284 </i>
   </energy>
  </scstep>
  <scstep>
   <time name="dav">   28.11   28.18</time>
   <time name="total">   28.62   28.70</time>
   <energy>
    <i name="e_fr_energy">   -191.32358952 </i>
    <i name="e_wo_entrp">   -191.13185115 </i>
    <i name="e_0_energy">   -191.22772033 </i>
   </energy>
  </scstep>
  <scstep>
   <time name="dav">   27.80   27.86</time>
   <time name="total">   28.31   28.38</time>
   <energy>
    <i name="e_fr_energy">   -191.32297616 </i>
    <i name="e_wo_entrp">   -191.13127211 </i>
    <i name="e_0_energy">   -191.22712414 </i>
   </energy>
  </scstep>
  <scstep>
   <time name="dav">   28.95   29.02</time>
   <time name="total">   29.46   29.54</time>
   <energy>
    <i name="e_fr_energy">   -191.32334918 </i>
    <i name="e_wo_entrp">   -191.13157006 </i>
    <i name="e_0_energy">   -191.22745962 </i>
   </energy>
  </scstep>
  <scstep>
   <time name="dav">   25.47   25.53</time>
   <time name="total">   25.98   26.05</time>
   <energy>
    <i name="e_fr_energy">   -191.32280797 </i>
    <i name="e_wo_entrp">   -191.13100825 </i>
    <i name="e_0_energy">   -191.22690811 </i>
   </energy>
  </scstep>
  <scstep>
   <time name="dav">   17.79   17.83</time>
   <time name="total">   17.82   17.87</time>
   <energy>
    <i name="alphaZ">     90.47249025 </i>
    <i name="ewald">  44780.17689963 </i>
    <i name="hartreedc"> -50792.17945025 </i>
    <i name="XCdc">   -233.36333550 </i>
    <i name="pawpsdc">   4082.24701715 </i>
    <i name="pawaedc">  -3498.12887120 </i>
    <i name="eentropy">     -0.19174780 </i>
    <i name="bandstr">  -1381.79828644 </i>
    <i name="atom">   6761.44252427 </i>
    <i name="e_fr_energy">   -191.32275987 </i>
    <i name="e_wo_entrp">   -191.13101208 </i>
    <i name="e_0_energy">   -191.22688597 </i>
   </energy>
  </scstep>
  <structure>
   <crystal>
    <varray name="basis" >
     <v>       8.26123698       4.77297458       0.00000000 </v>
     <v>      -8.26205240       4.77437776       0.00000000 </v>
     <v>       0.00000000       0.00000000      30.00000000 </v>
    </varray>
    <i name="volume">   2366.30496557 </i>
    <varray name="rec_basis" >
     <v>       0.06052953       0.10474625       0.00000000 </v>
     <v>      -0.06051174       0.10473591       0.00000000 </v>
     <v>       0.00000000       0.00000000       0.03333333 </v>
    </varray>
   </crystal>
   <varray name="positions" >
    <v>       0.00185955       0.65955650       0.00000945 </v>
    <v>       0.00652815       0.00619704      -0.00052978 </v>
    <v>       0.66736695       0.01294466       0.00003003 </v>
    <v>       0.65897154       0.32675259       0.00012881 </v>
    <v>       0.34338478       0.01280255      -0.00017811 </v>
    <v>       0.99757757       0.33922755       0.00034001 </v>
    <v>       0.34163482       0.33103888      -0.00008080 </v>
    <v>       0.32468963       0.66093979       0.00026299 </v>
    <v>       0.65934870       0.65308653      -0.00012592 </v>
    <v>       0.10919694       0.21741611       0.94905816 </v>
    <v>       0.21661599       0.10859945       0.05210115 </v>
    <v>       0.10781627       0.55928785       0.94712793 </v>
    <v>       0.22287861       0.44330550       0.05231902 </v>
    <v>       0.10635622       0.88619778       0.95071989 </v>
    <v>       0.21648718       0.77603069       0.05078596 </v>
    <v>       0.44488115       0.22303312       0.94534571 </v>
    <v>       0.55935106       0.10804365       0.05343540 </v>
    <v>       0.44231782       0.55399961       0.94703499 </v>
    <v>       0.55491352       0.44280717       0.05431207 </v>
    <v>       0.45058647       0.89119596       0.94897165 </v>
    <v>       0.55839612       0.78330241       0.04979245 </v>
    <v>       0.77457007       0.21603059       0.94773113 </v>
    <v>       0.88560808       0.10538738       0.05003734 </v>
    <v>       0.78353446       0.55780897       0.94847832 </v>
    <v>       0.89083824       0.45091468       0.05213401 </v>
    <v>       0.77910913       0.89283380       0.95191430 </v>
    <v>       0.89339544       0.77947365       0.04884376 </v>
   </varray>
  </structure>
  <varray name="forces" >
   <v>       0.25362146      -0.07356454       0.03396190 </v>
   <v>      -0.01655811       0.18625472      -0.05381477 </v>
   <v>      -0.23763374       0.29678297      -0.00976270 </v>
   <v>      -0.17580025      -0.14038525      -0.02273216 </v>
   <v>      -0.16130777       0.28703411       0.00333203 </v>
   <v>      -0.20365561       0.09647981      -0.00065662 </v>
   <v>       0.26955284       0.21076798      -0.01968247 </v>
   <v>       0.06912106      -0.35768546       0.02408679 </v>
   <v>       0.18782735      -0.35164677       0.00729531 </v>
   <v>      -0.03105251       0.12166233       0.07689522 </v>
   <v>       0.01697767       0.07719012       0.06419641 </v>
   <v>       0.00382685      -0.01989446      -0.15903201 </v>
   <v>       0.07975439      -0.09596732      -0.00418845 </v>
   <v>       0.08498875       0.07516858       0.10538977 </v>
   <v>      -0.02059465       0.08618486      -0.10492373 </v>
   <v>       0.02184315       0.01312657      -0.19895765 </v>
   <v>      -0.05029872       0.03805074       0.13122517 </v>
   <v>       0.00080283      -0.08112133      -0.10258902 </v>
   <v>       0.06926843      -0.05378438       0.22830489 </v>
   <v>      -0.02147474      -0.04194473       0.15048456 </v>
   <v>       0.00431841      -0.04688195      -0.20391128 </v>
   <v>      -0.07503951       0.05858501      -0.05097566 </v>
   <v>      -0.06372374       0.04990627       0.00333970 </v>
   <v>       0.02364839      -0.07135723      -0.03428614 </v>
   <v>      -0.03929097      -0.08760690       0.05452133 </v>
   <v>       0.00263155      -0.09860401       0.22402840 </v>
   <v>       0.00824719      -0.07674971      -0.14154882 </v>
  </varray>
  <varray name="stress" >
   <v>       0.02050546      -0.00488400      -0.00210807 </v>
   <v>      -0.00488381       0.07562083      -0.07276513 </v>
   <v>      -0.00210816      -0.07276503      -1.13638479 </v>
  </varray>
  <energy>
   <i name="e_fr_energy">   -191.32275987 </i>
   <i name="e_wo_entrp">   -191.22688597 </i>
   <i name="e_0_energy">     -0.19174780 </i>
  </energy>
  <time name="totalsc">  285.81  286.57</time>
 </calculation>
 <calculation>
  <scstep>
   <time name="dav">   21.62   21.68</time>
   <time name="total">   22.13   22.19</time>
   <energy>
    <i name="alphaZ">     90.44293776 </i>
    <i name="ewald">  44766.41468699 </i>
    <i name="hartreedc"> -50778.13369844 </i>
    <i name="XCdc">   -233.38598502 </i>
    <i name="pawpsdc">   4082.29224413 </i>
    <i name="pawaedc">  -3498.17489172 </i>
    <i name="eentropy">     -0.19499912 </i>
    <i name="bandstr">  -1382.07127430 </i>
    <i name="atom">   6761.44252427 </i>
    <i name="e_fr_energy">   -191.36845545 </i>
    <i name="e_wo_entrp">   -191.17345633 </i>
    <i name="e_0_energy">   -191.27095589 </i>
   </energy>
  </scstep>
  <scstep>
   <time name="dav">   33.04   33.11</time>
   <time name="total">   33.55   33.63</time>
   <energy>
    <i name="e_fr_energy">   -191.39678214 </i>
    <i name="e_wo_entrp">   -191.19456085 </i>
    <i name="e_0_energy">   -191.29567149 </i>
   </energy>
  </scstep>
  <scstep>
   <time name="dav">   29.67   29.75</time>
   <time name="total">   30.18   30.26</time>
   <energy>
    <i name="e_fr_energy">   -191.37264339 </i>
    <i name="e_wo_entrp">   -191.17708678 </i>
    <i name="e_0_energy">   -191.27486509 </i>
   </energy>
  </scstep>
  <scstep>
   <time name="dav">   28.13   28.20</time>
   <time name="total">   28.65   28.72</time>
   <energy>
    <i name="e_fr_energy">   -191.37276724 </i>
    <i name="e_wo_entrp">   -191.17719898 </i>
    <i name="e_0_energy">   -191.27498311 </i>
   </energy>
  </scstep>
  <scstep>
   <time name="dav">   28.01   28.08</time>
   <time name="total">   28.52   28.59</time>
   <energy>
    <i name="e_fr_energy">   -191.37113746 </i>
    <i name="e_wo_entrp">   -191.17494153 </i>
    <i name="e_0_energy">   -191.27303949 </i>
   </energy>
  </scstep>
  <scstep>
   <time name="dav">   26.51   26.58</time>
   <time name="total">   27.03   27.10</time>
   <energy>
    <i name="e_fr_energy">   -191.37090005 </i>
    <i name="e_wo_entrp">   -191.17476801 </i>
    <i name="e_0_energy">   -191.27283403 </i>
   </energy>
  </scstep>
  <scstep>
   <time name="dav">   26.38   26.45</time>
   <time name="total">   26.89   26.96</time>
   <energy>
    <i name="e_fr_energy">   -191.37106206 </i>
    <i name="e_wo_entrp">   -191.17495121 </i>
    <i name="e_0_energy">   -191.27300664 </i>
   </energy>
  </scstep>
  <scstep>
   <time name="dav">   22.79   22.84</time>
   <time name="total">   23.30   23.36</time>
   <energy>
    <i name="e_fr_energy">   -191.37082339 </i>
    <i name="e_wo_entrp">   -191.17469404 </i>
    <i name="e_0_energy">   -191.27275872 </i>
   </energy>
  </scstep>
  <scstep>
[...]
      <set comment="kpoint 31">
       <r>  -17.6235    1.0000 </r>
       <r>  -17.2204    1.0000 </r>
       <r>  -16.9345    1.0000 </r>
       <r>  -16.7164    1.0000 </r>
       <r>  -16.5361    1.0000 </r>
       <r>  -16.4298    1.0000 </r>
       <r>  -16.3431    1.0000 </r>
       <r>  -16.2891    1.0000 </r>
       <r>  -16.0981    1.0000 </r>
       <r>  -16.0025    1.0000 </r>
       <r>  -15.9395    1.0000 </r>
       <r>  -15.8408    1.0000 </r>
       <r>  -15.7604    1.0000 </r>
       <r>  -15.6494    1.0000 </r>
       <r>  -15.5731    1.0000 </r>
       <r>  -15.5484    1.0000 </r>
       <r>  -15.2753    1.0000 </r>
       <r>  -15.1942    1.0000 </r>
       <r>   -9.7628    1.0000 </r>
       <r>   -9.4923    1.0000 </r>
       <r>   -9.4146    1.0000 </r>
       <r>   -9.1489    1.0000 </r>
       <r>   -8.9348    1.0000 </r>
       <r>   -8.7335    1.0000 </r>
       <r>   -8.5020    1.0000 </r>
       <r>   -8.4402    1.0000 </r>
       <r>   -8.3824    1.0000 </r>
       <r>   -8.2981    1.0000 </r>
       <r>   -8.2802    1.0000 </r>
       <r>   -8.2156    1.0000 </r>
       <r>   -8.1808    1.0000 </r>
       <r>   -8.1006    1.0000 </r>
       <r>   -8.0405    1.0000 </r>
       <r>   -7.8464    1.0000 </r>
       <r>   -7.7774    1.0000 </r>
       <r>   -7.6980    1.0000 </r>
       <r>   -7.6496    1.0000 </r>
       <r>   -7.3936    1.0000 </r>
       <r>   -7.3371    1.0000 </r>
       <r>   -7.2716    1.0000 </r>
       <r>   -7.1640    1.0000 </r>
       <r>   -7.1083    1.0000 </r>
       <r>   -7.0864    1.0000 </r>
       <r>   -6.8884    1.0000 </r>
       <r>   -6.8414    1.0000 </r>
       <r>   -6.7306    1.0000 </r>
       <r>   -6.6068    1.0000 </r>
       <r>   -6.5404    1.0000 </r>
       <r>   -6.5014    1.0000 </r>
       <r>   -6.4491    1.0000 </r>
       <r>   -6.3924    1.0000 </r>
       <r>   -6.3311    1.0000 </r>
       <r>   -6.2305    1.0000 </r>
       <r>   -6.1793    1.0000 </r>
       <r>   -6.1497    1.0000 </r>
       <r>   -6.0628    1.0000 </r>
       <r>   -6.0255    1.0000 </r>
       <r>   -5.9234    1.0000 </r>
       <r>   -5.8597    1.0000 </r>
       <r>   -5.7687    1.0000 </r>
       <r>   -5.6940    1.0000 </r>
       <r>   -5.6008    1.0000 </r>
       <r>   -5.4834    1.0000 </r>
       <r>   -5.4056    1.0000 </r>
       <r>   -5.3320    1.0000 </r>
       <r>   -5.2130    1.0000 </r>
       <r>   -5.0856    1.0000 </r>
       <r>   -4.7994    1.0000 </r>
       <r>   -4.7507    1.0000 </r>
       <r>   -4.5572    1.0000 </r>
       <r>   -4.5120    1.0000 </r>
       <r>   -4.3972    1.0000 </r>
       <r>   -4.2942    1.0000 </r>
       <r>   -4.2550    1.0000 </r>
       <r>   -4.1486    1.0000 </r>
       <r>   -4.0708    1.0000 </r>
       <r>   -4.0105    1.0000 </r>
       <r>   -3.6663    0.9992 </r>
       <r>   -3.5678    0.9933 </r>
       <r>   -3.0774    0.1594 </r>
       <r>   -2.9472    0.0276 </r>
       <r>   -2.7110    0.0002 </r>
       <r>   -2.6857    0.0001 </r>
       <r>   -2.5541    0.0000 </r>
       <r>   -2.4046    0.0000 </r>
       <r>   -2.3773    0.0000 </r>
       <r>   -2.1409    0.0000 </r>
       <r>   -1.9831    0.0000 </r>
       <r>   -1.8813    0.0000 </r>
       <r>   -1.8643    0.0000 </r>
       <r>   -1.6985    0.0000 </r>
       <r>   -1.5720    0.0000 </r>
       <r>   -1.5257    0.0000 </r>
       <r>   -1.3605    0.0000 </r>
       <r>   -1.2817    0.0000 </r>
       <r>   -1.2387    0.0000 </r>
       <r>   -1.0733    0.0000 </r>
       <r>   -0.9883    0.0000 </r>
       <r>   -0.9625    0.0000 </r>
       <r>   -0.9095    0.0000 </r>
       <r>   -0.8598    0.0000 </r>
       <r>   -0.7473    0.0000 </r>
       <r>   -0.6398    0.0000 </r>
       <r>   -0.5257    0.0000 </r>
       <r>   -0.3541    0.0000 </r>
       <r>   -0.2669    0.0000 </r>
       <r>   -0.1098    0.0000 </r>
       <r>   -0.0124    0.0000 </r>
       <r>    0.1348    0.0000 </r>
       <r>    0.2761    0.0000 </r>
       <r>    0.4169    0.0000 </r>
       <r>    0.5610    0.0000 </r>
       <r>    0.7151    0.0000 </r>
       <r>    0.8522    0.0000 </r>
       <r>    1.0035    0.0000 </r>
       <r>    1.1891    0.0000 </r>
       <r>    1.3557    0.0000 </r>
       <r>    2.1146    0.0000 </r>
       <r>    2.3106    0.0000 </r>
       <r>    2.3779    0.0000 </r>
      </set>
      <set comment="kpoint 32">
       <r>  -17.6168    1.0000 </r>
       <r>  -17.1652    1.0000 </r>
       <r>  -17.0556    1.0000 </r>
       <r>  -16.7064    1.0000 </r>
       <r>  -16.4948    1.0000 </r>
       <r>  -16.3789    1.0000 </r>
       <r>  -16.3262    1.0000 </r>
       <r>  -16.2699    1.0000 </r>
       <r>  -16.1685    1.0000 </r>
       <r>  -16.0622    1.0000 </r>
       <r>  -15.9386    1.0000 </r>
       <r>  -15.8328    1.0000 </r>
       <r>  -15.7526    1.0000 </r>
       <r>  -15.6494    1.0000 </r>
       <r>  -15.5519    1.0000 </r>
       <r>  -15.4908    1.0000 </r>
       <r>  -15.3178    1.0000 </r>
       <r>  -15.1931    1.0000 </r>
       <r>   -9.7331    1.0000 </r>
       <r>   -9.5849    1.0000 </r>
       <r>   -9.4868    1.0000 </r>
       <r>   -9.1186    1.0000 </r>
       <r>   -8.7467    1.0000 </r>
       <r>   -8.6295    1.0000 </r>
       <r>   -8.4804    1.0000 </r>
       <r>   -8.4482    1.0000 </r>
       <r>   -8.4102    1.0000 </r>
       <r>   -8.3985    1.0000 </r>
       <r>   -8.3164    1.0000 </r>
       <r>   -8.2390    1.0000 </r>
       <r>   -8.1440    1.0000 </r>
       <r>   -8.0832    1.0000 </r>
       <r>   -8.0468    1.0000 </r>
       <r>   -7.9154    1.0000 </r>
       <r>   -7.7962    1.0000 </r>
       <r>   -7.7285    1.0000 </r>
       <r>   -7.6047    1.0000 </r>
       <r>   -7.4328    1.0000 </r>
       <r>   -7.3853    1.0000 </r>
       <r>   -7.2784    1.0000 </r>
       <r>   -7.1708    1.0000 </r>
       <r>   -7.1183    1.0000 </r>
       <r>   -7.0742    1.0000 </r>
       <r>   -6.9315    1.0000 </r>
       <r>   -6.8205    1.0000 </r>
       <r>   -6.7295    1.0000 </r>
       <r>   -6.6317    1.0000 </r>
       <r>   -6.5458    1.0000 </r>
       <r>   -6.4676    1.0000 </r>
       <r>   -6.4328    1.0000 </r>
       <r>   -6.3410    1.0000 </r>
       <r>   -6.3282    1.0000 </r>
       <r>   -6.2487    1.0000 </r>
       <r>   -6.1935    1.0000 </r>
       <r>   -6.1380    1.0000 </r>
       <r>   -6.0682    1.0000 </r>
       <r>   -5.9751    1.0000 </r>
       <r>   -5.8810    1.0000 </r>
       <r>   -5.8378    1.0000 </r>
       <r>   -5.6808    1.0000 </r>
       <r>   -5.6500    1.0000 </r>
       <r>   -5.6066    1.0000 </r>
       <r>   -5.5197    1.0000 </r>
       <r>   -5.3851    1.0000 </r>
       <r>   -5.3485    1.0000 </r>
       <r>   -5.2268    1.0000 </r>
       <r>   -5.1272    1.0000 </r>
       <r>   -4.8243    1.0000 </r>
       <r>   -4.7136    1.0000 </r>
       <r>   -4.6198    1.0000 </r>
       <r>   -4.4585    1.0000 </r>
       <r>   -4.4120    1.0000 </r>
       <r>   -4.3733    1.0000 </r>
       <r>   -4.2264    1.0000 </r>
       <r>   -4.1832    1.0000 </r>
       <r>   -4.0570    1.0000 </r>
       <r>   -3.9451    1.0000 </r>
       <r>   -3.6560    0.9990 </r>
       <r>   -3.5211    0.9838 </r>
       <r>   -3.1607    0.3417 </r>
       <r>   -2.8697    0.0068 </r>
       <r>   -2.7964    0.0014 </r>
       <r>   -2.7066    0.0001 </r>
       <r>   -2.5657    0.0000 </r>
       <r>   -2.4670    0.0000 </r>
       <r>   -2.3901    0.0000 </r>
       <r>   -2.1821    0.0000 </r>
       <r>   -1.9813    0.0000 </r>
       <r>   -1.9649    0.0000 </r>
       <r>   -1.8883    0.0000 </r>
       <r>   -1.7248    0.0000 </r>
       <r>   -1.5670    0.0000 </r>
       <r>   -1.4063    0.0000 </r>
       <r>   -1.3198    0.0000 </r>
       <r>   -1.2505    0.0000 </r>
       <r>   -1.2062    0.0000 </r>
       <r>   -1.0545    0.0000 </r>
       <r>   -0.9714    0.0000 </r>
       <r>   -0.9184    0.0000 </r>
       <r>   -0.8712    0.0000 </r>
       <r>   -0.8372    0.0000 </r>
       <r>   -0.7555    0.0000 </r>
       <r>   -0.6475    0.0000 </r>
       <r>   -0.5300    0.0000 </r>
       <r>   -0.4021    0.0000 </r>
       <r>   -0.2993    0.0000 </r>
       <r>   -0.1770    0.0000 </r>
       <r>   -0.0242    0.0000 </r>
       <r>    0.1761    0.0000 </r>
       <r>    0.2700    0.0000 </r>
       <r>    0.4050    0.0000 </r>
       <r>    0.5284    0.0000 </r>
       <r>    0.7368    0.0000 </r>
       <r>    0.8016    0.0000 </r>
       <r>    1.0757    0.0000 </r>
       <r>    1.2082    0.0000 </r>
       <r>    1.3806    0.0000 </r>
       <r>    2.0973    0.0000 </r>
       <r>    2.2798    0.0000 </r>
       <r>    2.5662    0.0000 </r>
      </set>
      <set comment="kpoint 33">
       <r>  -17.5916    1.0000 </r>
       <r>  -17.2795    1.0000 </r>
       <r>  -16.9180    1.0000 </r>
       <r>  -16.6943    1.0000 </r>
       <r>  -16.5330    1.0000 </r>
       <r>  -16.4679    1.0000 </r>
       <r>  -16.3341    1.0000 </r>
       <r>  -16.2271    1.0000 </r>
       <r>  -16.1890    1.0000 </r>
       <r>  -16.0788    1.0000 </r>
       <r>  -15.8918    1.0000 </r>
       <r>  -15.7997    1.0000 </r>
       <r>  -15.7533    1.0000 </r>
       <r>  -15.6565    1.0000 </r>
       <r>  -15.5387    1.0000 </r>
       <r>  -15.4517    1.0000 </r>
       <r>  -15.3379    1.0000 </r>
       <r>  -15.2264    1.0000 </r>
       <r>   -9.8286    1.0000 </r>
       <r>   -9.4933    1.0000 </r>
       <r>   -9.4223    1.0000 </r>
       <r>   -9.0668    1.0000 </r>
       <r>   -8.8161    1.0000 </r>
       <r>   -8.6919    1.0000 </r>
       <r>   -8.5999    1.0000 </r>
       <r>   -8.5802    1.0000 </r>
       <r>   -8.4331    1.0000 </r>
       <r>   -8.3305    1.0000 </r>
       <r>   -8.2562    1.0000 </r>
       <r>   -8.1863    1.0000 </r>
       <r>   -8.1244    1.0000 </r>
       <r>   -8.0524    1.0000 </r>
       <r>   -7.9626    1.0000 </r>
       <r>   -7.9144    1.0000 </r>
       <r>   -7.7956    1.0000 </r>
       <r>   -7.6995    1.0000 </r>
       <r>   -7.5930    1.0000 </r>
       <r>   -7.5188    1.0000 </r>
       <r>   -7.4173    1.0000 </r>
       <r>   -7.3013    1.0000 </r>
       <r>   -7.1241    1.0000 </r>
       <r>   -7.0717    1.0000 </r>
       <r>   -6.9553    1.0000 </r>
       <r>   -6.9193    1.0000 </r>
       <r>   -6.8415    1.0000 </r>
       <r>   -6.7906    1.0000 </r>
       <r>   -6.6578    1.0000 </r>
       <r>   -6.5629    1.0000 </r>
       <r>   -6.4941    1.0000 </r>
       <r>   -6.4521    1.0000 </r>
       <r>   -6.3873    1.0000 </r>
       <r>   -6.2819    1.0000 </r>
       <r>   -6.2524    1.0000 </r>
       <r>   -6.2387    1.0000 </r>
       <r>   -6.0995    1.0000 </r>
       <r>   -6.0535    1.0000 </r>
       <r>   -6.0148    1.0000 </r>
       <r>   -5.9465    1.0000 </r>
       <r>   -5.8592    1.0000 </r>
       <r>   -5.6997    1.0000 </r>
       <r>   -5.6429    1.0000 </r>
       <r>   -5.5749    1.0000 </r>
       <r>   -5.4748    1.0000 </r>
       <r>   -5.4010    1.0000 </r>
       <r>   -5.2529    1.0000 </r>
       <r>   -5.2221    1.0000 </r>
       <r>   -4.9455    1.0000 </r>
       <r>   -4.8626    1.0000 </r>
       <r>   -4.7668    1.0000 </r>
       <r>   -4.6786    1.0000 </r>
       <r>   -4.5002    1.0000 </r>
       <r>   -4.4415    1.0000 </r>
       <r>   -4.3270    1.0000 </r>
       <r>   -4.2142    1.0000 </r>
       <r>   -4.1361    1.0000 </r>
       <r>   -4.0304    1.0000 </r>
       <r>   -3.8637    1.0000 </r>
       <r>   -3.7186    0.9998 </r>
       <r>   -3.5249    0.9849 </r>
       <r>   -3.1941    0.4319 </r>
       <r>   -2.9406    0.0248 </r>
       <r>   -2.8101    0.0019 </r>
       <r>   -2.7086    0.0002 </r>
       <r>   -2.5981    0.0000 </r>
       <r>   -2.5209    0.0000 </r>
       <r>   -2.3809    0.0000 </r>
       <r>   -2.2341    0.0000 </r>
       <r>   -2.0441    0.0000 </r>
       <r>   -1.9558    0.0000 </r>
       <r>   -1.8670    0.0000 </r>
       <r>   -1.7504    0.0000 </r>
       <r>   -1.5603    0.0000 </r>
       <r>   -1.3141    0.0000 </r>
       <r>   -1.2690    0.0000 </r>
       <r>   -1.2088    0.0000 </r>
       <r>   -1.1827    0.0000 </r>
       <r>   -1.0553    0.0000 </r>
       <r>   -0.9262    0.0000 </r>
       <r>   -0.8863    0.0000 </r>
       <r>   -0.8419    0.0000 </r>
       <r>   -0.8167    0.0000 </r>
       <r>   -0.7548    0.0000 </r>
       <r>   -0.6527    0.0000 </r>
       <r>   -0.5713    0.0000 </r>
       <r>   -0.4840    0.0000 </r>
       <r>   -0.3178    0.0000 </r>
       <r>   -0.2634    0.0000 </r>
       <r>   -0.0592    0.0000 </r>
       <r>    0.1585    0.0000 </r>
       <r>    0.2546    0.0000 </r>
       <r>    0.4082    0.0000 </r>
       <r>    0.5785    0.0000 </r>
       <r>    0.7549    0.0000 </r>
       <r>    0.7864    0.0000 </r>
       <r>    1.1399    0.0000 </r>
       <r>    1.2364    0.0000 </r>
       <r>    1.4747    0.0000 </r>
       <r>    2.1389    0.0000 </r>
       <r>    2.3093    0.0000 </r>
       <r>    2.4083    0.0000 </r>
      </set>
      <set comment="kpoint 34">
       <r>  -17.5708    1.0000 </r>
       <r>  -17.3387    1.0000 </r>
       <r>  -16.7746    1.0000 </r>
       <r>  -16.6981    1.0000 </r>
       <r>  -16.6313    1.0000 </r>
       <r>  -16.5273    1.0000 </r>
       <r>  -16.3162    1.0000 </r>
       <r>  -16.2250    1.0000 </r>
       <r>  -16.1900    1.0000 </r>
       <r>  -16.0750    1.0000 </r>
       <r>  -15.8610    1.0000 </r>
       <r>  -15.7738    1.0000 </r>
       <r>  -15.7616    1.0000 </r>
       <r>  -15.6601    1.0000 </r>
       <r>  -15.5338    1.0000 </r>
       <r>  -15.4415    1.0000 </r>
       <r>  -15.3343    1.0000 </r>
       <r>  -15.2555    1.0000 </r>
       <r>   -9.8705    1.0000 </r>
       <r>   -9.4480    1.0000 </r>
       <r>   -9.3165    1.0000 </r>
       <r>   -9.0485    1.0000 </r>
       <r>   -8.9114    1.0000 </r>
       <r>   -8.8041    1.0000 </r>
       <r>   -8.6456    1.0000 </r>
       <r>   -8.6235    1.0000 </r>
       <r>   -8.4207    1.0000 </r>
       <r>   -8.3328    1.0000 </r>
       <r>   -8.2057    1.0000 </r>
       <r>   -8.1608    1.0000 </r>
       <r>   -8.1249    1.0000 </r>
       <r>   -8.0211    1.0000 </r>
       <r>   -7.9422    1.0000 </r>
       <r>   -7.8380    1.0000 </r>
       <r>   -7.7770    1.0000 </r>
       <r>   -7.6781    1.0000 </r>
       <r>   -7.6012    1.0000 </r>
       <r>   -7.5645    1.0000 </r>
       <r>   -7.4754    1.0000 </r>
       <r>   -7.3118    1.0000 </r>
       <r>   -7.0861    1.0000 </r>
       <r>   -7.0251    1.0000 </r>
       <r>   -6.9384    1.0000 </r>
       <r>   -6.9014    1.0000 </r>
       <r>   -6.8482    1.0000 </r>
       <r>   -6.6857    1.0000 </r>
       <r>   -6.6341    1.0000 </r>
       <r>   -6.5655    1.0000 </r>
       <r>   -6.5338    1.0000 </r>
       <r>   -6.4774    1.0000 </r>
       <r>   -6.4532    1.0000 </r>
       <r>   -6.3964    1.0000 </r>
       <r>   -6.2664    1.0000 </r>
       <r>   -6.2523    1.0000 </r>
       <r>   -6.1749    1.0000 </r>
       <r>   -6.0701    1.0000 </r>
       <r>   -5.9873    1.0000 </r>
       <r>   -5.8745    1.0000 </r>
       <r>   -5.8405    1.0000 </r>
       <r>   -5.7335    1.0000 </r>
       <r>   -5.6586    1.0000 </r>
       <r>   -5.5572    1.0000 </r>
       <r>   -5.5130    1.0000 </r>
       <r>   -5.3907    1.0000 </r>
       <r>   -5.1860    1.0000 </r>
       <r>   -5.0520    1.0000 </r>
       <r>   -5.0267    1.0000 </r>
       <r>   -4.9182    1.0000 </r>
       <r>   -4.7870    1.0000 </r>
       <r>   -4.5986    1.0000 </r>
       <r>   -4.5143    1.0000 </r>
       <r>   -4.4634    1.0000 </r>
       <r>   -4.2805    1.0000 </r>
       <r>   -4.2187    1.0000 </r>
       <r>   -4.1636    1.0000 </r>
       <r>   -3.9914    1.0000 </r>
       <r>   -3.8288    1.0000 </r>
       <r>   -3.7641    0.9999 </r>
       <r>   -3.5444    0.9894 </r>
       <r>   -3.1827    0.4002 </r>
       <r>   -2.9947    0.0568 </r>
       <r>   -2.8290    0.0030 </r>
       <r>   -2.6926    0.0001 </r>
       <r>   -2.6234    0.0000 </r>
       <r>   -2.5300    0.0000 </r>
       <r>   -2.3764    0.0000 </r>
       <r>   -2.2592    0.0000 </r>
       <r>   -2.0702    0.0000 </r>
       <r>   -1.9405    0.0000 </r>
       <r>   -1.8491    0.0000 </r>
       <r>   -1.7643    0.0000 </r>
       <r>   -1.5560    0.0000 </r>
       <r>   -1.2953    0.0000 </r>
       <r>   -1.2330    0.0000 </r>
       <r>   -1.1876    0.0000 </r>
       <r>   -1.1712    0.0000 </r>
       <r>   -1.0552    0.0000 </r>
       <r>   -0.9275    0.0000 </r>
       <r>   -0.8786    0.0000 </r>
       <r>   -0.8199    0.0000 </r>
       <r>   -0.7819    0.0000 </r>
       <r>   -0.7625    0.0000 </r>
       <r>   -0.6277    0.0000 </r>
       <r>   -0.5912    0.0000 </r>
       <r>   -0.5747    0.0000 </r>
       <r>   -0.3406    0.0000 </r>
       <r>   -0.2676    0.0000 </r>
       <r>   -0.0894    0.0000 </r>
       <r>    0.1356    0.0000 </r>
       <r>    0.2474    0.0000 </r>
       <r>    0.4107    0.0000 </r>
       <r>    0.6174    0.0000 </r>
       <r>    0.7740    0.0000 </r>
       <r>    0.7839    0.0000 </r>
       <r>    1.1529    0.0000 </r>
       <r>    1.2643    0.0000 </r>
       <r>    1.5286    0.0000 </r>
       <r>    2.2269    0.0000 </r>
       <r>    2.2610    0.0000 </r>
       <r>    2.3926    0.0000 </r>
      </set>
     </set>
    </set>
   </array>
  </eigenvalues>
  <separator name="orbital magnetization" >
   <v name="MAGDIPOLOUT">      0.00000000      0.00000000      0.00000000</v>
  </separator>
 </calculation>
 <structure name="finalpos" >
  <crystal>
   <varray name="basis" >
    <v>       8.29420654       4.78416394       0.00000000 </v>
    <v>      -8.32248641       4.83306860       0.00000000 </v>
    <v>       0.00000000       0.00000000      30.00000000 </v>
   </varray>
   <i name="volume">   2397.07825785 </i>
   <varray name="rec_basis" >
    <v>       0.06048699       0.10415788       0.00000000 </v>
    <v>      -0.05987494       0.10380395       0.00000000 </v>
    <v>       0.00000000       0.00000000       0.03333333 </v>
   </varray>
  </crystal>
  <varray name="positions" >
   <v>      -0.01714226       0.63339134      -0.00190204 </v>
   <v>       0.02232793       0.03547902       0.00137627 </v>
   <v>       0.67874270       0.03496187       0.00189746 </v>
   <v>       0.66347760       0.33132517       0.00020767 </v>
   <v>       0.35428600       0.03812868       0.00171038 </v>
   <v>       0.98520309       0.33990113       0.00045396 </v>
   <v>       0.35278708       0.33477843      -0.00002609 </v>
   <v>       0.31033886       0.62576445      -0.00262669 </v>
   <v>       0.65226405       0.63236941      -0.00107292 </v>
   <v>       0.11380162       0.22690527       0.94976062 </v>
   <v>       0.22234983       0.11522150       0.05504333 </v>
   <v>       0.10221174       0.55281914       0.94399612 </v>
   <v>       0.21533794       0.43188015       0.05244137 </v>
   <v>       0.10857603       0.88782661       0.95689576 </v>
   <v>       0.22002259       0.77632455       0.04287212 </v>
   <v>       0.45013335       0.22801903       0.94378583 </v>
   <v>       0.56164521       0.11344384       0.05581765 </v>
   <v>       0.44410103       0.55038892       0.94347748 </v>
   <v>       0.55551778       0.43936528       0.05670183 </v>
   <v>       0.44618337       0.88713580       0.95559751 </v>
   <v>       0.55355958       0.77889842       0.04326245 </v>
   <v>       0.77391330       0.21850916       0.94627710 </v>
   <v>       0.88528144       0.10904369       0.05263101 </v>
   <v>       0.78235193       0.55604926       0.94503909 </v>
   <v>       0.88798261       0.44950397       0.05450187 </v>
   <v>       0.77963909       0.89122626       0.95802319 </v>
   <v>       0.89332096       0.77955410       0.04385760 </v>
  </varray>
 </structure>
</modeling>
