unknown system                          
           1
     8.854600    5.104393    0.000000
    -8.855686    5.106260    0.000000
     0.000000    0.000000   30.000000
   V    Mo   W    S 
   3   3   3  18
Direct configuration=     1
   0.00000000  0.66666669  0.00000000
   0.00000000  0.00000000  0.00000000
   0.66666669  0.00000000  0.00000000
   0.66666669  0.33333334  0.00000000
   0.33333334  0.00000000  0.00000000
   1.00000000  0.33333334  0.00000000
   0.33333334  0.33333334  0.00000000
   0.33333334  0.66666669  0.00000000
   0.66666669  0.66666669  0.00000000
   0.11068511  0.22244981  0.95539999
   0.22244981  0.11068511  0.04460000
   0.11068511  0.55578315  0.95539999
   0.22244981  0.44401845  0.04460000
   0.11068511  0.88911647  0.95539999
   0.22244981  0.77735180  0.04460000
   0.44401845  0.22244981  0.95539999
   0.55578315  0.11068511  0.04460000
   0.44401845  0.55578315  0.95539999
   0.55578315  0.44401845  0.04460000
   0.44401845  0.88911647  0.95539999
   0.55578315  0.77735180  0.04460000
   0.77735180  0.22244981  0.95539999
   0.88911647  0.11068511  0.04460000
   0.77735180  0.55578315  0.95539999
   0.88911647  0.44401845  0.04460000
   0.77735180  0.88911647  0.95539999
   0.88911647  0.77735180  0.04460000
unknown system                          
           1
     8.666450    4.998216    0.000000
    -8.667367    4.999794    0.000000
     0.000000    0.000000   30.000000
   V    Mo   W    S 
   3   3   3  18
Direct configuration=     2
   0.00005039  0.66588701 -0.00019350
   0.00074742  0.00069689 -0.00004230
   0.66703447  0.00239083  0.00018229
   0.66677535  0.33194186  0.00021337
   0.33435973  0.00110175 -0.00010457
   0.99834603  0.33311801  0.00012798
   0.33319081  0.33153773 -0.00000205
   0.33181409  0.66700004 -0.00017815
   0.66732741  0.66580636 -0.00003989
   0.10984390  0.21821061  0.95195204
   0.21816139  0.10986124  0.04809893
   0.10959076  0.55851682  0.95191803
   0.22299340  0.44474512  0.04919608
   0.10657300  0.88675166  0.95314879
   0.21809704  0.77510621  0.04806918
   0.44385555  0.22262219  0.95074777
   0.55801648  0.10863021  0.04807820
   0.44424936  0.55539497  0.95069272
   0.55500650  0.44470748  0.04928750
   0.44831681  0.88995553  0.95196032
   0.55735784  0.78153636  0.04806839
   0.77556118  0.21766425  0.95189949
   0.88670343  0.10656362  0.04689317
   0.78188445  0.55828890  0.95192547
   0.89091396  0.44872046  0.04805511
   0.77918768  0.89225233  0.95316659
   0.89225601  0.77920604  0.04687894
unknown system                          
           1
     8.486098    4.899468    0.000000
    -8.486492    4.900139    0.000000
     0.000000    0.000000   30.000000
   V    Mo   W    S 
   3   3   3  18
Direct configuration=     3
   0.00013134  0.66557521 -0.00021441
   0.00109218  0.00102639 -0.00009335
   0.66710972  0.00315044  0.00020633
   0.66648312  0.33148356  0.00023863
   0.33491767  0.00176396 -0.00014742
   0.99809190  0.33332134  0.00017799
   0.33344885  0.33123515 -0.00000906
   0.33135509  0.66685605 -0.00014785
   0.66702416  0.66515227 -0.00004787
   0.10997393  0.21820495  0.95198178
   0.21814957  0.10998792  0.04813200
   0.10974003  0.55869043  0.95184731
   0.22326905  0.44487385  0.04913339
   0.10649865  0.88670464  0.95321048
   0.21809739  0.77493755  0.04803161
   0.44376928  0.22277689  0.95067021
   0.55809767  0.10856434  0.04820234
   0.44418915  0.55537714  0.95075110
   0.55490677  0.44478583  0.04931788
   0.44834478  0.88979924  0.95197445
   0.55731852  0.78140147  0.04794205
   0.77548157  0.21750874  0.95183345
   0.88661468  0.10646960  0.04687470
   0.78189696  0.55847088  0.95193453
   0.89099605  0.44887747  0.04810255
   0.77912395  0.89207227  0.95329790
   0.89209243  0.77914685  0.04679915
unknown system                          
           1
     8.269595    4.773877    0.000000
    -8.270644    4.775685    0.000000
     0.000000    0.000000   30.000000
   V    Mo   W    S 
   3   3   3  18
Direct configuration=     4
   0.00052699  0.66408712 -0.00021289
   0.00259623  0.00243278 -0.00026460
   0.66706138  0.00577556  0.00020268
   0.66479221  0.32991800  0.00023356
   0.33726961  0.00458814 -0.00023859
   0.99776098  0.33467330  0.00027731
   0.33511121  0.33086416 -0.00002492
   0.32972480  0.66573863  0.00002960
   0.66493905  0.66200818 -0.00006297
   0.10926158  0.21716489  0.95067553
   0.21694827  0.10918660  0.04973155
   0.10900058  0.55918159  0.95007785
   0.22356265  0.44491788  0.05047455
   0.10553474  0.88615528  0.95215905
   0.21696013  0.77455592  0.04931086
   0.44401342  0.22302007  0.94873747
   0.55870847  0.10792511  0.05015532
   0.44387750  0.55523926  0.94932622
   0.55490296  0.44462638  0.05109258
   0.44966039  0.89040376  0.95058278
   0.55790649  0.78234318  0.04890804
   0.77486077  0.21624411  0.95017951
   0.88596051  0.10535662  0.04812114
   0.78304171  0.55890432  0.95051220
   0.89160894  0.45031495  0.04971011
   0.77956305  0.89289891  0.95249292
   0.89305982  0.77968974  0.04781304
unknown system                          
           1
     8.261237    4.772975    0.000000
    -8.262052    4.774378    0.000000
     0.000000    0.000000   30.000000
   V    Mo   W    S 
   3   3   3  18
Direct configuration=     5
   0.00148594  0.66083341 -0.00003109
   0.00557657  0.00520193 -0.00047303
   0.66691823  0.01088732  0.00000859
   0.66045121  0.32703142  0.00012042
   0.34220314  0.01085699 -0.00022523
   0.99750379  0.33798538  0.00030854
   0.33963114  0.33072778 -0.00003040
   0.32619070  0.66276324  0.00027910
   0.66064280  0.65543658 -0.00010022
   0.10857906  0.21652717  0.94901158
   0.21599563  0.10824876  0.05191362
   0.10788639  0.55940491  0.94746454
   0.22326413  0.44419850  0.05224794
   0.10538545  0.88590026  0.95065278
   0.21595765  0.77514799  0.05085835
   0.44472747  0.22308395  0.94582423
   0.55933346  0.10761950  0.05311030
   0.44295944  0.55457089  0.94728321
   0.55495213  0.44355659  0.05380855
   0.45099365  0.89123830  0.94885608
   0.55857917  0.78352703  0.05003005
   0.77443023  0.21535660  0.94794593
   0.88545284  0.10475041  0.04996521
   0.78399718  0.55848202  0.94857558
   0.89160886  0.45147589  0.05196824
   0.77968961  0.89343531  0.95163135
   0.89381858  0.77996632  0.04899566
unknown system                          
           1
     8.262104    4.773926    0.000000
    -8.263013    4.775491    0.000000
     0.000000    0.000000   30.000000
   V    Mo   W    S 
   3   3   3  18
Direct configuration=     6
   0.00185955  0.65955650  0.00000945
   0.00652815  0.00619704 -0.00052978
   0.66736695  0.01294466  0.00003003
   0.65897154  0.32675259  0.00012881
   0.34338478  0.01280255 -0.00017811
   0.99757757  0.33922755  0.00034001
   0.34163482  0.33103888 -0.00008080
   0.32468963  0.66093979  0.00026299
   0.65934870  0.65308653 -0.00012592
   0.10919694  0.21741611  0.94905816
   0.21661599  0.10859945  0.05210115
   0.10781627  0.55928785  0.94712793
   0.22287861  0.44330550  0.05231902
   0.10635622  0.88619778  0.95071989
   0.21648718  0.77603069  0.05078596
   0.44488115  0.22303312  0.94534571
   0.55935106  0.10804365  0.05343540
   0.44231782  0.55399961  0.94703499
   0.55491352  0.44280717  0.05431207
   0.45058647  0.89119596  0.94897165
   0.55839612  0.78330241  0.04979245
   0.77457007  0.21603059  0.94773113
   0.88560808  0.10538738  0.05003734
   0.78353446  0.55780897  0.94847832
   0.89083824  0.45091468  0.05213401
   0.77910913  0.89283380  0.95191430
   0.89339544  0.77947365  0.04884376
unknown system                          
           1
     8.257817    4.770408    0.000000
    -8.257707    4.770211    0.000000
     0.000000    0.000000   30.000000
   V    Mo   W    S 
   3   3   3  18
Direct configuration=     7
   0.00213474  0.65872943  0.00005014
   0.00719110  0.00693431 -0.00059458
   0.66797984  0.01458456  0.00001869
   0.65806567  0.32661638  0.00010134
   0.34410446  0.01423071 -0.00017436
   0.99749600  0.34003158  0.00033887
   0.34301694  0.33124925 -0.00010459
   0.32348814  0.65943058  0.00029156
   0.65843767  0.65135441 -0.00011666
   0.10959691  0.21795260  0.94916048
   0.21695281  0.10886207  0.05216829
   0.10775422  0.55920228  0.94694710
   0.22269020  0.44276652  0.05230461
   0.10683102  0.88629801  0.95085615
   0.21677566  0.77640109  0.05064986
   0.44497620  0.22303524  0.94511815
   0.55938258  0.10830161  0.05358079
   0.44201463  0.55369135  0.94692062
   0.55486025  0.44245474  0.05457632
   0.45037263  0.89107785  0.94916415
   0.55822262  0.78310724  0.04953773
   0.77463018  0.21642408  0.94768057
   0.88566015  0.10572135  0.05003219
   0.78330972  0.55748691  0.94844625
   0.89041712  0.45066200  0.05218917
   0.77873717  0.89244782  0.95219222
   0.89311579  0.77916048  0.04866486
unknown system                          
           1
     8.254466    4.769918    0.000000
    -8.252555    4.766600    0.000000
     0.000000    0.000000   30.000000
   V    Mo   W    S 
   3   3   3  18
Direct configuration=     8
   0.00183807  0.65970756  0.00001146
   0.00626224  0.00584622 -0.00050590
   0.66687046  0.01238204 -0.00000551
   0.65882305  0.32666200  0.00009969
   0.34345298  0.01250209 -0.00019694
   0.99776603  0.33914495  0.00031129
   0.34162000  0.33108681 -0.00006989
   0.32515576  0.66163130  0.00028076
   0.65944903  0.65340602 -0.00010583
   0.10917988  0.21740641  0.94902016
   0.21668690  0.10860968  0.05211716
   0.10786172  0.55928775  0.94713888
   0.22295106  0.44348355  0.05232411
   0.10650196  0.88628459  0.95064947
   0.21649016  0.77612992  0.05085747
   0.44489968  0.22296572  0.94536368
   0.55936698  0.10806738  0.05348822
   0.44222749  0.55395671  0.94701488
   0.55491951  0.44279938  0.05428552
   0.45056925  0.89131132  0.94883233
   0.55841143  0.78331473  0.04990506
   0.77457359  0.21599932  0.94776761
   0.88564206  0.10547301  0.05005473
   0.78344166  0.55763797  0.94848459
   0.89076787  0.45081492  0.05214821
   0.77912250  0.89286506  0.95181559
   0.89336311  0.77943805  0.04891308
unknown system                          
           1
     8.250118    4.767860    0.000000
    -8.248925    4.765787    0.000000
     0.000000    0.000000   30.000000
   V    Mo   W    S 
   3   3   3  18
Direct configuration=     9
   0.00156492  0.66105906 -0.00003118
   0.00484719  0.00402618 -0.00036183
   0.66436129  0.00850012 -0.00001257
   0.65911394  0.32659280  0.00017809
   0.34293747  0.01006250 -0.00012544
   0.99865506  0.33818320  0.00032403
   0.33993849  0.33072167 -0.00002658
   0.32787283  0.66567428  0.00025190
   0.66065923  0.65617361 -0.00017585
   0.10884415  0.21673904  0.94885741
   0.21655442  0.10835980  0.05201409
   0.10816115  0.55962070  0.94737017
   0.22354163  0.44456047  0.05231180
   0.10638424  0.88637156  0.95032867
   0.21615666  0.77609617  0.05123017
   0.44466783  0.22275968  0.94554156
   0.55935272  0.10782348  0.05343331
   0.44228899  0.55422386  0.94713034
   0.55499397  0.44305549  0.05402121
   0.45071396  0.89179301  0.94810993
   0.55873356  0.78362499  0.05057529
   0.77453161  0.21556532  0.94787980
   0.88569500  0.10529601  0.05001956
   0.78347495  0.55757465  0.94854754
   0.89102559  0.45078879  0.05203982
   0.77954643  0.89332530  0.95124936
   0.89359719  0.77964269  0.04931929
unknown system                          
           1
     8.253782    4.770414    0.000000
    -8.252366    4.767953    0.000000
     0.000000    0.000000   30.000000
   V    Mo   W    S 
   3   3   3  18
Direct configuration=    10
   0.00198299  0.65995894  0.00001560
   0.00576713  0.00509399 -0.00047692
   0.66489445  0.01049387 -0.00003589
   0.65784820  0.32637596  0.00010655
   0.34409140  0.01185641 -0.00016491
   0.99859426  0.33932719  0.00031937
   0.34177217  0.33083682 -0.00006891
   0.32633692  0.66398093  0.00026796
   0.65937417  0.65378471 -0.00017836
   0.10937558  0.21737526  0.94903902
   0.21694864  0.10868191  0.05208092
   0.10819827  0.55963687  0.94718174
   0.22349583  0.44402369  0.05221881
   0.10691129  0.88641877  0.95058946
   0.21651834  0.77648906  0.05103015
   0.44473679  0.22274969  0.94526873
   0.55943496  0.10810785  0.05360778
   0.44192321  0.55394463  0.94705639
   0.55492281  0.44274903  0.05436397
   0.45049632  0.89162091  0.94840696
   0.55852758  0.78337142  0.05018377
   0.77458798  0.21604090  0.94790843
   0.88563935  0.10559498  0.04993655
   0.78318722  0.55725460  0.94855461
   0.89052476  0.45052396  0.05206121
   0.77899458  0.89273129  0.95170258
   0.89312928  0.77919080  0.04902433
unknown system                          
           1
     8.261073    4.775697    0.000000
    -8.259400    4.772790    0.000000
     0.000000    0.000000   30.000000
   V    Mo   W    S 
   3   3   3  18
Direct configuration=    11
   0.00212192  0.65962993  0.00003385
   0.00602413  0.00539715 -0.00050025
   0.66502951  0.01106770 -0.00003316
   0.65743768  0.32632656  0.00011182
   0.34441994  0.01236371 -0.00015136
   0.99860093  0.33968084  0.00032751
   0.34233863  0.33085834 -0.00007146
   0.32587734  0.66355077  0.00028054
   0.65898853  0.65304660 -0.00017519
   0.10952616  0.21755846  0.94907215
   0.21705700  0.10875688  0.05210689
   0.10818870  0.55964573  0.94710003
   0.22349971  0.44386748  0.05219998
   0.10705130  0.88641480  0.95064576
   0.21659796  0.77662033  0.05099691
   0.44475085  0.22273152  0.94514764
   0.55946867  0.10819700  0.05367055
   0.44179740  0.55384038  0.94701552
   0.55490490  0.44264284  0.05448534
   0.45045593  0.89159016  0.94844975
   0.55848445  0.78331490  0.05009418
   0.77459915  0.21617199  0.94789051
   0.88562936  0.10567773  0.04992080
   0.78312676  0.55715433  0.94853281
   0.89037826  0.45045262  0.05207829
   0.77883457  0.89258120  0.95181551
   0.89302473  0.77907448  0.04895498
unknown system                          
           1
     8.261452    4.775890    0.000000
    -8.259989    4.773348    0.000000
     0.000000    0.000000   30.000000
   V    Mo   W    S 
   3   3   3  18
Direct configuration=    12
   0.00266087  0.65833509  0.00009085
   0.00713357  0.00671220 -0.00061241
   0.66598180  0.01360879 -0.00003002
   0.65610140  0.32623290  0.00010117
   0.34543953  0.01436566 -0.00013475
   0.99848862  0.34102317  0.00034989
   0.34439048  0.33089068 -0.00011448
   0.32382104  0.66150598  0.00031776
   0.65761967  0.65022541 -0.00017595
   0.11011088  0.21828171  0.94924482
   0.21746007  0.10906479  0.05217843
   0.10809071  0.55960737  0.94682486
   0.22339490  0.44313514  0.05211706
   0.10753382  0.88641345  0.95091090
   0.21689658  0.77705294  0.05081431
   0.44480990  0.22269499  0.94478216
   0.55953938  0.10854302  0.05386368
   0.44139224  0.55340981  0.94691038
   0.55480252  0.44221308  0.05490785
   0.45026923  0.89140920  0.94873120
   0.55827248  0.78303110  0.04967336
   0.77464899  0.21670400  0.94782571
   0.88564546  0.10601795  0.04986419
   0.78290706  0.55684239  0.94847742
   0.88988972  0.45023093  0.05213868
   0.77825834  0.89200102  0.95230098
   0.89265518  0.77866164  0.04864187
unknown system                          
           1
     8.252674    4.772722    0.000000
    -8.248365    4.765255    0.000000
     0.000000    0.000000   30.000000
   V    Mo   W    S 
   3   3   3  18
Direct configuration=    13
   0.00268305  0.65820213  0.00009752
   0.00727237  0.00689313 -0.00062318
   0.66618075  0.01396829 -0.00002443
   0.65604000  0.32622509  0.00010363
   0.34552017  0.01459189 -0.00013172
   0.99840377  0.34111104  0.00035563
   0.34455895  0.33089598 -0.00011499
   0.32357444  0.66119535  0.00032283
   0.65750277  0.64994996 -0.00017197
   0.11014519  0.21834771  0.94924992
   0.21746879  0.10907696  0.05219530
   0.10806790  0.55958619  0.94678910
   0.22335182  0.44303925  0.05211729
   0.10754559  0.88640089  0.95092869
   0.21692236  0.77707099  0.05079445
   0.44483634  0.22270628  0.94474580
   0.55954531  0.10856217  0.05387250
   0.44137597  0.55338516  0.94689650
   0.55479762  0.44217298  0.05494380
   0.45026436  0.89137436  0.94877971
   0.55824981  0.78301243  0.04961905
   0.77465244  0.21674514  0.94780582
   0.88563727  0.10603259  0.04987128
   0.78290961  0.55683970  0.94846356
   0.88985380  0.45022462  0.05215354
   0.77821595  0.89196015  0.95234721
   0.89263805  0.77864404  0.04861305
unknown system                          
           1
     8.264892    4.778206    0.000000
    -8.263739    4.776198    0.000000
     0.000000    0.000000   30.000000
   V    Mo   W    S 
   3   3   3  18
Direct configuration=    14
   0.00291092  0.65861457  0.00009973
   0.00631138  0.00563812 -0.00054394
   0.66450137  0.01225175 -0.00004532
   0.65554905  0.32588917  0.00014542
   0.34591447  0.01367442 -0.00008755
   0.99889141  0.34121440  0.00036715
   0.34454898  0.33084294 -0.00008290
   0.32461973  0.66323742  0.00032619
   0.65779102  0.65076878 -0.00018169
   0.11009655  0.21820166  0.94923352
   0.21758006  0.10910912  0.05214267
   0.10825252  0.55984135  0.94688876
   0.22387041  0.44370180  0.05202011
   0.10755494  0.88627028  0.95084629
   0.21674535  0.77704625  0.05091397
   0.44468987  0.22258346  0.94476712
   0.55968318  0.10851504  0.05382851
   0.44130212  0.55346380  0.94697654
   0.55483628  0.44241507  0.05485548
   0.45039622  0.89167571  0.94847224
   0.55840969  0.78311620  0.04987154
   0.77459268  0.21653569  0.94798633
   0.88553800  0.10597443  0.04973970
   0.78290681  0.55678117  0.94857333
   0.88995553  0.45026379  0.05199952
   0.77817889  0.89211543  0.95214998
   0.89258703  0.77847261  0.04873723
unknown system                          
           1
     8.268581    4.780386    0.000000
    -8.267767    4.778967    0.000000
     0.000000    0.000000   30.000000
   V    Mo   W    S 
   3   3   3  18
Direct configuration=    15
   0.00309651  0.65728848  0.00012950
   0.00807351  0.00786234 -0.00071704
   0.66693805  0.01588706 -0.00002252
   0.65512387  0.32616679  0.00007937
   0.34621428  0.01598766 -0.00013655
   0.99824992  0.34206671  0.00037104
   0.34600387  0.33081385 -0.00015827
   0.32200396  0.65977034  0.00034510
   0.65659681  0.64793733 -0.00018369
   0.11055770  0.21886394  0.94938246
   0.21772740  0.10927146  0.05225215
   0.10799855  0.55956304  0.94657952
   0.22328310  0.44250141  0.05204296
   0.10784090  0.88637128  0.95112284
   0.21711164  0.77736237  0.05068180
   0.44489602  0.22266942  0.94449888
   0.55959679  0.10878940  0.05400917
   0.44111242  0.55309491  0.94684946
   0.55472289  0.44186387  0.05525196
   0.45015915  0.89123771  0.94899761
   0.55809583  0.78280854  0.04929397
   0.77468254  0.21712700  0.94775842
   0.88563448  0.10625077  0.04983479
   0.78278387  0.55664937  0.94842918
   0.88951297  0.45009602  0.05221140
   0.77780238  0.89155134  0.95270785
   0.89239503  0.77836205  0.04838856
unknown system                          
           1
     8.266341    4.779098    0.000000
    -8.265695    4.777970    0.000000
     0.000000    0.000000   30.000000
   V    Mo   W    S 
   3   3   3  18
Direct configuration=    16
   0.00336250  0.65660703  0.00015697
   0.00869808  0.00861398 -0.00077742
   0.66751381  0.01727463 -0.00000503
   0.65463788  0.32613771  0.00007429
   0.34663200  0.01686713 -0.00013039
   0.99807612  0.34274796  0.00039471
   0.34687281  0.33065720 -0.00017768
   0.32080813  0.65877112  0.00036574
   0.65606570  0.64660863 -0.00018587
   0.11083913  0.21923123  0.94946195
   0.21789796  0.10939412  0.05229669
   0.10792686  0.55954267  0.94642766
   0.22322653  0.44211240  0.05198355
   0.10801004  0.88632625  0.95125152
   0.21722059  0.77754595  0.05060817
   0.44494822  0.22264379  0.94432171
   0.55962156  0.10893472  0.05409010
   0.44093650  0.55289253  0.94682410
   0.55466369  0.44164139  0.05545270
   0.45012018  0.89114800  0.94915294
   0.55799913  0.78269241  0.04905531
   0.77471615  0.21739707  0.94770951
   0.88562375  0.10639095  0.04981191
   0.78273699  0.55654390  0.94839967
   0.88929654  0.45004113  0.05224950
   0.77751844  0.89127137  0.95295692
   0.89224515  0.77817917  0.04823069
unknown system                          
           1
     8.266345    4.779098    0.000000
    -8.265705    4.777980    0.000000
     0.000000    0.000000   30.000000
   V    Mo   W    S 
   3   3   3  18
Direct configuration=    17
   0.00317270  0.65689589  0.00015237
   0.00842139  0.00828333 -0.00073755
   0.66751086  0.01668938 -0.00001739
   0.65503004  0.32627828  0.00009732
   0.34626910  0.01655186 -0.00011685
   0.99810680  0.34235455  0.00038415
   0.34637660  0.33087182 -0.00015229
   0.32134333  0.65891781  0.00036283
   0.65633316  0.64727198 -0.00016435
   0.11064753  0.21898570  0.94940544
   0.21776395  0.10934178  0.05226881
   0.10791114  0.55951480  0.94653218
   0.22317300  0.44225261  0.05205514
   0.10786433  0.88633545  0.95117329
   0.21714435  0.77738656  0.05060226
   0.44492348  0.22271273  0.94442037
   0.55958639  0.10885938  0.05401835
   0.44107382  0.55301208  0.94679853
   0.55470028  0.44176256  0.05532633
   0.45008907  0.89115961  0.94910535
   0.55804618  0.78272867  0.04919425
   0.77469167  0.21725156  0.94771547
   0.88567569  0.10629815  0.04985170
   0.78278905  0.55662587  0.94840765
   0.88946472  0.45009936  0.05220530
   0.77773493  0.89145667  0.95280160
   0.89237088  0.77831603  0.04830964
unknown system                          
           1
     8.260142    4.777416    0.000000
    -8.258907    4.775268    0.000000
     0.000000    0.000000   30.000000
   V    Mo   W    S 
   3   3   3  18
Direct configuration=    18
   0.00317208  0.65689573  0.00015231
   0.00842183  0.00828365 -0.00073758
   0.66751345  0.01669025 -0.00001748
   0.65503083  0.32627890  0.00009717
   0.34626798  0.01655381 -0.00011700
   0.99810620  0.34235366  0.00038404
   0.34637598  0.33087282 -0.00015245
   0.32134319  0.65891416  0.00036278
   0.65633333  0.64727252 -0.00016433
   0.11064704  0.21898508  0.94940536
   0.21776330  0.10934193  0.05226892
   0.10791066  0.55951440  0.94653233
   0.22317201  0.44225187  0.05205572
   0.10786372  0.88633527  0.95117328
   0.21714428  0.77738609  0.05060185
   0.44492364  0.22271349  0.94442068
   0.55958626  0.10885930  0.05401811
   0.44107445  0.55301244  0.94679827
   0.55470039  0.44176262  0.05532635
   0.45008849  0.89115923  0.94910592
   0.55804609  0.78272843  0.04919432
   0.77469164  0.21725162  0.94771534
   0.88567609  0.10629787  0.04985199
   0.78278949  0.55662631  0.94840766
   0.88946503  0.45009968  0.05220532
   0.77773564  0.89145697  0.95280140
   0.89237136  0.77831636  0.04830961
unknown system                          
           1
     8.267859    4.779348    0.000000
    -8.268437    4.780336    0.000000
     0.000000    0.000000   30.000000
   V    Mo   W    S 
   3   3   3  18
Direct configuration=    19
   0.00324937  0.65637664  0.00017214
   0.00971917  0.00963858 -0.00081303
   0.66859130  0.01924005  0.00000148
   0.65388587  0.32553719  0.00006561
   0.34716346  0.01853553 -0.00012997
   0.99723639  0.34251831  0.00041149
   0.34749398  0.33012040 -0.00021295
   0.31988606  0.65729666  0.00036816
   0.65575389  0.64542971 -0.00017001
   0.11081754  0.21931614  0.94947236
   0.21763478  0.10937244  0.05233493
   0.10776797  0.55935227  0.94635613
   0.22294113  0.44166902  0.05204993
   0.10790544  0.88628685  0.95132150
   0.21731709  0.77756783  0.05046044
   0.44506530  0.22281184  0.94425572
   0.55961618  0.10896993  0.05406225
   0.44089750  0.55288192  0.94677753
   0.55467932  0.44153001  0.05555227
   0.45002104  0.89094365  0.94942382
   0.55792189  0.78259045  0.04887015
   0.77478641  0.21753700  0.94761353
   0.88575856  0.10633481  0.04985553
   0.78297144  0.55668266  0.94837685
   0.88918764  0.45007166  0.05226312
   0.77761513  0.89131515  0.95313361
   0.89233061  0.77828773  0.04812732
unknown system                          
           1
     8.272659    4.781400    0.000000
    -8.275572    4.786429    0.000000
     0.000000    0.000000   30.000000
   V    Mo   W    S 
   3   3   3  18
Direct configuration=    20
   0.00340462  0.65589336  0.00018333
   0.00945715  0.00958351 -0.00083486
   0.66868813  0.01891693  0.00001024
   0.65455617  0.32627442  0.00005543
   0.34677109  0.01795692 -0.00015176
   0.99777613  0.34317192  0.00040088
   0.34748369  0.33076958 -0.00021649
   0.31961331  0.65701405  0.00037547
   0.65553206  0.64542031 -0.00016935
   0.11102514  0.21952843  0.94952010
   0.21797470  0.10951985  0.05234047
   0.10778248  0.55939982  0.94631569
   0.22291896  0.44157539  0.05201088
   0.10808524  0.88632242  0.95138135
   0.21736204  0.77760345  0.05045168
   0.44503739  0.22274172  0.94425900
   0.55958287  0.10906041  0.05408876
   0.44089428  0.55274244  0.94677043
   0.55461018  0.44142920  0.05558833
   0.44998977  0.89094065  0.94945267
   0.55784588  0.78252670  0.04878197
   0.77475781  0.21764480  0.94763790
   0.88567769  0.10653163  0.04984410
   0.78269810  0.55653580  0.94835627
   0.88917788  0.45000696  0.05230776
   0.77736160  0.89101026  0.95319275
   0.89215010  0.77809353  0.04804691
unknown system                          
           1
     8.272240    4.781300    0.000000
    -8.274737    4.785609    0.000000
     0.000000    0.000000   30.000000
   V    Mo   W    S 
   3   3   3  18
Direct configuration=    21
   0.00348844  0.65454216  0.00022918
   0.01080776  0.01131427 -0.00090865
   0.67015601  0.02157074  0.00008103
   0.65431232  0.32635879  0.00005307
   0.34729248  0.01958508 -0.00013908
   0.99732080  0.34412817  0.00043953
   0.34856090  0.33065790 -0.00022235
   0.31752611  0.65452455  0.00038690
   0.65462776  0.64328844 -0.00014455
   0.11144932  0.22022279  0.94958546
   0.21823654  0.10970605  0.05243144
   0.10757978  0.55923616  0.94604273
   0.22253361  0.44071326  0.05199487
   0.10830866  0.88629104  0.95160554
   0.21761619  0.77780905  0.05026341
   0.44522754  0.22281894  0.94403159
   0.55955080  0.10928669  0.05415980
   0.44066994  0.55243030  0.94667674
   0.55446902  0.44098064  0.05585096
   0.44992663  0.89065736  0.94986422
   0.55761322  0.78237507  0.04829198
   0.77488249  0.21812613  0.94749688
   0.88567440  0.10683340  0.04986441
   0.78263787  0.55647377  0.94825713
   0.88888392  0.44991567  0.05244117
   0.77694157  0.89049740  0.95363628
   0.89192038  0.77787063  0.04773023
unknown system                          
           1
     8.277953    4.785075    0.000000
    -8.278354    4.785756    0.000000
     0.000000    0.000000   30.000000
   V    Mo   W    S 
   3   3   3  18
Direct configuration=    22
   0.00350590  0.65471473  0.00022633
   0.01061136  0.01106854 -0.00089859
   0.66997438  0.02126890  0.00007259
   0.65431147  0.32633580  0.00005878
   0.34724991  0.01938334 -0.00013654
   0.99738563  0.34402785  0.00043666
   0.34847173  0.33069233 -0.00021597
   0.31776928  0.65484075  0.00038888
   0.65471502  0.64352144 -0.00014334
   0.11140886  0.22015041  0.94957851
   0.21821758  0.10969205  0.05241690
   0.10761065  0.55925855  0.94607139
   0.22259015  0.44082208  0.05199261
   0.10829046  0.88629132  0.95157483
   0.21758625  0.77779458  0.05029109
   0.44519739  0.22280085  0.94405182
   0.55955788  0.10926062  0.05414908
   0.44069367  0.55246693  0.94668497
   0.55448672  0.44103946  0.05582091
   0.44993423  0.89069532  0.94980888
   0.55764393  0.78239062  0.04835269
   0.77486028  0.21806332  0.94751567
   0.88566663  0.10679863  0.04985958
   0.78263819  0.55647554  0.94826681
   0.88891790  0.44992174  0.05242371
   0.77697700  0.89055221  0.95358043
   0.89194202  0.77788656  0.04777123
unknown system                          
           1
     8.275073    4.782192    0.000000
    -8.279897    4.790524    0.000000
     0.000000    0.000000   30.000000
   V    Mo   W    S 
   3   3   3  18
Direct configuration=    23
   0.00359050  0.65564665  0.00020961
   0.01004863  0.01032247 -0.00090214
   0.66948455  0.02038718  0.00001326
   0.65429951  0.32612656  0.00006104
   0.34700686  0.01864463 -0.00013979
   0.99739115  0.34329043  0.00043120
   0.34796853  0.33056831 -0.00020943
   0.31868102  0.65608461  0.00041073
   0.65516156  0.64441941 -0.00017392
   0.11126561  0.21977159  0.94959930
   0.21803609  0.10960647  0.05236762
   0.10770325  0.55932715  0.94615835
   0.22279126  0.44112220  0.05197592
   0.10819749  0.88636449  0.95148035
   0.21750030  0.77782282  0.05041467
   0.44511140  0.22275506  0.94407131
   0.55963599  0.10917746  0.05414654
   0.44078256  0.55255729  0.94672001
   0.55457704  0.44120859  0.05576867
   0.45003445  0.89089041  0.94961356
   0.55780523  0.78250850  0.04856466
   0.77471136  0.21782986  0.94756972
   0.88562091  0.10657336  0.04982748
   0.78262593  0.55642939  0.94830845
   0.88893232  0.44991275  0.05236019
   0.77717228  0.89084047  0.95343133
   0.89207869  0.77802635  0.04792120
unknown system                          
           1
     8.275842    4.782205    0.000000
    -8.281757    4.792425    0.000000
     0.000000    0.000000   30.000000
   V    Mo   W    S 
   3   3   3  18
Direct configuration=    24
   0.00349092  0.65394120  0.00023894
   0.01193404  0.01260398 -0.00098439
   0.67116733  0.02330259  0.00011390
   0.65417145  0.32633386  0.00002009
   0.34749807  0.02065749 -0.00015823
   0.99678018  0.34442840  0.00046652
   0.34904487  0.33029178 -0.00025726
   0.31623436  0.65303141  0.00039330
   0.65427321  0.64205076 -0.00016957
   0.11166941  0.22053808  0.94964572
   0.21824236  0.10973488  0.05250857
   0.10741787  0.55910347  0.94593268
   0.22225667  0.44012442  0.05196719
   0.10841290  0.88634540  0.95175852
   0.21779185  0.77794992  0.05013141
   0.44538317  0.22290546  0.94388737
   0.55952650  0.10939674  0.05423670
   0.44055742  0.55222343  0.94667526
   0.55438588  0.44065677  0.05601001
   0.44992363  0.89050696  0.95015038