   27   27  100    1
  0.9710400E+02  0.1002848E-08  0.1002848E-08  0.3000000E-08  0.5000000E-15
  1.000000000000000E-004
  CAR 
 unknown system                          
    159     34    120
 
  0.0000000E+00  0.0000000E+00  0.0000000E+00  0.1562500E-01
    1      -17.802950   1.000000
    2      -16.704699   1.000000
    3      -16.599884   1.000000
    4      -16.581693   1.000000
    5      -16.479151   1.000000
    6      -16.413656   1.000000
    7      -16.360893   1.000000
    8      -16.295245   1.000000
    9      -16.186455   1.000000
   10      -16.111982   1.000000
   11      -16.069618   1.000000
   12      -15.996309   1.000000
   13      -15.850512   1.000000
   14      -15.743415   1.000000
   15      -15.616619   1.000000
   16      -15.523215   1.000000
   17      -15.499015   1.000000
   18      -15.332336   1.000000
   19       -9.262137   1.000000
   20       -8.993999   1.000000
   21       -8.861402   1.000000
   22       -8.822137   1.000000
   23       -8.720666   1.000000
   24       -8.666999   1.000000
   25       -8.632067   1.000000
   26       -8.582793   1.000000
   27       -8.516586   1.000000
   28       -8.439890   1.000000
   29       -8.376819   1.000000
   30       -8.328556   1.000000
   31       -8.236583   1.000000
   32       -8.215243   1.000000
   33       -8.123880   1.000000
   34       -8.053056   1.000000
   35       -7.854299   1.000000
   36       -7.799132   1.000000
   37       -7.696115   1.000000
   38       -7.586184   1.000000
   39       -7.450317   1.000000
   40       -7.380102   1.000000
   41       -7.353432   1.000000
   42       -7.284442   1.000000
   43       -7.120587   1.000000
   44       -6.901957   1.000000
   45       -6.865756   1.000000
   46       -6.814707   1.000000
   47       -6.770404   1.000000
   48       -6.731438   1.000000
   49       -6.636695   1.000000
   50       -6.462684   1.000000
   51       -6.445582   1.000000
   52       -6.406770   1.000000
   53       -6.307224   1.000000
   54       -6.224025   1.000000
   55       -6.164313   1.000000
   56       -6.071511   1.000000
   57       -5.983502   1.000000
   58       -5.950025   1.000000
   59       -5.678992   1.000000
   60       -5.619952   1.000000
   61       -5.469574   1.000000
   62       -5.458957   1.000000
   63       -5.335856   1.000000
   64       -5.200522   1.000000
   65       -5.185760   1.000000
   66       -4.910469   1.000000
   67       -4.883445   1.000000
   68       -4.794227   1.000000
   69       -4.722839   1.000000
   70       -4.678565   1.000000
   71       -4.624126   1.000000
   72       -4.587665   1.000000
   73       -4.531361   1.000000
   74       -4.290072   1.000000
   75       -4.242653   1.000000
   76       -3.962828   1.000000
   77       -3.644758   0.998152
   78       -3.560013   0.989383
   79       -3.485834   0.962401
   80       -3.349802   0.793141
   81       -3.280514   0.628329
   82       -2.879639   0.006085
   83       -2.742232   0.000252
   84       -2.608123   0.000005
   85       -2.541938   0.000000
   86       -2.453429   0.000000
   87       -2.335882   0.000000
   88       -2.250492   0.000000
   89       -2.086736   0.000000
   90       -1.948959   0.000000
   91       -1.711794   0.000000
   92       -1.601083   0.000000
   93       -1.504374   0.000000
   94       -1.461087   0.000000
   95       -1.380983   0.000000
   96       -1.339071   0.000000
   97       -1.054955   0.000000
   98       -0.870910   0.000000
   99       -0.728956   0.000000
  100       -0.609186   0.000000
  101       -0.532804   0.000000
  102       -0.496171   0.000000
  103       -0.403325   0.000000
  104       -0.338649   0.000000
  105       -0.256796   0.000000
  106       -0.111877   0.000000
  107        0.072119   0.000000
  108        0.096787   0.000000
  109        0.181615   0.000000
  110        0.245313   0.000000
  111        0.319641   0.000000
  112        0.382887   0.000000
  113        0.541084   0.000000
  114        0.801109   0.000000
  115        0.950829   0.000000
  116        1.210414   0.000000
  117        1.283379   0.000000
  118        1.646896   0.000000
  119        1.832535   0.000000
  120        2.157728   0.000000
 
  0.1250000E+00  0.2775558E-16  0.0000000E+00  0.3125000E-01
    1      -17.777318   1.000000
    2      -16.743252   1.000000
    3      -16.704000   1.000000
    4      -16.569147   1.000000
    5      -16.546835   1.000000
    6      -16.378688   1.000000
    7      -16.304242   1.000000
    8      -16.278119   1.000000
    9      -16.190683   1.000000
   10      -16.097889   1.000000
   11      -16.012855   1.000000
   12      -15.982868   1.000000
   13      -15.828212   1.000000
   14      -15.732704   1.000000
   15      -15.625516   1.000000
   16      -15.540531   1.000000
   17      -15.500820   1.000000
   18      -15.341405   1.000000
   19       -9.246236   1.000000
   20       -9.143903   1.000000
   21       -8.985395   1.000000
   22       -8.941217   1.000000
   23       -8.765020   1.000000
   24       -8.695688   1.000000
   25       -8.603628   1.000000
   26       -8.540603   1.000000
   27       -8.501661   1.000000
   28       -8.455572   1.000000
   29       -8.353505   1.000000
   30       -8.286843   1.000000
   31       -8.191946   1.000000
   32       -8.085582   1.000000
   33       -8.077053   1.000000
   34       -7.936902   1.000000
   35       -7.800674   1.000000
   36       -7.732003   1.000000
   37       -7.633814   1.000000
   38       -7.619456   1.000000
   39       -7.483775   1.000000
   40       -7.422446   1.000000
   41       -7.302302   1.000000
   42       -7.259131   1.000000
   43       -7.124355   1.000000
   44       -6.961883   1.000000
   45       -6.891091   1.000000
   46       -6.843875   1.000000
   47       -6.768774   1.000000
   48       -6.722741   1.000000
   49       -6.601429   1.000000
   50       -6.513083   1.000000
   51       -6.428033   1.000000
   52       -6.341056   1.000000
   53       -6.324001   1.000000
   54       -6.234276   1.000000
   55       -6.187597   1.000000
   56       -6.099278   1.000000
   57       -5.970595   1.000000
   58       -5.890947   1.000000
   59       -5.702553   1.000000
   60       -5.547834   1.000000
   61       -5.503038   1.000000
   62       -5.424071   1.000000
   63       -5.389500   1.000000
   64       -5.257413   1.000000
   65       -5.118033   1.000000
   66       -5.044109   1.000000
   67       -4.969492   1.000000
   68       -4.909291   1.000000
   69       -4.826293   1.000000
   70       -4.694055   1.000000
   71       -4.630474   1.000000
   72       -4.485947   1.000000
   73       -4.364205   1.000000
   74       -4.250141   1.000000
   75       -4.105525   1.000000
   76       -3.900813   0.999999
   77       -3.793543   0.999962
   78       -3.700180   0.999508
   79       -3.530882   0.982039
   80       -3.317221   0.721395
   81       -3.115646   0.200913
   82       -2.875706   0.005622
   83       -2.758611   0.000386
   84       -2.639891   0.000013
   85       -2.549269   0.000001
   86       -2.461707   0.000000
   87       -2.334448   0.000000
   88       -2.200509   0.000000
   89       -2.084593   0.000000
   90       -1.960194   0.000000
   91       -1.695667   0.000000
   92       -1.610844   0.000000
   93       -1.523991   0.000000
   94       -1.447364   0.000000
   95       -1.353620   0.000000
   96       -1.276939   0.000000
   97       -1.057408   0.000000
   98       -0.864921   0.000000
   99       -0.731127   0.000000
  100       -0.690562   0.000000
  101       -0.590193   0.000000
  102       -0.528207   0.000000
  103       -0.505059   0.000000
  104       -0.345432   0.000000
  105       -0.288267   0.000000
  106       -0.180172   0.000000
  107        0.017342   0.000000
  108        0.038471   0.000000
  109        0.139837   0.000000
  110        0.268967   0.000000
  111        0.359036   0.000000
  112        0.398627   0.000000
  113        0.650651   0.000000
  114        0.770300   0.000000
  115        1.027678   0.000000
  116        1.198088   0.000000
  117        1.309079   0.000000
  118        1.691987   0.000000
  119        1.871330   0.000000
  120        2.193147   0.000000
 
  0.2500000E+00  0.5551115E-16  0.0000000E+00  0.3125000E-01
    1      -17.701724   1.000000
    2      -16.958746   1.000000
    3      -16.724662   1.000000
    4      -16.633430   1.000000
    5      -16.562172   1.000000
    6      -16.381439   1.000000
    7      -16.276137   1.000000
    8      -16.192714   1.000000
    9      -16.147768   1.000000
   10      -16.084246   1.000000
   11      -16.006841   1.000000
   12      -15.869903   1.000000
   13      -15.799677   1.000000
   14      -15.695313   1.000000
   15      -15.637659   1.000000
   16      -15.567810   1.000000
   17      -15.520789   1.000000
   18      -15.363368   1.000000
   19       -9.472259   1.000000
   20       -9.211066   1.000000
   21       -9.130616   1.000000
   22       -8.989695   1.000000
   23       -8.850969   1.000000
   24       -8.817560   1.000000
   25       -8.607953   1.000000
   26       -8.512685   1.000000
   27       -8.478953   1.000000
   28       -8.384938   1.000000
   29       -8.289187   1.000000
   30       -8.240242   1.000000
   31       -8.135021   1.000000
   32       -8.013015   1.000000
   33       -7.946421   1.000000
   34       -7.843108   1.000000
   35       -7.712802   1.000000
   36       -7.691902   1.000000
   37       -7.616802   1.000000
   38       -7.520860   1.000000
   39       -7.421614   1.000000
   40       -7.366264   1.000000
   41       -7.302084   1.000000
   42       -7.223216   1.000000
   43       -7.062249   1.000000
   44       -7.000677   1.000000
   45       -6.888255   1.000000
   46       -6.823648   1.000000
   47       -6.795447   1.000000
   48       -6.706912   1.000000
   49       -6.609237   1.000000
   50       -6.509529   1.000000
   51       -6.455135   1.000000
   52       -6.349773   1.000000
   53       -6.287527   1.000000
   54       -6.202428   1.000000
   55       -6.170324   1.000000
   56       -6.083355   1.000000
   57       -5.965005   1.000000
   58       -5.831767   1.000000
   59       -5.705136   1.000000
   60       -5.668247   1.000000
   61       -5.549651   1.000000
   62       -5.510653   1.000000
   63       -5.396906   1.000000
   64       -5.365366   1.000000
   65       -5.307464   1.000000
   66       -5.131775   1.000000
   67       -4.999650   1.000000
   68       -4.940574   1.000000
   69       -4.852780   1.000000
   70       -4.682828   1.000000
   71       -4.565515   1.000000
   72       -4.400213   1.000000
   73       -4.290806   1.000000
   74       -4.170128   1.000000
   75       -4.095011   1.000000
   76       -3.972039   1.000000
   77       -3.800157   0.999969
   78       -3.765500   0.999914
   79       -3.515214   0.976539
   80       -3.234080   0.499638
   81       -2.983474   0.038117
   82       -2.901764   0.009368
   83       -2.801305   0.001103
   84       -2.683283   0.000049
   85       -2.563688   0.000001
   86       -2.458161   0.000000
   87       -2.335741   0.000000
   88       -2.123435   0.000000
   89       -2.049999   0.000000
   90       -1.970266   0.000000
   91       -1.693895   0.000000
   92       -1.626849   0.000000
   93       -1.511401   0.000000
   94       -1.396321   0.000000
   95       -1.333154   0.000000
   96       -1.165821   0.000000
   97       -1.053502   0.000000
   98       -0.899812   0.000000
   99       -0.829659   0.000000
  100       -0.755707   0.000000
  101       -0.710990   0.000000
  102       -0.642932   0.000000
  103       -0.570991   0.000000
  104       -0.464971   0.000000
  105       -0.398995   0.000000
  106       -0.249958   0.000000
  107       -0.163301   0.000000
  108       -0.043415   0.000000
  109        0.088289   0.000000
  110        0.257765   0.000000
  111        0.405821   0.000000
  112        0.474175   0.000000
  113        0.722759   0.000000
  114        0.861342   0.000000
  115        1.102062   0.000000
  116        1.188331   0.000000
  117        1.427342   0.000000
  118        1.816917   0.000000
  119        1.982882   0.000000
  120        2.298327   0.000000
 
  0.3750000E+00  0.0000000E+00  0.0000000E+00  0.3125000E-01
    1      -17.581915   1.000000
    2      -17.179732   1.000000
    3      -16.746255   1.000000
    4      -16.677990   1.000000
    5      -16.550101   1.000000
    6      -16.427305   1.000000
    7      -16.237148   1.000000
    8      -16.159659   1.000000
    9      -16.077101   1.000000
   10      -16.056593   1.000000
   11      -15.980009   1.000000
   12      -15.849070   1.000000
   13      -15.744252   1.000000
   14      -15.686373   1.000000
   15      -15.647820   1.000000
   16      -15.572954   1.000000
   17      -15.534958   1.000000
   18      -15.383636   1.000000
   19       -9.698435   1.000000
   20       -9.281441   1.000000
   21       -9.207720   1.000000
   22       -8.949648   1.000000
   23       -8.913967   1.000000
   24       -8.859085   1.000000
   25       -8.599155   1.000000
   26       -8.514216   1.000000
   27       -8.421562   1.000000
   28       -8.341353   1.000000
   29       -8.289735   1.000000
   30       -8.242925   1.000000
   31       -8.130634   1.000000
   32       -7.960918   1.000000
   33       -7.895728   1.000000
   34       -7.847155   1.000000
   35       -7.717400   1.000000
   36       -7.664982   1.000000
   37       -7.602753   1.000000
   38       -7.514658   1.000000
   39       -7.346514   1.000000
   40       -7.289500   1.000000
   41       -7.218845   1.000000
   42       -7.162292   1.000000
   43       -7.011337   1.000000
   44       -6.938446   1.000000
   45       -6.837126   1.000000
   46       -6.794355   1.000000
   47       -6.697384   1.000000
   48       -6.656431   1.000000
   49       -6.553604   1.000000
   50       -6.538375   1.000000
   51       -6.386380   1.000000
   52       -6.315640   1.000000
   53       -6.278431   1.000000
   54       -6.197901   1.000000
   55       -6.087547   1.000000
   56       -6.033292   1.000000
   57       -5.961562   1.000000
   58       -5.943467   1.000000
   59       -5.847797   1.000000
   60       -5.776560   1.000000
   61       -5.692110   1.000000
   62       -5.636143   1.000000
   63       -5.602107   1.000000
   64       -5.428371   1.000000
   65       -5.289581   1.000000
   66       -5.114401   1.000000
   67       -4.958648   1.000000
   68       -4.894293   1.000000
   69       -4.819952   1.000000
   70       -4.742027   1.000000
   71       -4.628178   1.000000
   72       -4.490093   1.000000
   73       -4.326443   1.000000
   74       -4.259966   1.000000
   75       -4.011079   1.000000
   76       -3.912430   0.999999
   77       -3.712632   0.999641
   78       -3.635802   0.997742
   79       -3.480577   0.959254
   80       -3.191101   0.380254
   81       -2.992583   0.043767
   82       -2.886271   0.006941
   83       -2.840792   0.002702
   84       -2.703437   0.000087
   85       -2.580450   0.000002
   86       -2.446006   0.000000
   87       -2.344660   0.000000
   88       -2.065358   0.000000
   89       -1.994980   0.000000
   90       -1.956379   0.000000
   91       -1.714950   0.000000
   92       -1.626487   0.000000
   93       -1.479525   0.000000
   94       -1.357295   0.000000
   95       -1.305880   0.000000
   96       -1.126963   0.000000
   97       -1.064493   0.000000
   98       -0.978806   0.000000
   99       -0.928075   0.000000
  100       -0.816772   0.000000
  101       -0.762395   0.000000
  102       -0.691872   0.000000
  103       -0.608765   0.000000
  104       -0.584843   0.000000
  105       -0.518022   0.000000
  106       -0.383329   0.000000
  107       -0.262904   0.000000
  108       -0.090328   0.000000
  109        0.038356   0.000000
  110        0.255823   0.000000
  111        0.359458   0.000000
  112        0.524787   0.000000
  113        0.795775   0.000000
  114        0.951773   0.000000
  115        1.103100   0.000000
  116        1.256995   0.000000
  117        1.551933   0.000000
  118        2.003548   0.000000
  119        2.158688   0.000000
  120        2.470647   0.000000
 
  0.5000000E+00  0.1110223E-15  0.0000000E+00  0.1562500E-01
    1      -17.471009   1.000000
    2      -17.326275   1.000000
    3      -16.755297   1.000000
    4      -16.693644   1.000000
    5      -16.535267   1.000000
    6      -16.453808   1.000000
    7      -16.227266   1.000000
    8      -16.151605   1.000000
    9      -16.049534   1.000000
   10      -16.029132   1.000000
   11      -15.963263   1.000000
   12      -15.863810   1.000000
   13      -15.714559   1.000000
   14      -15.673921   1.000000
   15      -15.655776   1.000000
   16      -15.613964   1.000000
   17      -15.511684   1.000000
   18      -15.389784   1.000000
   19       -9.779610   1.000000
   20       -9.318647   1.000000
   21       -9.237315   1.000000
   22       -8.956217   1.000000
   23       -8.937368   1.000000
   24       -8.745631   1.000000
   25       -8.669751   1.000000
   26       -8.547102   1.000000
   27       -8.418773   1.000000
   28       -8.317405   1.000000
   29       -8.274709   1.000000
   30       -8.215766   1.000000
   31       -8.121915   1.000000
   32       -7.963437   1.000000
   33       -7.877545   1.000000
   34       -7.842790   1.000000
   35       -7.751865   1.000000
   36       -7.681271   1.000000
   37       -7.625461   1.000000
   38       -7.533066   1.000000
   39       -7.366592   1.000000
   40       -7.228500   1.000000
   41       -7.164472   1.000000
   42       -7.087473   1.000000
   43       -6.917249   1.000000
   44       -6.909115   1.000000
   45       -6.860765   1.000000
   46       -6.751196   1.000000
   47       -6.618588   1.000000
   48       -6.582868   1.000000
   49       -6.540776   1.000000
   50       -6.493648   1.000000
   51       -6.434344   1.000000
   52       -6.396086   1.000000
   53       -6.247713   1.000000
   54       -6.195378   1.000000
   55       -6.163450   1.000000
   56       -5.981781   1.000000
   57       -5.949618   1.000000
   58       -5.922620   1.000000
   59       -5.863025   1.000000
   60       -5.821214   1.000000
   61       -5.730698   1.000000
   62       -5.650679   1.000000
   63       -5.606685   1.000000
   64       -5.462269   1.000000
   65       -5.421486   1.000000
   66       -5.165476   1.000000
   67       -4.981719   1.000000
   68       -4.924056   1.000000
   69       -4.803696   1.000000
   70       -4.794472   1.000000
   71       -4.532820   1.000000
   72       -4.503322   1.000000
   73       -4.384253   1.000000
   74       -4.304294   1.000000
   75       -3.959457   1.000000
   76       -3.847592   0.999993
   77       -3.705572   0.999570
   78       -3.558382   0.989055
   79       -3.465629   0.949121
   80       -3.192565   0.384202
   81       -3.009014   0.055651
   82       -2.881869   0.006362
   83       -2.848590   0.003198
   84       -2.704946   0.000091
   85       -2.592738   0.000003
   86       -2.441651   0.000000
   87       -2.344184   0.000000
   88       -2.046969   0.000000
   89       -1.970109   0.000000
   90       -1.945540   0.000000
   91       -1.726507   0.000000
   92       -1.614323   0.000000
   93       -1.466743   0.000000
   94       -1.347000   0.000000
   95       -1.294450   0.000000
   96       -1.138008   0.000000
   97       -1.091374   0.000000
   98       -0.986803   0.000000
   99       -0.980606   0.000000
  100       -0.819513   0.000000
  101       -0.770799   0.000000
  102       -0.681774   0.000000
  103       -0.647311   0.000000
  104       -0.628946   0.000000
  105       -0.607931   0.000000
  106       -0.397320   0.000000
  107       -0.303661   0.000000
  108       -0.110901   0.000000
  109        0.014149   0.000000
  110        0.257855   0.000000
  111        0.333729   0.000000
  112        0.546015   0.000000
  113        0.813607   0.000000
  114        0.989273   0.000000
  115        1.100828   0.000000
  116        1.293288   0.000000
  117        1.598989   0.000000
  118        2.224774   0.000000
  119        2.259822   0.000000
  120        2.376000   0.000000
 
  0.0000000E+00  0.1250000E+00  0.0000000E+00  0.3125000E-01
    1      -17.777861   1.000000
    2      -16.783204   1.000000
    3      -16.648872   1.000000
    4      -16.610964   1.000000
    5      -16.511985   1.000000
    6      -16.373605   1.000000
    7      -16.317139   1.000000
    8      -16.240541   1.000000
    9      -16.192437   1.000000
   10      -16.107977   1.000000
   11      -16.072346   1.000000
   12      -15.939137   1.000000
   13      -15.836743   1.000000
   14      -15.736845   1.000000
   15      -15.630892   1.000000
   16      -15.537041   1.000000
   17      -15.499859   1.000000
   18      -15.338620   1.000000
   19       -9.297883   1.000000
   20       -9.103223   1.000000
   21       -8.970114   1.000000
   22       -8.872181   1.000000
   23       -8.819777   1.000000
   24       -8.711162   1.000000
   25       -8.624755   1.000000
   26       -8.568058   1.000000
   27       -8.514045   1.000000
   28       -8.423153   1.000000
   29       -8.320852   1.000000
   30       -8.235594   1.000000
   31       -8.192242   1.000000
   32       -8.135440   1.000000
   33       -8.030425   1.000000
   34       -7.957456   1.000000
   35       -7.790535   1.000000
   36       -7.742411   1.000000
   37       -7.682578   1.000000
   38       -7.581490   1.000000
   39       -7.524640   1.000000
   40       -7.428295   1.000000
   41       -7.291790   1.000000
   42       -7.239753   1.000000
   43       -7.097656   1.000000
   44       -6.976694   1.000000
   45       -6.946406   1.000000
   46       -6.804781   1.000000
   47       -6.774703   1.000000
   48       -6.690716   1.000000
   49       -6.572473   1.000000
   50       -6.476140   1.000000
   51       -6.437372   1.000000
   52       -6.361317   1.000000
   53       -6.335745   1.000000
   54       -6.267541   1.000000
   55       -6.207871   1.000000
   56       -6.073232   1.000000
   57       -6.027317   1.000000
   58       -5.888104   1.000000
   59       -5.690992   1.000000
   60       -5.592069   1.000000
   61       -5.511602   1.000000
   62       -5.447186   1.000000
   63       -5.379572   1.000000
   64       -5.227904   1.000000
   65       -5.164977   1.000000
   66       -5.037032   1.000000
   67       -4.960352   1.000000
   68       -4.796074   1.000000
   69       -4.742539   1.000000
   70       -4.717803   1.000000
   71       -4.631699   1.000000
   72       -4.530822   1.000000
   73       -4.428772   1.000000
   74       -4.221935   1.000000
   75       -4.113771   1.000000
   76       -3.956604   1.000000
   77       -3.752216   0.999875
   78       -3.691025   0.999381
   79       -3.549465   0.987100
   80       -3.239923   0.516117
   81       -3.202066   0.410104
   82       -2.873112   0.005335
   83       -2.745415   0.000274
   84       -2.604930   0.000004
   85       -2.538692   0.000000
   86       -2.444697   0.000000
   87       -2.331913   0.000000
   88       -2.231327   0.000000
   89       -2.070915   0.000000
   90       -1.947382   0.000000
   91       -1.707590   0.000000
   92       -1.600251   0.000000
   93       -1.512767   0.000000
   94       -1.447754   0.000000
   95       -1.356084   0.000000
   96       -1.321840   0.000000
   97       -1.055621   0.000000
   98       -0.858803   0.000000
   99       -0.742727   0.000000
  100       -0.689768   0.000000
  101       -0.609409   0.000000
  102       -0.540288   0.000000
  103       -0.481760   0.000000
  104       -0.372913   0.000000
  105       -0.310752   0.000000
  106       -0.217128   0.000000
  107       -0.045101   0.000000
  108        0.081155   0.000000
  109        0.231995   0.000000
  110        0.322902   0.000000
  111        0.366474   0.000000
  112        0.427410   0.000000
  113        0.651200   0.000000
  114        0.852706   0.000000
  115        0.956198   0.000000
  116        1.188879   0.000000
  117        1.229958   0.000000
  118        1.689687   0.000000
  119        1.873152   0.000000
  120        2.192486   0.000000
 
  0.1250000E+00  0.1250000E+00  0.0000000E+00  0.3125000E-01
    1      -17.727711   1.000000
    2      -16.883472   1.000000
    3      -16.784553   1.000000
    4      -16.610939   1.000000
    5      -16.476902   1.000000
    6      -16.385624   1.000000
    7      -16.279213   1.000000
    8      -16.203420   1.000000
    9      -16.179324   1.000000
   10      -16.092170   1.000000
   11      -16.024213   1.000000
   12      -15.913927   1.000000
   13      -15.788433   1.000000
   14      -15.723506   1.000000
   15      -15.643580   1.000000
   16      -15.558719   1.000000
   17      -15.507922   1.000000
   18      -15.351445   1.000000
   19       -9.404848   1.000000
   20       -9.249239   1.000000
   21       -9.073203   1.000000
   22       -8.997849   1.000000
   23       -8.792461   1.000000
   24       -8.717942   1.000000
   25       -8.637874   1.000000
   26       -8.528823   1.000000
   27       -8.481806   1.000000
   28       -8.382174   1.000000
   29       -8.320364   1.000000
   30       -8.220150   1.000000
   31       -8.145845   1.000000
   32       -8.034231   1.000000
   33       -7.979932   1.000000
   34       -7.869050   1.000000
   35       -7.762288   1.000000
   36       -7.738010   1.000000
   37       -7.626243   1.000000
   38       -7.511168   1.000000
   39       -7.443591   1.000000
   40       -7.374771   1.000000
   41       -7.313722   1.000000
   42       -7.183703   1.000000
   43       -7.119455   1.000000
   44       -6.993573   1.000000
   45       -6.940286   1.000000
   46       -6.837033   1.000000
   47       -6.782004   1.000000
   48       -6.683341   1.000000
   49       -6.584232   1.000000
   50       -6.482486   1.000000
   51       -6.399416   1.000000
   52       -6.353257   1.000000
   53       -6.318391   1.000000
   54       -6.266026   1.000000
   55       -6.214676   1.000000
   56       -6.102932   1.000000
   57       -5.997351   1.000000
   58       -5.863901   1.000000
   59       -5.721885   1.000000
   60       -5.663108   1.000000
   61       -5.511967   1.000000
   62       -5.480074   1.000000
   63       -5.387017   1.000000
   64       -5.298763   1.000000
   65       -5.164788   1.000000
   66       -5.102686   1.000000
   67       -5.061983   1.000000
   68       -4.970473   1.000000
   69       -4.842876   1.000000
   70       -4.619607   1.000000
   71       -4.538607   1.000000
   72       -4.431216   1.000000
   73       -4.333993   1.000000
   74       -4.201816   1.000000
   75       -4.093292   1.000000
   76       -3.916075   0.999999
   77       -3.844122   0.999992
   78       -3.789349   0.999957
   79       -3.561114   0.989599
   80       -3.192963   0.385276
   81       -3.064915   0.115637
   82       -2.872883   0.005310
   83       -2.783428   0.000718
   84       -2.622108   0.000008
   85       -2.546208   0.000001
   86       -2.433266   0.000000
   87       -2.340206   0.000000
   88       -2.169639   0.000000
   89       -2.039828   0.000000
   90       -1.944534   0.000000
   91       -1.687614   0.000000
   92       -1.609443   0.000000
   93       -1.531684   0.000000
   94       -1.429768   0.000000
   95       -1.337234   0.000000
   96       -1.248210   0.000000
   97       -1.063211   0.000000
   98       -0.855599   0.000000
   99       -0.798742   0.000000
  100       -0.745710   0.000000
  101       -0.686355   0.000000
  102       -0.618165   0.000000
  103       -0.566279   0.000000
  104       -0.486606   0.000000
  105       -0.408662   0.000000
  106       -0.261441   0.000000
  107       -0.097994   0.000000
  108        0.004802   0.000000
  109        0.152057   0.000000
  110        0.316447   0.000000
  111        0.434964   0.000000
  112        0.497701   0.000000
  113        0.779346   0.000000
  114        0.874928   0.000000
  115        1.041581   0.000000
  116        1.152724   0.000000
  117        1.240884   0.000000
  118        1.773035   0.000000
  119        1.949749   0.000000
  120        2.262185   0.000000
 
  0.2500000E+00  0.1250000E+00  0.0000000E+00  0.3125000E-01
    1      -17.629768   1.000000
    2      -17.064031   1.000000
    3      -16.890061   1.000000
    4      -16.595307   1.000000
    5      -16.473856   1.000000
    6      -16.391665   1.000000
    7      -16.267803   1.000000
    8      -16.191637   1.000000
    9      -16.108050   1.000000
   10      -16.045284   1.000000
   11      -15.986902   1.000000
   12      -15.881444   1.000000
   13      -15.791555   1.000000
   14      -15.678151   1.000000
   15      -15.639916   1.000000
   16      -15.562029   1.000000
   17      -15.541831   1.000000
   18      -15.364344   1.000000
   19       -9.606909   1.000000
   20       -9.384405   1.000000
   21       -9.199371   1.000000
   22       -8.978700   1.000000
   23       -8.822020   1.000000
   24       -8.706228   1.000000
   25       -8.593921   1.000000
   26       -8.489958   1.000000
   27       -8.426871   1.000000
   28       -8.367246   1.000000
   29       -8.303099   1.000000
   30       -8.244387   1.000000
   31       -8.140396   1.000000
   32       -8.044762   1.000000
   33       -7.945602   1.000000
   34       -7.884467   1.000000
   35       -7.769826   1.000000
   36       -7.632893   1.000000
   37       -7.545771   1.000000
   38       -7.431510   1.000000
   39       -7.391716   1.000000
   40       -7.308415   1.000000
   41       -7.244635   1.000000
   42       -7.175484   1.000000
   43       -7.045560   1.000000
   44       -6.978521   1.000000
   45       -6.860793   1.000000
   46       -6.805618   1.000000
   47       -6.704709   1.000000