       N       E                     dE             d eps       ncg     rms          rms(c)
DAV:   1     0.112414599184E+04    0.11241E+04   -0.35871E+04  8160   0.577E+02
DAV:   2    -0.179311724640E+01   -0.11259E+04   -0.10814E+04 11240   0.173E+02
DAV:   3    -0.199833377380E+03   -0.19804E+03   -0.18999E+03 10880   0.821E+01
DAV:   4    -0.208982959680E+03   -0.91496E+01   -0.88842E+01 12080   0.262E+01
DAV:   5    -0.209305982131E+03   -0.32302E+00   -0.32214E+00 11240   0.368E+00    0.275E+01
DAV:   6    -0.236783971413E+03   -0.27478E+02   -0.11020E+02 12720   0.603E+01    0.595E+01
DAV:   7    -0.196505081752E+03    0.40279E+02   -0.17769E+02 13200   0.152E+02    0.200E+01
DAV:   8    -0.189481965952E+03    0.70231E+01   -0.17588E+01 11880   0.128E+01    0.127E+01
DAV:   9    -0.188168148687E+03    0.13138E+01   -0.31292E+00 12440   0.630E+00    0.914E+00
DAV:  10    -0.187033520378E+03    0.11346E+01   -0.21282E+00 13360   0.740E+00    0.303E+00
DAV:  11    -0.186942102587E+03    0.91418E-01   -0.59058E-01 12320   0.231E+00    0.231E+00
DAV:  12    -0.187046758797E+03   -0.10466E+00   -0.65982E-01 12560   0.409E+00    0.448E+00
DAV:  13    -0.186881144952E+03    0.16561E+00   -0.44148E-01 12600   0.389E+00    0.208E+00
DAV:  14    -0.186845486209E+03    0.35659E-01   -0.10628E-01 13120   0.178E+00    0.124E+00
DAV:  15    -0.186839857137E+03    0.56291E-02   -0.61384E-02 12160   0.147E+00    0.108E+00
DAV:  16    -0.186829574108E+03    0.10283E-01   -0.18857E-02 12960   0.683E-01    0.465E-01
DAV:  17    -0.186827454103E+03    0.21200E-02   -0.90161E-03 12840   0.465E-01    0.244E-01
DAV:  18    -0.186827109376E+03    0.34473E-03   -0.20844E-03 12000   0.139E-01    0.174E-01
DAV:  19    -0.186826760918E+03    0.34846E-03   -0.94320E-04 10240   0.126E-01    0.516E-02
DAV:  20    -0.186827352408E+03   -0.59149E-03   -0.61556E-04  9520   0.576E-02    0.548E-02
DAV:  21    -0.186828010373E+03   -0.65797E-03   -0.40146E-04  9120   0.570E-02    0.435E-02
DAV:  22    -0.186829192641E+03   -0.11823E-02   -0.22846E-04  7600   0.594E-02    0.409E-02
DAV:  23    -0.186830456262E+03   -0.12636E-02   -0.15307E-04  7560   0.464E-02    0.115E-02
DAV:  24    -0.186831054316E+03   -0.59805E-03   -0.31749E-05  6680   0.141E-02    0.906E-03
DAV:  25    -0.186831439010E+03   -0.38469E-03   -0.17676E-05  5680   0.136E-02    0.561E-03
DAV:  26    -0.186831656247E+03   -0.21724E-03   -0.85275E-06  6840   0.748E-03    0.207E-03
DAV:  27    -0.186831763507E+03   -0.10726E-03   -0.39603E-06  6920   0.442E-03    0.128E-03
DAV:  28    -0.186831808835E+03   -0.45328E-04   -0.21183E-06  7320   0.349E-03
   1 F= -.18683181E+03 E0= -.18665906E+03  d E =-.186832E+03
       N       E                     dE             d eps       ncg     rms          rms(c)
DAV:   1    -0.187464431398E+03   -0.63267E+00   -0.27311E+02  8160   0.351E+01    0.463E+00
DAV:   2    -0.189363170719E+03   -0.18987E+01   -0.20262E+01 12200   0.153E+01    0.868E+00
DAV:   3    -0.189343547758E+03    0.19623E-01   -0.40259E+00 12480   0.120E+01    0.670E+00
DAV:   4    -0.188739897705E+03    0.60365E+00   -0.64030E-01 12640   0.469E+00    0.185E+00
DAV:   5    -0.188745240791E+03   -0.53431E-02   -0.29605E-01 11080   0.148E+00    0.228E+00
DAV:   6    -0.188671385790E+03    0.73855E-01   -0.28719E-01 11240   0.160E+00    0.135E+00
DAV:   7    -0.188687303428E+03   -0.15918E-01   -0.14775E-01 12000   0.219E+00    0.230E+00
DAV:   8    -0.188647928248E+03    0.39375E-01   -0.79010E-02 13120   0.170E+00    0.559E-01
DAV:   9    -0.188644692290E+03    0.32360E-02   -0.95645E-03 11160   0.470E-01    0.400E-01
DAV:  10    -0.188644458310E+03    0.23398E-03   -0.56245E-03 13600   0.423E-01    0.350E-01
DAV:  11    -0.188643477301E+03    0.98101E-03   -0.32689E-03 12960   0.275E-01    0.130E-01
DAV:  12    -0.188643519992E+03   -0.42691E-04   -0.10047E-03 12240   0.938E-02    0.107E-01
DAV:  13    -0.188643430531E+03    0.89460E-04   -0.32249E-04  7640   0.621E-02
   2 F= -.18864343E+03 E0= -.18850107E+03  d E =-.181162E+01
       N       E                     dE             d eps       ncg     rms          rms(c)
DAV:   1    -0.190563479607E+03   -0.19200E+01   -0.31202E+01  9240   0.142E+01    0.445E+00
DAV:   2    -0.190550885472E+03    0.12594E-01   -0.28455E+00 11400   0.969E+00    0.744E+00
DAV:   3    -0.190037776186E+03    0.51311E+00   -0.13547E+00 12360   0.865E+00    0.413E+00
DAV:   4    -0.189832403198E+03    0.20537E+00   -0.70742E-01 12720   0.407E+00    0.246E+00
DAV:   5    -0.189745005465E+03    0.87398E-01   -0.29143E-01 11640   0.187E+00    0.826E-01
DAV:   6    -0.189729858196E+03    0.15147E-01   -0.39474E-02 10600   0.673E-01    0.241E-01
DAV:   7    -0.189731491126E+03   -0.16329E-02   -0.82082E-03 12360   0.444E-01    0.428E-01
DAV:   8    -0.189730248000E+03    0.12431E-02   -0.33106E-03 12280   0.367E-01    0.173E-01
DAV:   9    -0.189730266994E+03   -0.18995E-04   -0.10089E-03 10120   0.138E-01    0.124E-01
DAV:  10    -0.189730304079E+03   -0.37085E-04   -0.60689E-04 10600   0.121E-01
   3 F= -.18973030E+03 E0= -.18960976E+03  d E =-.108687E+01
       N       E                     dE             d eps       ncg     rms          rms(c)
DAV:   1    -0.191293253198E+03   -0.15630E+01   -0.75083E+01  8160   0.198E+01    0.464E+00
DAV:   2    -0.191193284149E+03    0.99969E-01   -0.55285E+00 13120   0.847E+00    0.532E+00
DAV:   3    -0.191198443068E+03   -0.51589E-02   -0.16491E+00 12160   0.926E+00    0.629E+00
DAV:   4    -0.190864405380E+03    0.33404E+00   -0.13454E+00 12760   0.724E+00    0.322E+00
DAV:   5    -0.190851037601E+03    0.13368E-01   -0.56098E-01 11920   0.487E+00    0.335E+00
DAV:   6    -0.190712463752E+03    0.13857E+00   -0.21891E-01 12240   0.330E+00    0.928E-01
DAV:   7    -0.190703811507E+03    0.86522E-02   -0.41554E-02 12480   0.945E-01    0.427E-01
DAV:   8    -0.190701041025E+03    0.27705E-02   -0.70299E-03 10200   0.362E-01    0.212E-01
DAV:   9    -0.190701217941E+03   -0.17692E-03   -0.20604E-03 11480   0.312E-01    0.242E-01
DAV:  10    -0.190701133838E+03    0.84103E-04   -0.15454E-03 10760   0.253E-01    0.134E-01
DAV:  11    -0.190700958347E+03    0.17549E-03   -0.83867E-04 10320   0.120E-01    0.518E-02
DAV:  12    -0.190700943590E+03    0.14756E-04   -0.14992E-04  7960   0.454E-02
   4 F= -.19070094E+03 E0= -.19059650E+03  d E =-.970640E+00
       N       E                     dE             d eps       ncg     rms          rms(c)
DAV:   1    -0.192017885546E+03   -0.13169E+01   -0.15535E+02  8160   0.278E+01    0.564E+00
DAV:   2    -0.191878818721E+03    0.13907E+00   -0.94456E+00 12280   0.928E+00    0.499E+00
DAV:   3    -0.192203038178E+03   -0.32422E+00   -0.24288E+00 11400   0.109E+01    0.932E+00
DAV:   4    -0.191576413537E+03    0.62662E+00   -0.27975E+00 12080   0.113E+01    0.399E+00
DAV:   5    -0.191509901535E+03    0.66512E-01   -0.80092E-01 12240   0.580E+00    0.366E+00
DAV:   6    -0.191333064364E+03    0.17684E+00   -0.28888E-01 12240   0.392E+00    0.959E-01
DAV:   7    -0.191326522069E+03    0.65423E-02   -0.55869E-02 12240   0.118E+00    0.590E-01
DAV:   8    -0.191324871630E+03    0.16504E-02   -0.20038E-02 11920   0.874E-01    0.652E-01
DAV:   9    -0.191320883814E+03    0.39878E-02   -0.69629E-03 11840   0.598E-01    0.176E-01
DAV:  10    -0.191321320436E+03   -0.43662E-03   -0.20440E-03 10960   0.171E-01    0.125E-01
DAV:  11    -0.191321084903E+03    0.23553E-03   -0.79954E-04 11280   0.106E-01    0.480E-02
DAV:  12    -0.191321087000E+03   -0.20967E-05   -0.11773E-04  6520   0.403E-02
   5 F= -.19132109E+03 E0= -.19122051E+03  d E =-.620143E+00
       N       E                     dE             d eps       ncg     rms          rms(c)
DAV:   1    -0.191362325772E+03   -0.41241E-01   -0.38021E+00  8160   0.410E+00    0.514E-01
DAV:   2    -0.191403633229E+03   -0.41307E-01   -0.20422E-01 12640   0.230E+00    0.181E+00
DAV:   3    -0.191374112056E+03    0.29521E-01   -0.70872E-02 12120   0.181E+00    0.454E-01
DAV:   4    -0.191373997192E+03    0.11486E-03   -0.94790E-03 11040   0.667E-01    0.454E-01
DAV:   5    -0.191371914224E+03    0.20830E-02   -0.51031E-03 10320   0.517E-01    0.193E-01
DAV:   6    -0.191371798552E+03    0.11567E-03   -0.16128E-03 10280   0.221E-01    0.162E-01
DAV:   7    -0.191372156698E+03   -0.35815E-03   -0.21312E-03 10640   0.330E-01    0.248E-01
DAV:   8    -0.191371511762E+03    0.64494E-03   -0.10490E-03  9080   0.223E-01    0.331E-02
DAV:   9    -0.191371526037E+03   -0.14276E-04   -0.89572E-05  5880   0.369E-02
   6 F= -.19137153E+03 E0= -.19126919E+03  d E =-.504390E-01
       N       E                     dE             d eps       ncg     rms          rms(c)
DAV:   1    -0.191415692912E+03   -0.44181E-01   -0.47040E+00  8160   0.455E+00    0.513E-01
DAV:   2    -0.191446792301E+03   -0.31099E-01   -0.15706E-01 12920   0.180E+00    0.164E+00
DAV:   3    -0.191423763261E+03    0.23029E-01   -0.64885E-02 12200   0.172E+00    0.522E-01
DAV:   4    -0.191422330879E+03    0.14324E-02   -0.92625E-03 11080   0.591E-01    0.400E-01
DAV:   5    -0.191421056118E+03    0.12748E-02   -0.53136E-03 10840   0.522E-01    0.254E-01
DAV:   6    -0.191420666259E+03    0.38986E-03   -0.24630E-03 10120   0.305E-01    0.189E-01
DAV:   7    -0.191420916107E+03   -0.24985E-03   -0.23895E-03 10960   0.346E-01    0.240E-01
DAV:   8    -0.191420322882E+03    0.59323E-03   -0.11038E-03  9120   0.229E-01    0.438E-02
DAV:   9    -0.191420314431E+03    0.84515E-05   -0.10001E-04  5640   0.436E-02
   7 F= -.19142031E+03 E0= -.19131667E+03  d E =-.487884E-01
       N       E                     dE             d eps       ncg     rms          rms(c)
DAV:   1    -0.191432501329E+03   -0.12178E-01   -0.26497E-01  8160   0.110E+00    0.152E-01
DAV:   2    -0.191434401038E+03   -0.18997E-02   -0.10969E-02 12120   0.521E-01    0.421E-01
DAV:   3    -0.191432757987E+03    0.16431E-02   -0.40177E-03 11520   0.447E-01    0.133E-01
DAV:   4    -0.191432819336E+03   -0.61349E-04   -0.89310E-04  8520   0.212E-01
   8 F= -.19143282E+03 E0= -.19132894E+03  d E =-.125049E-01
       N       E                     dE             d eps       ncg     rms          rms(c)
DAV:   1    -0.191401487039E+03    0.31271E-01   -0.20368E+00  8160   0.302E+00    0.349E-01
DAV:   2    -0.191410477641E+03   -0.89906E-02   -0.72654E-02 12240   0.116E+00    0.747E-01
DAV:   3    -0.191404653360E+03    0.58243E-02   -0.16312E-02 12280   0.908E-01    0.282E-01
DAV:   4    -0.191404744164E+03   -0.90804E-04   -0.46343E-03 11200   0.422E-01    0.335E-01
DAV:   5    -0.191403862129E+03    0.88204E-03   -0.35528E-03 11000   0.404E-01    0.194E-01
DAV:   6    -0.191403555844E+03    0.30628E-03   -0.13591E-03  9920   0.205E-01    0.886E-02
DAV:   7    -0.191403562145E+03   -0.63012E-05   -0.55133E-04  9840   0.135E-01
   9 F= -.19140356E+03 E0= -.19130023E+03  d E =0.292572E-01
       N       E                     dE             d eps       ncg     rms          rms(c)
DAV:   1    -0.191423229454E+03   -0.19674E-01   -0.13695E+00  8160   0.247E+00    0.283E-01
DAV:   2    -0.191430845319E+03   -0.76159E-02   -0.45573E-02 12320   0.880E-01    0.793E-01
DAV:   3    -0.191425585508E+03    0.52598E-02   -0.18049E-02 11960   0.891E-01    0.333E-01
DAV:   4    -0.191424727589E+03    0.85792E-03   -0.29493E-03 11040   0.325E-01    0.201E-01
DAV:   5    -0.191424469000E+03    0.25859E-03   -0.15572E-03 10080   0.286E-01    0.148E-01
DAV:   6    -0.191424294773E+03    0.17423E-03   -0.84817E-04 10400   0.172E-01    0.922E-02
DAV:   7    -0.191424404000E+03   -0.10923E-03   -0.68418E-04  9080   0.184E-01    0.142E-01
DAV:   8    -0.191424203421E+03    0.20058E-03   -0.37349E-04  7840   0.141E-01    0.238E-02
DAV:   9    -0.191424209542E+03   -0.61208E-05   -0.33711E-05  5520   0.265E-02
  10 F= -.19142421E+03 E0= -.19132037E+03  d E =-.206474E-01
       N       E                     dE             d eps       ncg     rms          rms(c)
DAV:   1    -0.191448322353E+03   -0.24119E-01   -0.10949E+00  8160   0.224E+00    0.301E-01
DAV:   2    -0.191451099578E+03   -0.27772E-02   -0.34965E-02 13480   0.768E-01    0.513E-01
DAV:   3    -0.191449142492E+03    0.19571E-02   -0.10093E-02 12080   0.718E-01    0.318E-01
DAV:   4    -0.191448697548E+03    0.44494E-03   -0.40009E-03 11360   0.425E-01    0.285E-01
DAV:   5    -0.191448209527E+03    0.48802E-03   -0.29871E-03 10000   0.394E-01    0.221E-01
DAV:   6    -0.191447722346E+03    0.48718E-03   -0.12446E-03  9800   0.220E-01    0.697E-02
DAV:   7    -0.191447716596E+03    0.57492E-05   -0.38946E-04  7440   0.108E-01
  11 F= -.19144772E+03 E0= -.19134360E+03  d E =-.235071E-01
       N       E                     dE             d eps       ncg     rms          rms(c)
DAV:   1    -0.191406578730E+03    0.41144E-01   -0.29786E+00  8160   0.363E+00    0.393E-01
DAV:   2    -0.191420632294E+03   -0.14054E-01   -0.86802E-02 12520   0.129E+00    0.102E+00
DAV:   3    -0.191410777214E+03    0.98551E-02   -0.24735E-02 12160   0.113E+00    0.385E-01
DAV:   4    -0.191410194079E+03    0.58314E-03   -0.49756E-03 11000   0.470E-01    0.308E-01
DAV:   5    -0.191409393861E+03    0.80022E-03   -0.34231E-03 10800   0.429E-01    0.201E-01
DAV:   6    -0.191409068668E+03    0.32519E-03   -0.14685E-03 11440   0.223E-01    0.887E-02
DAV:   7    -0.191408953415E+03    0.11525E-03   -0.42905E-04  8840   0.850E-02    0.385E-02
DAV:   8    -0.191408944619E+03    0.87951E-05   -0.10307E-04  7600   0.634E-02
  12 F= -.19140894E+03 E0= -.19130515E+03  d E =0.387720E-01
       N       E                     dE             d eps       ncg     rms          rms(c)
DAV:   1    -0.191346425906E+03    0.62528E-01   -0.13675E+01  8160   0.775E+00    0.810E-01
DAV:   2    -0.191407638173E+03   -0.61212E-01   -0.34955E-01 12760   0.262E+00    0.229E+00
DAV:   3    -0.191365283311E+03    0.42355E-01   -0.12365E-01 12000   0.250E+00    0.821E-01
DAV:   4    -0.191359776960E+03    0.55064E-02   -0.17654E-02 11440   0.747E-01    0.415E-01
DAV:   5    -0.191358063905E+03    0.17131E-02   -0.89411E-03 11400   0.597E-01    0.410E-01
DAV:   6    -0.191357721017E+03    0.34289E-03   -0.77518E-03 11840   0.631E-01    0.337E-01
DAV:   7    -0.191357156087E+03    0.56493E-03   -0.39212E-03 11720   0.406E-01    0.273E-01
DAV:   8    -0.191356426429E+03    0.72966E-03   -0.15995E-03  9880   0.279E-01    0.731E-02
DAV:   9    -0.191356384413E+03    0.42017E-04   -0.16195E-04  6040   0.702E-02
  13 F= -.19135638E+03 E0= -.19125383E+03  d E =0.525602E-01
       N       E                     dE             d eps       ncg     rms          rms(c)
DAV:   1    -0.191360056744E+03   -0.36303E-02   -0.17739E+00  8160   0.280E+00    0.314E-01
DAV:   2    -0.191369440618E+03   -0.93839E-02   -0.50392E-02 13600   0.978E-01    0.862E-01
DAV:   3    -0.191362248937E+03    0.71917E-02   -0.20124E-02 12240   0.994E-01    0.310E-01
DAV:   4    -0.191362154778E+03    0.94158E-04   -0.35397E-03 10600   0.392E-01    0.292E-01
DAV:   5    -0.191361312984E+03    0.84179E-03   -0.18822E-03  9920   0.328E-01    0.124E-01
DAV:   6    -0.191361277324E+03    0.35660E-04   -0.76674E-04 10240   0.143E-01
  14 F= -.19136128E+03 E0= -.19125831E+03  d E =-.489291E-02
       N       E                     dE             d eps       ncg     rms          rms(c)
DAV:   1    -0.191377700173E+03   -0.16387E-01   -0.13680E+00  8160   0.251E+00    0.413E-01
DAV:   2    -0.191403321502E+03   -0.25621E-01   -0.84516E-02 12840   0.171E+00    0.168E+00
DAV:   3    -0.191378638637E+03    0.24683E-01   -0.50811E-02 11680   0.153E+00    0.306E-01
DAV:   4    -0.191378669277E+03   -0.30640E-04   -0.54838E-03 11480   0.475E-01    0.341E-01
DAV:   5    -0.191377710558E+03    0.95872E-03   -0.36570E-03 10920   0.428E-01    0.206E-01
DAV:   6    -0.191377452867E+03    0.25769E-03   -0.16036E-03  9640   0.262E-01    0.168E-01
DAV:   7    -0.191377299477E+03    0.15339E-03   -0.11086E-03  9680   0.233E-01    0.108E-01
DAV:   8    -0.191377164603E+03    0.13487E-03   -0.28415E-04  7120   0.104E-01    0.241E-02
DAV:   9    -0.191377156072E+03    0.85312E-05   -0.43104E-05  6560   0.276E-02
  15 F= -.19137716E+03 E0= -.19127280E+03  d E =-.158787E-01
       N       E                     dE             d eps       ncg     rms          rms(c)
DAV:   1    -0.191393447688E+03   -0.16283E-01   -0.12875E+00  8160   0.241E+00    0.298E-01
DAV:   2    -0.191403353378E+03   -0.99057E-02   -0.49473E-02 12800   0.110E+00    0.956E-01
DAV:   3    -0.191395361013E+03    0.79924E-02   -0.20569E-02 11600   0.959E-01    0.274E-01
DAV:   4    -0.191395416060E+03   -0.55047E-04   -0.36285E-03 11160   0.408E-01    0.290E-01
DAV:   5    -0.191394584917E+03    0.83114E-03   -0.21740E-03 10440   0.337E-01    0.124E-01
DAV:   6    -0.191394436680E+03    0.14824E-03   -0.67818E-04 10000   0.128E-01    0.597E-02
DAV:   7    -0.191394498971E+03   -0.62291E-04   -0.37086E-04  8520   0.126E-01
  16 F= -.19139450E+03 E0= -.19128919E+03  d E =-.173429E-01
       N       E                     dE             d eps       ncg     rms          rms(c)
DAV:   1    -0.191380007823E+03    0.14429E-01   -0.83948E-01  8160   0.195E+00    0.239E-01
DAV:   2    -0.191385227930E+03   -0.52201E-02   -0.30039E-02 12200   0.835E-01    0.668E-01
DAV:   3    -0.191380959262E+03    0.42687E-02   -0.10441E-02 12160   0.705E-01    0.209E-01
DAV:   4    -0.191380980714E+03   -0.21452E-04   -0.21491E-03  9920   0.316E-01    0.226E-01
DAV:   5    -0.191380505963E+03    0.47475E-03   -0.14783E-03 10040   0.279E-01    0.109E-01
DAV:   6    -0.191380374680E+03    0.13128E-03   -0.45849E-04  8280   0.109E-01    0.361E-02
DAV:   7    -0.191380365295E+03    0.93851E-05   -0.11830E-04  6640   0.487E-02
  17 F= -.19138037E+03 E0= -.19127566E+03  d E =0.141337E-01
       N       E                     dE             d eps       ncg     rms          rms(c)
DAV:   1    -0.191375452113E+03    0.49226E-02   -0.13393E-01  8160   0.777E-01    0.903E-02
DAV:   2    -0.191376349269E+03   -0.89716E-03   -0.43464E-03 13080   0.312E-01    0.285E-01
DAV:   3    -0.191375582387E+03    0.76688E-03   -0.16734E-03  9600   0.285E-01    0.702E-02
DAV:   4    -0.191375563471E+03    0.18916E-04   -0.13470E-04  5480   0.648E-02
  18 F= -.19137556E+03 E0= -.19127104E+03  d E =0.480182E-02
       N       E                     dE             d eps       ncg     rms          rms(c)
DAV:   1    -0.191378588750E+03   -0.30064E-02   -0.35854E-01  8160   0.127E+00    0.144E-01
DAV:   2    -0.191380626876E+03   -0.20381E-02   -0.13783E-02 13320   0.534E-01    0.356E-01
DAV:   3    -0.191379344819E+03    0.12821E-02   -0.36878E-03 11680   0.426E-01    0.131E-01
DAV:   4    -0.191379355905E+03   -0.11086E-04   -0.86136E-04  8600   0.185E-01
  19 F= -.19137936E+03 E0= -.19127420E+03  d E =-.379243E-02
       N       E                     dE             d eps       ncg     rms          rms(c)
DAV:   1    -0.191391810535E+03   -0.12466E-01   -0.89616E-01  8160   0.204E+00    0.268E-01
DAV:   2    -0.191397583025E+03   -0.57725E-02   -0.31747E-02 12640   0.832E-01    0.782E-01
DAV:   3    -0.191392564886E+03    0.50181E-02   -0.14782E-02 11680   0.804E-01    0.260E-01
DAV:   4    -0.191391986782E+03    0.57810E-03   -0.21959E-03 11360   0.268E-01    0.144E-01
DAV:   5    -0.191391992195E+03   -0.54138E-05   -0.14465E-03 10640   0.270E-01    0.181E-01
DAV:   6    -0.191391676172E+03    0.31602E-03   -0.95125E-04 10000   0.203E-01    0.726E-02
DAV:   7    -0.191391717291E+03   -0.41119E-04   -0.35197E-04  7520   0.131E-01
  20 F= -.19139172E+03 E0= -.19128590E+03  d E =-.123614E-01
       N       E                     dE             d eps       ncg     rms          rms(c)
DAV:   1    -0.191400454519E+03   -0.87783E-02   -0.45214E-01  8160   0.143E+00    0.178E-01
DAV:   2    -0.191404192073E+03   -0.37376E-02   -0.18214E-02 13240   0.664E-01    0.576E-01
DAV:   3    -0.191401219878E+03    0.29722E-02   -0.74860E-03 11320   0.581E-01    0.168E-01
DAV:   4    -0.191401205745E+03    0.14133E-04   -0.12353E-03  9600   0.228E-01    0.161E-01
DAV:   5    -0.191400963692E+03    0.24205E-03   -0.68971E-04  9200   0.192E-01    0.763E-02
DAV:   6    -0.191400913794E+03    0.49898E-04   -0.20949E-04  6160   0.845E-02
  21 F= -.19140091E+03 E0= -.19129461E+03  d E =-.919650E-02
       N       E                     dE             d eps       ncg     rms          rms(c)
DAV:   1    -0.191405341783E+03   -0.43781E-02   -0.13923E-01  8160   0.807E-01    0.140E-01
DAV:   2    -0.191408383392E+03   -0.30416E-02   -0.89882E-03 11920   0.615E-01    0.555E-01
DAV:   3    -0.191405233283E+03    0.31501E-02   -0.48178E-03 10520   0.508E-01    0.833E-02
DAV:   4    -0.191405302234E+03   -0.68951E-04   -0.44784E-04  8240   0.147E-01
  22 F= -.19140530E+03 E0= -.19129911E+03  d E =-.438844E-02
       N       E                     dE             d eps       ncg     rms          rms(c)
DAV:   1    -0.191414020230E+03   -0.87869E-02   -0.48832E-01  8160   0.149E+00    0.273E-01
DAV:   2    -0.191425802041E+03   -0.11782E-01   -0.38346E-02 12240   0.123E+00    0.108E+00
DAV:   3    -0.191414408729E+03    0.11393E-01   -0.20971E-02 11440   0.100E+00    0.217E-01
DAV:   4    -0.191414635861E+03   -0.22713E-03   -0.28391E-03 10360   0.366E-01    0.255E-01
DAV:   5    -0.191413939209E+03    0.69665E-03   -0.13623E-03 10000   0.243E-01    0.673E-02
DAV:   6    -0.191413918766E+03    0.20443E-04   -0.34260E-04  7120   0.842E-02
  23 F= -.19141392E+03 E0= -.19130720E+03  d E =-.861653E-02
       N       E                     dE             d eps       ncg     rms          rms(c)
DAV:   1    -0.191441743682E+03   -0.27804E-01   -0.31528E+00  8160   0.382E+00    0.519E-01
DAV:   2    -0.191466855507E+03   -0.25112E-01   -0.13071E-01 12920   0.180E+00    0.162E+00
DAV:   3    -0.191445062985E+03    0.21793E-01   -0.57958E-02 12200   0.159E+00    0.462E-01
DAV:   4    -0.191446281104E+03   -0.12181E-02   -0.12355E-02 11360   0.789E-01    0.592E-01
DAV:   5    -0.191442484166E+03    0.37969E-02   -0.81801E-03 10480   0.646E-01    0.199E-01
DAV:   6    -0.191442427343E+03    0.56823E-04   -0.26016E-03 11120   0.268E-01    0.205E-01
DAV:   7    -0.191442294491E+03    0.13285E-03   -0.18609E-03 10320   0.314E-01    0.177E-01
DAV:   8    -0.191441948060E+03    0.34643E-03   -0.49245E-04  8320   0.152E-01    0.265E-02
DAV:   9    -0.191441951725E+03   -0.36653E-05   -0.58923E-05  6280   0.298E-02
  24 F= -.19144195E+03 E0= -.19133492E+03  d E =-.280330E-01
       N       E                     dE             d eps       ncg     rms          rms(c)
DAV:   1    -0.191440553772E+03    0.13943E-02   -0.21435E-01  8160   0.100E+00    0.181E-01
DAV:   2    -0.191444231914E+03   -0.36781E-02   -0.14351E-02 11560   0.742E-01    0.589E-01
DAV:   3    -0.191440473822E+03    0.37581E-02   -0.63699E-03 11440   0.582E-01    0.121E-01
DAV:   4    -0.191440749221E+03   -0.27540E-03   -0.13992E-03  9600   0.254E-01    0.214E-01
DAV:   5    -0.191440314997E+03    0.43422E-03   -0.10039E-03  9280   0.219E-01    0.724E-02
DAV:   6    -0.191440250851E+03    0.64147E-04   -0.20939E-04  5920   0.701E-02
  25 F= -.19144025E+03 E0= -.19133358E+03  d E =0.170087E-02
       N       E                     dE             d eps       ncg     rms          rms(c)
DAV:   1    -0.191464598472E+03   -0.24283E-01   -0.18839E+00  8160   0.291E+00    0.289E-01
DAV:   2    -0.191468684659E+03   -0.40862E-02   -0.43496E-02 11880   0.747E-01    0.491E-01
DAV:   3    -0.191467854910E+03    0.82975E-03   -0.10619E-02 12280   0.723E-01    0.423E-01
DAV:   4    -0.191466292748E+03    0.15622E-02   -0.31226E-03 10960   0.372E-01    0.153E-01
DAV:   5    -0.191466329150E+03   -0.36402E-04   -0.16253E-03 10080   0.276E-01    0.189E-01
DAV:   6    -0.191466110537E+03    0.21861E-03   -0.12484E-03 10160   0.248E-01    0.108E-01
DAV:   7    -0.191466061747E+03    0.48789E-04   -0.51626E-04  8400   0.154E-01
  26 F= -.19146606E+03 E0= -.19136019E+03  d E =-.258109E-01
       N       E                     dE             d eps       ncg     rms          rms(c)
DAV:   1    -0.191451406749E+03    0.14704E-01   -0.52427E-01  8160   0.156E+00    0.179E-01
DAV:   2    -0.191452528100E+03   -0.11214E-02   -0.14614E-02 12160   0.430E-01    0.292E-01
DAV:   3    -0.191452219903E+03    0.30820E-03   -0.39147E-03 12000   0.428E-01    0.249E-01
DAV:   4    -0.191451691438E+03    0.52846E-03   -0.15063E-03  9520   0.255E-01    0.120E-01
DAV:   5    -0.191451691561E+03   -0.12287E-06   -0.87845E-04  9600   0.211E-01
  27 F= -.19145169E+03 E0= -.19134564E+03  d E =0.143702E-01
       N       E                     dE             d eps       ncg     rms          rms(c)
DAV:   1    -0.191425015926E+03    0.26676E-01   -0.28036E+00  8160   0.364E+00    0.562E-01
DAV:   2    -0.191429011428E+03   -0.39955E-02   -0.98833E-02 12440   0.117E+00    0.844E-01
DAV:   3    -0.191427488864E+03    0.15226E-02   -0.36150E-02 12080   0.131E+00    0.813E-01
DAV:   4    -0.191421870501E+03    0.56184E-02   -0.17883E-02 11440   0.849E-01    0.402E-01
DAV:   5    -0.191421654324E+03    0.21618E-03   -0.87860E-03 10160   0.670E-01    0.395E-01
DAV:   6    -0.191419833378E+03    0.18209E-02   -0.41224E-03 11680   0.418E-01    0.122E-01
DAV:   7    -0.191420084378E+03   -0.25100E-03   -0.12512E-03 10040   0.249E-01    0.192E-01
DAV:   8    -0.191419722991E+03    0.36139E-03   -0.60079E-04  8560   0.182E-01    0.392E-02
DAV:   9    -0.191419721442E+03    0.15488E-05   -0.62274E-05  5880   0.384E-02
  28 F= -.19141972E+03 E0= -.19131373E+03  d E =0.319701E-01
       N       E                     dE             d eps       ncg     rms          rms(c)
DAV:   1    -0.191486879234E+03   -0.67156E-01   -0.98732E+00  8160   0.680E+00    0.868E-01
DAV:   2    -0.191511603992E+03   -0.24725E-01   -0.29526E-01 12240   0.204E+00    0.166E+00
DAV:   3    -0.191499148792E+03    0.12455E-01   -0.10404E-01 12000   0.219E+00    0.110E+00
DAV:   4    -0.191487576607E+03    0.11572E-01   -0.29139E-02 12240   0.112E+00    0.553E-01
DAV:   5    -0.191487014407E+03    0.56220E-03   -0.19175E-02 11480   0.993E-01    0.603E-01
DAV:   6    -0.191483227063E+03    0.37873E-02   -0.10794E-02 11560   0.662E-01    0.193E-01
DAV:   7    -0.191483076869E+03    0.15019E-03   -0.24589E-03 11280   0.282E-01    0.205E-01
DAV:   8    -0.191482730934E+03    0.34594E-03   -0.12080E-03  9840   0.248E-01    0.107E-01
DAV:   9    -0.191482604578E+03    0.12636E-03   -0.25959E-04  7640   0.993E-02    0.326E-02
DAV:  10    -0.191482597095E+03    0.74829E-05   -0.91379E-05  6760   0.350E-02
  29 F= -.19148260E+03 E0= -.19137733E+03  d E =-.628757E-01
       N       E                     dE             d eps       ncg     rms          rms(c)
DAV:   1    -0.191511473247E+03   -0.28869E-01   -0.19196E+00  8160   0.296E+00    0.314E-01
DAV:   2    -0.191514234280E+03   -0.27610E-02   -0.45509E-02 11760   0.670E-01    0.373E-01
DAV:   3    -0.191515292499E+03   -0.10582E-02   -0.10234E-02 12400   0.731E-01    0.531E-01
DAV:   4    -0.191512708631E+03    0.25839E-02   -0.50710E-03 11320   0.505E-01    0.174E-01
DAV:   5    -0.191512684796E+03    0.23835E-04   -0.21622E-03 10320   0.300E-01    0.204E-01
DAV:   6    -0.191512383385E+03    0.30141E-03   -0.14994E-03 10400   0.272E-01    0.107E-01
DAV:   7    -0.191512243688E+03    0.13970E-03   -0.34027E-04  7480   0.109E-01    0.463E-02
DAV:   8    -0.191512237260E+03    0.64276E-05   -0.12388E-04  6800   0.765E-02
  30 F= -.19151224E+03 E0= -.19140811E+03  d E =-.296402E-01
       N       E                     dE             d eps       ncg     rms          rms(c)
DAV:   1    -0.191505643774E+03    0.65999E-02   -0.87254E-02  8160   0.629E-01    0.643E-02
DAV:   2    -0.191505931021E+03   -0.28725E-03   -0.22848E-03 11760   0.171E-01    0.137E-01
DAV:   3    -0.191505768775E+03    0.16225E-03   -0.63771E-04  8680   0.177E-01    0.771E-02
DAV:   4    -0.191505732991E+03    0.35785E-04   -0.15471E-04  5800   0.830E-02
  31 F= -.19150573E+03 E0= -.19140134E+03  d E =0.650427E-02
       N       E                     dE             d eps       ncg     rms          rms(c)
DAV:   1    -0.191493762616E+03    0.12006E-01   -0.67603E-01  8160   0.179E+00    0.305E-01
DAV:   2    -0.191499042949E+03   -0.52803E-02   -0.31417E-02 12560   0.930E-01    0.761E-01
DAV:   3    -0.191493555811E+03    0.54871E-02   -0.13963E-02 11400   0.850E-01    0.306E-01
DAV:   4    -0.191493048780E+03    0.50703E-03   -0.36361E-03 11000   0.394E-01    0.234E-01
DAV:   5    -0.191492812806E+03    0.23597E-03   -0.26246E-03 10920   0.361E-01    0.217E-01
DAV:   6    -0.191492345499E+03    0.46731E-03   -0.13762E-03  9760   0.246E-01    0.987E-02
DAV:   7    -0.191492365059E+03   -0.19561E-04   -0.60144E-04  9000   0.166E-01
  32 F= -.19149237E+03 E0= -.19138764E+03  d E =0.133679E-01
       N       E                     dE             d eps       ncg     rms          rms(c)
DAV:   1    -0.191537838801E+03   -0.45493E-01   -0.46192E+00  8160   0.460E+00    0.507E-01
DAV:   2    -0.191547027956E+03   -0.91892E-02   -0.12003E-01 12000   0.118E+00    0.755E-01
DAV:   3    -0.191546421743E+03    0.60621E-03   -0.32991E-02 12280   0.125E+00    0.756E-01
DAV:   4    -0.191540856634E+03    0.55651E-02   -0.11647E-02 11840   0.729E-01    0.246E-01
DAV:   5    -0.191540045154E+03    0.81148E-03   -0.40092E-03 11440   0.320E-01    0.199E-01
DAV:   6    -0.191540284095E+03   -0.23894E-03   -0.32287E-03 12280   0.399E-01    0.244E-01
DAV:   7    -0.191539577870E+03    0.70623E-03   -0.13116E-03  9720   0.259E-01    0.552E-02
DAV:   8    -0.191539533135E+03    0.44735E-04   -0.15178E-04  5800   0.636E-02
  33 F= -.19153953E+03 E0= -.19143693E+03  d E =-.471681E-01
       N       E                     dE             d eps       ncg     rms          rms(c)
DAV:   1    -0.191572806735E+03   -0.33229E-01   -0.23253E+00  8160   0.325E+00    0.337E-01
DAV:   2    -0.191576745777E+03   -0.39390E-02   -0.58202E-02 12120   0.757E-01    0.398E-01
DAV:   3    -0.191577913846E+03   -0.11681E-02   -0.13121E-02 12360   0.786E-01    0.555E-01
DAV:   4    -0.191574985098E+03    0.29287E-02   -0.58166E-03 11840   0.536E-01    0.160E-01
DAV:   5    -0.191574620573E+03    0.36453E-03   -0.14748E-03 10360   0.185E-01    0.106E-01
DAV:   6    -0.191574896184E+03   -0.27561E-03   -0.12584E-03 11560   0.253E-01    0.182E-01
DAV:   7    -0.191574520696E+03    0.37549E-03   -0.61981E-04  8440   0.191E-01    0.544E-02
DAV:   8    -0.191574508332E+03    0.12364E-04   -0.12764E-04  5720   0.747E-02
  34 F= -.19157451E+03 E0= -.19147380E+03  d E =-.349752E-01
       N       E                     dE             d eps       ncg     rms          rms(c)
DAV:   1    -0.191593290428E+03   -0.18770E-01   -0.71940E-01  8160   0.180E+00    0.187E-01
DAV:   2    -0.191594991005E+03   -0.17006E-02   -0.18751E-02 11840   0.487E-01    0.299E-01
DAV:   3    -0.191594726480E+03    0.26453E-03   -0.48464E-03 12440   0.481E-01    0.272E-01
DAV:   4    -0.191594039345E+03    0.68714E-03   -0.14409E-03  9680   0.252E-01    0.843E-02
DAV:   5    -0.191593985736E+03    0.53608E-04   -0.42727E-04  8920   0.122E-01
  35 F= -.19159399E+03 E0= -.19149463E+03  d E =-.194774E-01
       N       E                     dE             d eps       ncg     rms          rms(c)
DAV:   1    -0.191614391446E+03   -0.20352E-01   -0.92413E-01  8160   0.205E+00    0.241E-01
DAV:   2    -0.191619475752E+03   -0.50843E-02   -0.32553E-02 12840   0.770E-01    0.600E-01
DAV:   3    -0.191616091790E+03    0.33840E-02   -0.10280E-02 12280   0.717E-01    0.230E-01
DAV:   4    -0.191616019226E+03    0.72564E-04   -0.18693E-03  9640   0.290E-01    0.211E-01
DAV:   5    -0.191615553166E+03    0.46606E-03   -0.11269E-03 10560   0.256E-01    0.900E-02
DAV:   6    -0.191615564700E+03   -0.11534E-04   -0.42228E-04  9320   0.110E-01
  36 F= -.19161556E+03 E0= -.19151724E+03  d E =-.215790E-01
       N       E                     dE             d eps       ncg     rms          rms(c)
DAV:   1    -0.191635500910E+03   -0.19948E-01   -0.94535E-01  8160   0.207E+00    0.214E-01
DAV:   2    -0.191637161067E+03   -0.16602E-02   -0.22622E-02 11440   0.465E-01    0.278E-01
DAV:   3    -0.191637255401E+03   -0.94334E-04   -0.54254E-03 11040   0.501E-01    0.329E-01
DAV:   4    -0.191636324493E+03    0.93091E-03   -0.24311E-03 10160   0.331E-01    0.125E-01
DAV:   5    -0.191636240502E+03    0.83991E-04   -0.89185E-04 10000   0.198E-01
  37 F= -.19163624E+03 E0= -.19153958E+03  d E =-.206758E-01
       N       E                     dE             d eps       ncg     rms          rms(c)
DAV:   1    -0.191582282536E+03    0.54042E-01   -0.49458E+00  8160   0.476E+00    0.570E-01
DAV:   2    -0.191618998545E+03   -0.36716E-01   -0.19012E-01 13400   0.204E+00    0.173E+00
DAV:   3    -0.191590823810E+03    0.28175E-01   -0.65405E-02 12240   0.183E+00    0.472E-01
DAV:   4    -0.191589433410E+03    0.13904E-02   -0.81443E-03 11080   0.546E-01    0.385E-01
DAV:   5    -0.191588773562E+03    0.65985E-03   -0.59562E-03 12640   0.570E-01    0.345E-01
DAV:   6    -0.191587804790E+03    0.96877E-03   -0.37153E-03 11320   0.396E-01    0.163E-01
DAV:   7    -0.191587924081E+03   -0.11929E-03   -0.18537E-03 11760   0.275E-01    0.191E-01
DAV:   8    -0.191587483125E+03    0.44096E-03   -0.78994E-04  9160   0.210E-01    0.414E-02
DAV:   9    -0.191587469386E+03    0.13739E-04   -0.89749E-05  6480   0.472E-02
  38 F= -.19158747E+03 E0= -.19148763E+03  d E =0.487711E-01
       N       E                     dE             d eps       ncg     rms          rms(c)
DAV:   1    -0.191673861364E+03   -0.86378E-01   -0.30939E+01  8160   0.119E+01    0.124E+00
DAV:   2    -0.191772002935E+03   -0.98142E-01   -0.90116E-01 11800   0.348E+00    0.240E+00
DAV:   3    -0.191737584811E+03    0.34418E-01   -0.25227E-01 12080   0.341E+00    0.146E+00
DAV:   4    -0.191713429262E+03    0.24156E-01   -0.44671E-02 12320   0.133E+00    0.501E-01
DAV:   5    -0.191709993003E+03    0.34363E-02   -0.16104E-02 12280   0.642E-01    0.460E-01
DAV:   6    -0.191714104419E+03   -0.41114E-02   -0.19817E-02 12720   0.104E+00    0.780E-01
DAV:   7    -0.191707790121E+03    0.63143E-02   -0.11547E-02 11600   0.750E-01    0.140E-01
DAV:   8    -0.191707441601E+03    0.34852E-03   -0.12184E-03 10200   0.142E-01    0.613E-02
DAV:   9    -0.191707499107E+03   -0.57507E-04   -0.43018E-04 10280   0.137E-01
  39 F= -.19170750E+03 E0= -.19161495E+03  d E =-.120030E+00
       N       E                     dE             d eps       ncg     rms          rms(c)
DAV:   1    -0.191731676529E+03   -0.24235E-01   -0.17211E+00  8160   0.282E+00    0.358E-01
DAV:   2    -0.191738463853E+03   -0.67873E-02   -0.66056E-02 12200   0.986E-01    0.677E-01
DAV:   3    -0.191735316345E+03    0.31475E-02   -0.19556E-02 12200   0.976E-01    0.416E-01
DAV:   4    -0.191733406701E+03    0.19096E-02   -0.46062E-03 12240   0.420E-01    0.153E-01
DAV:   5    -0.191733400789E+03    0.59121E-05   -0.22157E-03 11760   0.294E-01    0.194E-01
DAV:   6    -0.191733135973E+03    0.26482E-03   -0.16683E-03 10880   0.291E-01    0.116E-01
DAV:   7    -0.191732970015E+03    0.16596E-03   -0.45897E-04  8160   0.125E-01    0.440E-02
DAV:   8    -0.191732954302E+03    0.15712E-04   -0.12278E-04  6960   0.694E-02
  40 F= -.19173295E+03 E0= -.19164142E+03  d E =-.254552E-01
       N       E                     dE             d eps       ncg     rms          rms(c)
DAV:   1    -0.191754118339E+03   -0.21148E-01   -0.13904E+00  8160   0.250E+00    0.267E-01
DAV:   2    -0.191759445146E+03   -0.53268E-02   -0.45225E-02 12160   0.857E-01    0.543E-01
DAV:   3    -0.191756900439E+03    0.25447E-02   -0.11939E-02 12080   0.749E-01    0.288E-01
DAV:   4    -0.191756102763E+03    0.79768E-03   -0.23163E-03 11080   0.297E-01    0.120E-01
DAV:   5    -0.191756103162E+03   -0.39929E-06   -0.10486E-03 11120   0.221E-01    0.142E-01
DAV:   6    -0.191755971968E+03    0.13119E-03   -0.72632E-04  9840   0.199E-01    0.786E-02
DAV:   7    -0.191755903463E+03    0.68504E-04   -0.24758E-04  7480   0.880E-02
  41 F= -.19175590E+03 E0= -.19166581E+03  d E =-.229492E-01
       N       E                     dE             d eps       ncg     rms          rms(c)
DAV:   1    -0.191779672882E+03   -0.23701E-01   -0.14463E+00  8160   0.257E+00    0.286E-01
DAV:   2    -0.191785895267E+03   -0.62224E-02   -0.47317E-02 13160   0.926E-01    0.625E-01
DAV:   3    -0.191782079360E+03    0.38159E-02   -0.13606E-02 11880   0.815E-01    0.269E-01
DAV:   4    -0.191781466116E+03    0.61324E-03   -0.23463E-03 11000   0.292E-01    0.140E-01
DAV:   5    -0.191781376018E+03    0.90098E-04   -0.11491E-03 11200   0.237E-01    0.139E-01
DAV:   6    -0.191781306898E+03    0.69119E-04   -0.86058E-04 10640   0.210E-01
  42 F= -.19178131E+03 E0= -.19169254E+03  d E =-.254034E-01
       N       E                     dE             d eps       ncg     rms          rms(c)
DAV:   1    -0.191779277299E+03    0.20987E-02   -0.18185E-02  8160   0.306E-01    0.393E-02
DAV:   2    -0.191779427229E+03   -0.14993E-03   -0.83513E-04 11360   0.131E-01    0.100E-01
DAV:   3    -0.191779310957E+03    0.11627E-03   -0.29848E-04  8360   0.125E-01    0.415E-02
DAV:   4    -0.191779301499E+03    0.94579E-05   -0.51169E-05  5960   0.479E-02
  43 F= -.19177930E+03 E0= -.19169069E+03  d E =0.200540E-02
       N       E                     dE             d eps       ncg     rms          rms(c)
DAV:   1    -0.191795103233E+03   -0.15792E-01   -0.15876E+00  8160   0.268E+00    0.301E-01
DAV:   2    -0.191800498520E+03   -0.53953E-02   -0.50006E-02 12120   0.885E-01    0.561E-01
DAV:   3    -0.191797912646E+03    0.25859E-02   -0.13890E-02 12280   0.838E-01    0.358E-01
DAV:   4    -0.191796675627E+03    0.12370E-02   -0.36654E-03 11440   0.382E-01    0.142E-01
DAV:   5    -0.191796402608E+03    0.27302E-03   -0.14031E-03 10160   0.171E-01    0.981E-02
DAV:   6    -0.191796505497E+03   -0.10289E-03   -0.85654E-04 11400   0.212E-01    0.139E-01
DAV:   7    -0.191796324867E+03    0.18063E-03   -0.51504E-04  9280   0.172E-01    0.573E-02
DAV:   8    -0.191796298341E+03    0.26526E-04   -0.11749E-04  6120   0.793E-02
  44 F= -.19179630E+03 E0= -.19170917E+03  d E =-.169968E-01
       N       E                     dE             d eps       ncg     rms          rms(c)
DAV:   1    -0.191808725258E+03   -0.12400E-01   -0.11605E+00  8160   0.235E+00    0.329E-01
DAV:   2    -0.191810714252E+03   -0.19890E-02   -0.35629E-02 11640   0.656E-01    0.435E-01
DAV:   3    -0.191810169692E+03    0.54456E-03   -0.11899E-02 12280   0.804E-01    0.457E-01
DAV:   4    -0.191808166381E+03    0.20033E-02   -0.42360E-03 11680   0.495E-01    0.166E-01
DAV:   5    -0.191807872251E+03    0.29413E-03   -0.21512E-03 11200   0.244E-01    0.144E-01
DAV:   6    -0.191807778782E+03    0.93469E-04   -0.12824E-03 10200   0.248E-01    0.127E-01
DAV:   7    -0.191807597523E+03    0.18126E-03   -0.50752E-04  9040   0.151E-01    0.474E-02
DAV:   8    -0.191807590706E+03    0.68170E-05   -0.10696E-04  6000   0.740E-02
  45 F= -.19180759E+03 E0= -.19172037E+03  d E =-.112924E-01
       N       E                     dE             d eps       ncg     rms          rms(c)
DAV:   1    -0.191839130614E+03   -0.31533E-01   -0.23045E+00  8160   0.323E+00    0.331E-01
DAV:   2    -0.191846098176E+03   -0.69676E-02   -0.67392E-02 13560   0.955E-01    0.579E-01
DAV:   3    -0.191843544052E+03    0.25541E-02   -0.15632E-02 12080   0.881E-01    0.372E-01
DAV:   4    -0.191842150753E+03    0.13933E-02   -0.37972E-03 11440   0.380E-01    0.139E-01
DAV:   5    -0.191842006958E+03    0.14380E-03   -0.13411E-03 10160   0.189E-01    0.126E-01
DAV:   6    -0.191842198115E+03   -0.19116E-03   -0.12355E-03 10720   0.271E-01    0.178E-01
DAV:   7    -0.191841847631E+03    0.35048E-03   -0.72064E-04  8920   0.201E-01    0.493E-02
DAV:   8    -0.191841830622E+03    0.17009E-04   -0.10258E-04  6040   0.701E-02
  46 F= -.19184183E+03 E0= -.19175641E+03  d E =-.342399E-01
       N       E                     dE             d eps       ncg     rms          rms(c)
DAV:   1    -0.191760543870E+03    0.81304E-01   -0.98383E+00  8160   0.669E+00    0.692E-01
DAV:   2    -0.191794066911E+03   -0.33523E-01   -0.29211E-01 13280   0.203E+00    0.141E+00
DAV:   3    -0.191778577387E+03    0.15490E-01   -0.86529E-02 11920   0.192E+00    0.720E-01
DAV:   4    -0.191773155838E+03    0.54215E-02   -0.13421E-02 12360   0.686E-01    0.297E-01
DAV:   5    -0.191773013904E+03    0.14193E-03   -0.67727E-03 12000   0.520E-01    0.343E-01
DAV:   6    -0.191772611983E+03    0.40192E-03   -0.55376E-03 12720   0.550E-01    0.265E-01
DAV:   7    -0.191771673570E+03    0.93841E-03   -0.22794E-03 11800   0.291E-01    0.750E-02
DAV:   8    -0.191771630401E+03    0.43169E-04   -0.38806E-04  8920   0.115E-01
  47 F= -.19177163E+03 E0= -.19168262E+03  d E =0.702002E-01
       N       E                     dE             d eps       ncg     rms          rms(c)
DAV:   1    -0.191729939698E+03    0.41734E-01   -0.52052E+00  8160   0.487E+00    0.568E-01
DAV:   2    -0.191762660624E+03   -0.32721E-01   -0.17845E-01 13560   0.197E+00    0.166E+00
DAV:   3    -0.191736594116E+03    0.26067E-01   -0.80832E-02 11920   0.183E+00    0.424E-01
DAV:   4    -0.191734889629E+03    0.17045E-02   -0.56933E-03 11680   0.384E-01    0.226E-01
DAV:   5    -0.191735088619E+03   -0.19899E-03   -0.36433E-03 11520   0.427E-01    0.310E-01
DAV:   6    -0.191734702721E+03    0.38590E-03   -0.35156E-03 10840   0.459E-01    0.218E-01
DAV:   7    -0.191734217941E+03    0.48478E-03   -0.12257E-03 10280   0.244E-01    0.103E-01
DAV:   8    -0.191734109749E+03    0.10819E-03   -0.32902E-04  9080   0.133E-01    0.465E-02
DAV:   9    -0.191734090235E+03    0.19514E-04   -0.80733E-05  6480   0.601E-02
  48 F= -.19173409E+03 E0= -.19164366E+03  d E =0.375402E-01
       N       E                     dE             d eps       ncg     rms          rms(c)
DAV:   1    -0.191722383010E+03    0.11727E-01   -0.24831E+00  8160   0.337E+00    0.394E-01
DAV:   2    -0.191738315980E+03   -0.15933E-01   -0.75209E-02 13600   0.133E+00    0.120E+00
DAV:   3    -0.191724228769E+03    0.14087E-01   -0.38324E-02 12040   0.129E+00    0.276E-01
DAV:   4    -0.191723568041E+03    0.66073E-03   -0.25640E-03 10960   0.245E-01    0.154E-01
DAV:   5    -0.191723778566E+03   -0.21052E-03   -0.19292E-03 11680   0.312E-01    0.238E-01
DAV:   6    -0.191723423297E+03    0.35527E-03   -0.16343E-03 10200   0.319E-01    0.130E-01
DAV:   7    -0.191723212599E+03    0.21070E-03   -0.38733E-04  8280   0.128E-01    0.291E-02
DAV:   8    -0.191723210831E+03    0.17687E-05   -0.65696E-05  6840   0.473E-02
  49 F= -.19172321E+03 E0= -.19163298E+03  d E =0.108794E-01
       N       E                     dE             d eps       ncg     rms          rms(c)
DAV:   1    -0.191739532400E+03   -0.16320E-01   -0.17261E+00  8160   0.280E+00    0.329E-01
DAV:   2    -0.191746866473E+03   -0.73341E-02   -0.63202E-02 12360   0.108E+00    0.645E-01
DAV:   3    -0.191743028501E+03    0.38380E-02   -0.14411E-02 12040   0.884E-01    0.312E-01
DAV:   4    -0.191742455874E+03    0.57263E-03   -0.37959E-03 12040   0.415E-01    0.247E-01
DAV:   5    -0.191741971359E+03    0.48451E-03   -0.26921E-03 10840   0.378E-01    0.184E-01
DAV:   6    -0.191741705173E+03    0.26619E-03   -0.12069E-03  9840   0.216E-01    0.870E-02
DAV:   7    -0.191741637183E+03    0.67990E-04   -0.45799E-04  9120   0.112E-01
  50 F= -.19174164E+03 E0= -.19165259E+03  d E =-.184264E-01
       N       E                     dE             d eps       ncg     rms          rms(c)
DAV:   1    -0.191755141410E+03   -0.13436E-01   -0.10102E+00  8160   0.213E+00    0.243E-01
DAV:   2    -0.191760509586E+03   -0.53682E-02   -0.32936E-02 13600   0.816E-01    0.621E-01
DAV:   3    -0.191756739889E+03    0.37697E-02   -0.11162E-02 12000   0.759E-01    0.226E-01
DAV:   4    -0.191756308931E+03    0.43096E-03   -0.16115E-03  9840   0.214E-01    0.105E-01
DAV:   5    -0.191756123834E+03    0.18510E-03   -0.62812E-04 10480   0.928E-02    0.550E-02
DAV:   6    -0.191756168016E+03   -0.44182E-04   -0.31688E-04  8640   0.955E-02
  51 F= -.19175617E+03 E0= -.19166806E+03  d E =-.145308E-01
       N       E                     dE             d eps       ncg     rms          rms(c)
DAV:   1    -0.191762804275E+03   -0.66804E-02   -0.20860E-01  8160   0.975E-01    0.119E-01
DAV:   2    -0.191764022493E+03   -0.12182E-02   -0.74995E-03 13600   0.384E-01    0.293E-01
DAV:   3    -0.191763145982E+03    0.87651E-03   -0.25753E-03 11360   0.369E-01    0.111E-01
DAV:   4    -0.191763081948E+03    0.64034E-04   -0.52699E-04  8280   0.130E-01
  52 F= -.19176308E+03 E0= -.19167542E+03  d E =-.691393E-02
       N       E                     dE             d eps       ncg     rms          rms(c)
DAV:   1    -0.191736328176E+03    0.26818E-01   -0.28358E+00  8160   0.356E+00    0.385E-01
DAV:   2    -0.191748633809E+03   -0.12306E-01   -0.81975E-02 13600   0.125E+00    0.860E-01
DAV:   3    -0.191740490020E+03    0.81438E-02   -0.22451E-02 12160   0.112E+00    0.366E-01
DAV:   4    -0.191739964056E+03    0.52596E-03   -0.61003E-03 11280   0.480E-01    0.289E-01
DAV:   5    -0.191739206918E+03    0.75714E-03   -0.35188E-03 10960   0.406E-01    0.191E-01
DAV:   6    -0.191738898959E+03    0.30796E-03   -0.13403E-03 10240   0.231E-01    0.931E-02
DAV:   7    -0.191738856137E+03    0.42821E-04   -0.46803E-04  9360   0.123E-01
  53 F= -.19173886E+03 E0= -.19164985E+03  d E =0.242258E-01
       N       E                     dE             d eps       ncg     rms          rms(c)
DAV:   1    -0.191728897084E+03    0.10002E-01   -0.93053E-01  8160   0.206E+00    0.237E-01
DAV:   2    -0.191731832098E+03   -0.29350E-02   -0.24989E-02 13200   0.577E-01    0.411E-01
DAV:   3    -0.191730422061E+03    0.14100E-02   -0.70927E-03 11640   0.609E-01    0.294E-01
DAV:   4    -0.191729839035E+03    0.58303E-03   -0.25356E-03 11560   0.324E-01    0.146E-01
DAV:   5    -0.191729549532E+03    0.28950E-03   -0.98976E-04 10160   0.181E-01    0.944E-02
DAV:   6    -0.191729614888E+03   -0.65356E-04   -0.62004E-04  9120   0.187E-01
  54 F= -.19172961E+03 E0= -.19163993E+03  d E =0.924125E-02
       N       E                     dE             d eps       ncg     rms          rms(c)
DAV:   1    -0.191732331662E+03   -0.27821E-02   -0.19270E-01  8160   0.948E-01    0.107E-01
DAV:   2    -0.191732708123E+03   -0.37646E-03   -0.56471E-03 12240   0.231E-01    0.125E-01
DAV:   3    -0.191732790683E+03   -0.82560E-04   -0.11389E-03 11000   0.247E-01    0.158E-01
DAV:   4    -0.191732514135E+03    0.27655E-03   -0.42487E-04  8560   0.153E-01    0.425E-02
DAV:   5    -0.191732551383E+03   -0.37248E-04   -0.16788E-04  6080   0.927E-02
  55 F= -.19173255E+03 E0= -.19164314E+03  d E =-.293650E-02
       N       E                     dE             d eps       ncg     rms          rms(c)
DAV:   1    -0.191742668718E+03   -0.10155E-01   -0.80945E-01  8160   0.191E+00    0.221E-01
DAV:   2    -0.191748308874E+03   -0.56402E-02   -0.30911E-02 13560   0.831E-01    0.636E-01
DAV:   3    -0.191744126504E+03    0.41824E-02   -0.10007E-02 12120   0.732E-01    0.172E-01
DAV:   4    -0.191744009362E+03    0.11714E-03   -0.13038E-03  9760   0.207E-01    0.131E-01
DAV:   5    -0.191743851214E+03    0.15815E-03   -0.77316E-04  9560   0.204E-01    0.974E-02
DAV:   6    -0.191743825756E+03    0.25457E-04   -0.40381E-04  8720   0.140E-01
  56 F= -.19174383E+03 E0= -.19165517E+03  d E =-.112744E-01
       N       E                     dE             d eps       ncg     rms          rms(c)
DAV:   1    -0.191759086279E+03   -0.15235E-01   -0.20811E+00  8160   0.305E+00    0.362E-01
DAV:   2    -0.191776778371E+03   -0.17692E-01   -0.81537E-02 13600   0.145E+00    0.119E+00
DAV:   3    -0.191762307717E+03    0.14471E-01   -0.31065E-02 11920   0.129E+00    0.238E-01
DAV:   4    -0.191762054548E+03    0.25317E-03   -0.22555E-03 11320   0.282E-01    0.202E-01
DAV:   5    -0.191761790343E+03    0.26421E-03   -0.15887E-03 11200   0.322E-01    0.168E-01
DAV:   6    -0.191761744819E+03    0.45524E-04   -0.10634E-03  9960   0.220E-01    0.123E-01
DAV:   7    -0.191761605742E+03    0.13908E-03   -0.68343E-04  9000   0.173E-01    0.884E-02
DAV:   8    -0.191761521005E+03    0.84737E-04   -0.19033E-04  7320   0.104E-01
  57 F= -.19176152E+03 E0= -.19167383E+03  d E =-.176952E-01
       N       E                     dE             d eps       ncg     rms          rms(c)
DAV:   1    -0.191762829295E+03   -0.12236E-02   -0.30042E-02  8160   0.384E-01    0.721E-02
DAV:   2    -0.191763023328E+03   -0.19403E-03   -0.14846E-03 11840   0.209E-01    0.156E-01
DAV:   3    -0.191762771924E+03    0.25140E-03   -0.58279E-04  9200   0.189E-01    0.585E-02
DAV:   4    -0.191762762175E+03    0.97488E-05   -0.17110E-04  5960   0.951E-02
  58 F= -.19176276E+03 E0= -.19167499E+03  d E =-.124117E-02
       N       E                     dE             d eps       ncg     rms          rms(c)
DAV:   1    -0.191774169021E+03   -0.11397E-01   -0.10576E+00  8160   0.217E+00    0.267E-01
DAV:   2    -0.191783291875E+03   -0.91229E-02   -0.40046E-02 13600   0.105E+00    0.860E-01
DAV:   3    -0.191775476405E+03    0.78155E-02   -0.16691E-02 12040   0.946E-01    0.188E-01
DAV:   4    -0.191775269924E+03    0.20648E-03   -0.17281E-03 11080   0.206E-01    0.130E-01
DAV:   5    -0.191775141439E+03    0.12849E-03   -0.90530E-04 11400   0.211E-01    0.134E-01
DAV:   6    -0.191775056584E+03    0.84855E-04   -0.61935E-04  8920   0.194E-01
  59 F= -.19177506E+03 E0= -.19168768E+03  d E =-.122944E-01
       N       E                     dE             d eps       ncg     rms          rms(c)
DAV:   1    -0.191772933201E+03    0.22082E-02   -0.28545E-02  8160   0.370E-01    0.676E-02
DAV:   2    -0.191773828829E+03   -0.89563E-03   -0.26291E-03 11400   0.327E-01    0.276E-01
DAV:   3    -0.191772936829E+03    0.89200E-03   -0.15337E-03 10040   0.281E-01    0.365E-02
DAV:   4    -0.191772943185E+03   -0.63560E-05   -0.63905E-05  5520   0.588E-02
  60 F= -.19177294E+03 E0= -.19168557E+03  d E =0.211340E-02
       N       E                     dE             d eps       ncg     rms          rms(c)
DAV:   1    -0.191761948587E+03    0.10988E-01   -0.83251E-01  8160   0.194E+00    0.290E-01
DAV:   2    -0.191773264539E+03   -0.11316E-01   -0.42863E-02 13000   0.128E+00    0.976E-01
DAV:   3    -0.191762525346E+03    0.10739E-01   -0.20019E-02 12280   0.105E+00    0.170E-01
DAV:   4    -0.191762763588E+03   -0.23824E-03   -0.23405E-03  9920   0.333E-01    0.226E-01
DAV:   5    -0.191762162653E+03    0.60094E-03   -0.15448E-03 11240   0.292E-01    0.910E-02
DAV:   6    -0.191762134111E+03    0.28541E-04   -0.50153E-04  9840   0.110E-01
  61 F= -.19176213E+03 E0= -.19167454E+03  d E =0.108091E-01
       N       E                     dE             d eps       ncg     rms          rms(c)
DAV:   1    -0.191778813019E+03   -0.16650E-01   -0.23579E+00  8160   0.324E+00    0.423E-01
DAV:   2    -0.191806630425E+03   -0.27817E-01   -0.10638E-01 13560   0.187E+00    0.157E+00
DAV:   3    -0.191781642581E+03    0.24988E-01   -0.49055E-02 12040   0.161E+00    0.240E-01
DAV:   4    -0.191781741148E+03   -0.98566E-04   -0.33858E-03 11440   0.391E-01    0.290E-01
DAV:   5    -0.191780936846E+03    0.80430E-03   -0.23736E-03 11280   0.404E-01    0.167E-01
DAV:   6    -0.191780870236E+03    0.66610E-04   -0.13074E-03 10600   0.219E-01    0.124E-01
DAV:   7    -0.191780770580E+03    0.99656E-04   -0.89025E-04  9840   0.200E-01
  62 F= -.19178077E+03 E0= -.19169386E+03  d E =-.186365E-01
       N       E                     dE             d eps       ncg     rms          rms(c)
DAV:   1    -0.191785239608E+03   -0.43694E-02   -0.16580E-01  8160   0.860E-01    0.110E-01
DAV:   2    -0.191786613686E+03   -0.13741E-02   -0.67395E-03 13560   0.415E-01    0.327E-01
DAV:   3    -0.191785465063E+03    0.11486E-02   -0.27055E-03 12080   0.378E-01    0.839E-02
DAV:   4    -0.191785426494E+03    0.38569E-04   -0.29336E-04  7200   0.855E-02
  63 F= -.19178543E+03 E0= -.19169872E+03  d E =-.465591E-02
       N       E                     dE             d eps       ncg     rms          rms(c)
DAV:   1    -0.191793341713E+03   -0.78766E-02   -0.48465E-01  8160   0.146E+00    0.190E-01
DAV:   2    -0.191798296147E+03   -0.49544E-02   -0.19504E-02 13560   0.760E-01    0.649E-01
DAV:   3    -0.191793836197E+03    0.44599E-02   -0.86894E-03 11720   0.688E-01    0.113E-01
DAV:   4    -0.191793791371E+03    0.44826E-04   -0.52568E-04  9240   0.118E-01
  64 F= -.19179379E+03 E0= -.19170747E+03  d E =-.836488E-02
       N       E                     dE             d eps       ncg     rms          rms(c)
DAV:   1    -0.191789573814E+03    0.42624E-02   -0.11614E-01  8160   0.740E-01    0.143E-01
DAV:   2    -0.191794291763E+03   -0.47179E-02   -0.11809E-02 12200   0.758E-01    0.644E-01
DAV:   3    -0.191789590609E+03    0.47012E-02   -0.67444E-03 10800   0.640E-01    0.373E-02
DAV:   4    -0.191789650270E+03   -0.59661E-04   -0.19890E-04  7320   0.890E-02
  65 F= -.19178965E+03 E0= -.19170308E+03  d E =0.414110E-02
       N       E                     dE             d eps       ncg     rms          rms(c)
DAV:   1    -0.191796939589E+03   -0.73490E-02   -0.41547E-01  8160   0.139E+00    0.221E-01
DAV:   2    -0.191801302108E+03   -0.43625E-02   -0.21833E-02 12720   0.827E-01    0.647E-01
DAV:   3    -0.191797020986E+03    0.42811E-02   -0.93472E-03 11920   0.709E-01    0.147E-01
DAV:   4    -0.191796980533E+03    0.40454E-04   -0.12813E-03 10080   0.259E-01    0.163E-01
DAV:   5    -0.191796741019E+03    0.23951E-03   -0.98389E-04 10560   0.255E-01    0.103E-01
DAV:   6    -0.191796625291E+03    0.11573E-03   -0.40735E-04  7920   0.128E-01    0.576E-02
DAV:   7    -0.191796613293E+03    0.11999E-04   -0.16818E-04  6120   0.105E-01
  66 F= -.19179661E+03 E0= -.19170989E+03  d E =-.696302E-02
       N       E                     dE             d eps       ncg     rms          rms(c)
DAV:   1    -0.191804084069E+03   -0.74588E-02   -0.41871E-01  8160   0.137E+00    0.177E-01
DAV:   2    -0.191807344424E+03   -0.32604E-02   -0.17425E-02 12760   0.672E-01    0.505E-01
DAV:   3    -0.191804580180E+03    0.27642E-02   -0.67742E-03 12240   0.592E-01    0.136E-01
DAV:   4    -0.191804428080E+03    0.15210E-03   -0.73693E-04  8920   0.143E-01    0.787E-02
DAV:   5    -0.191804432747E+03   -0.46670E-05   -0.42561E-04  8840   0.142E-01
  67 F= -.19180443E+03 E0= -.19171835E+03  d E =-.781945E-02
       N       E                     dE             d eps       ncg     rms          rms(c)
DAV:   1    -0.191815286613E+03   -0.10859E-01   -0.94959E-01  8160   0.205E+00    0.258E-01
DAV:   2    -0.191823955985E+03   -0.86694E-02   -0.38928E-02 13560   0.105E+00    0.833E-01
DAV:   3    -0.191816319159E+03    0.76368E-02   -0.16031E-02 12160   0.914E-01    0.149E-01
DAV:   4    -0.191816278252E+03    0.40906E-04   -0.96843E-04  9720   0.195E-01
  68 F= -.19181628E+03 E0= -.19173060E+03  d E =-.118455E-01
       N       E                     dE             d eps       ncg     rms          rms(c)
DAV:   1    -0.191818351573E+03   -0.20324E-02   -0.28193E-02  8400   0.429E-01    0.146E-01
DAV:   2    -0.191822643676E+03   -0.42921E-02   -0.77033E-03 11360   0.709E-01    0.651E-01
DAV:   3    -0.191818139149E+03    0.45045E-02   -0.56708E-03 10160   0.614E-01    0.539E-02
DAV:   4    -0.191818262860E+03   -0.12371E-03   -0.33906E-04  8600   0.121E-01    0.967E-02
DAV:   5    -0.191818176307E+03    0.86553E-04   -0.27224E-04  8560   0.120E-01
  69 F= -.19181818E+03 E0= -.19173269E+03  d E =-.189805E-02
       N       E                     dE             d eps       ncg     rms          rms(c)
DAV:   1    -0.191826055309E+03   -0.77924E-02   -0.42205E-01  8160   0.138E+00    0.170E-01
DAV:   2    -0.191829701980E+03   -0.36467E-02   -0.16328E-02 13440   0.668E-01    0.553E-01
DAV:   3    -0.191826584703E+03    0.31173E-02   -0.62773E-03 11960   0.584E-01    0.101E-01
DAV:   4    -0.191826504427E+03    0.80276E-04   -0.38273E-04  8520   0.926E-02
  70 F= -.19182650E+03 E0= -.19174117E+03  d E =-.832812E-02
       N       E                     dE             d eps       ncg     rms          rms(c)
DAV:   1    -0.191814012201E+03    0.12573E-01   -0.85608E-01  8160   0.197E+00    0.237E-01
DAV:   2    -0.191821389591E+03   -0.73774E-02   -0.33914E-02 13360   0.918E-01    0.743E-01
DAV:   3    -0.191815226137E+03    0.61635E-02   -0.13888E-02 12120   0.845E-01    0.154E-01
DAV:   4    -0.191815081380E+03    0.14476E-03   -0.13270E-03  9760   0.156E-01    0.952E-02
DAV:   5    -0.191814919678E+03    0.16170E-03   -0.48554E-04 10080   0.904E-02    0.531E-02
DAV:   6    -0.191815078448E+03   -0.15877E-03   -0.38815E-04  9040   0.157E-01    0.129E-01
DAV:   7    -0.191814892989E+03    0.18546E-03   -0.26409E-04  7360   0.137E-01    0.172E-02
DAV:   8    -0.191814901517E+03   -0.85280E-05   -0.29756E-05  5720   0.268E-02
  71 F= -.19181490E+03 E0= -.19172920E+03  d E =0.116029E-01
       N       E                     dE             d eps       ncg     rms          rms(c)
DAV:   1    -0.191798017493E+03    0.16875E-01   -0.24070E+00  8160   0.333E+00    0.430E-01
DAV:   2    -0.191816348501E+03   -0.18331E-01   -0.87904E-02 13400   0.150E+00    0.117E+00
DAV:   3    -0.191800802385E+03    0.15546E-01   -0.30521E-02 11760   0.135E+00    0.287E-01
DAV:   4    -0.191800415988E+03    0.38640E-03   -0.41935E-03 11360   0.361E-01    0.220E-01
DAV:   5    -0.191800012307E+03    0.40368E-03   -0.26706E-03 12520   0.364E-01    0.185E-01
DAV:   6    -0.191799959913E+03    0.52394E-04   -0.16028E-03 11200   0.289E-01    0.140E-01
DAV:   7    -0.191799699285E+03    0.26063E-03   -0.57144E-04  9080   0.160E-01    0.733E-02
DAV:   8    -0.191799654976E+03    0.44309E-04   -0.16201E-04  6520   0.103E-01
  72 F= -.19179965E+03 E0= -.19171412E+03  d E =0.152465E-01
       N       E                     dE             d eps       ncg     rms          rms(c)
DAV:   1    -0.191803504777E+03   -0.38055E-02   -0.17048E-01  8160   0.887E-01    0.115E-01
DAV:   2    -0.191804636253E+03   -0.11315E-02   -0.69813E-03 13080   0.417E-01    0.296E-01
DAV:   3    -0.191803712555E+03    0.92370E-03   -0.21644E-03 11560   0.344E-01    0.811E-02
DAV:   4    -0.191803720149E+03   -0.75938E-05   -0.39179E-04  8320   0.138E-01
  73 F= -.19180372E+03 E0= -.19171827E+03  d E =-.406517E-02
       N       E                     dE             d eps       ncg     rms          rms(c)
DAV:   1    -0.191808357912E+03   -0.46454E-02   -0.19474E-01  8160   0.942E-01    0.135E-01
DAV:   2    -0.191810832293E+03   -0.24744E-02   -0.95445E-03 13560   0.563E-01    0.461E-01
DAV:   3    -0.191808541586E+03    0.22907E-02   -0.42175E-03 11240   0.489E-01    0.789E-02
DAV:   4    -0.191808541952E+03   -0.36589E-06   -0.33706E-04  8000   0.855E-02
  74 F= -.19180854E+03 E0= -.19172310E+03  d E =-.482180E-02
       N       E                     dE             d eps       ncg     rms          rms(c)
DAV:   1    -0.191803955179E+03    0.45864E-02   -0.21118E-01  8160   0.971E-01    0.134E-01
DAV:   2    -0.191807260396E+03   -0.33052E-02   -0.11486E-02 13120   0.636E-01    0.528E-01
DAV:   3    -0.191804116974E+03    0.31434E-02   -0.56131E-03 10400   0.540E-01    0.598E-02
DAV:   4    -0.191804165974E+03   -0.49000E-04   -0.27013E-04  8280   0.119E-01
  75 F= -.19180417E+03 E0= -.19171873E+03  d E =0.437598E-02
       N       E                     dE             d eps       ncg     rms          rms(c)
DAV:   1    -0.191805822251E+03   -0.17053E-02   -0.52218E-02  8160   0.491E-01    0.887E-02
DAV:   2    -0.191806376473E+03   -0.55422E-03   -0.30636E-03 11680   0.338E-01    0.230E-01
DAV:   3    -0.191805763015E+03    0.61346E-03   -0.12102E-03 10160   0.263E-01    0.556E-02
DAV:   4    -0.191805790599E+03   -0.27584E-04   -0.23490E-04  7680   0.114E-01
  76 F= -.19180579E+03 E0= -.19172036E+03  d E =-.162462E-02
       N       E                     dE             d eps       ncg     rms          rms(c)
DAV:   1    -0.191813859641E+03   -0.80966E-02   -0.58529E-01  8160   0.161E+00    0.237E-01
DAV:   2    -0.191822854692E+03   -0.89951E-02   -0.31613E-02 13080   0.111E+00    0.908E-01
DAV:   3    -0.191814225709E+03    0.86290E-02   -0.15414E-02 11760   0.910E-01    0.122E-01
DAV:   4    -0.191814396334E+03   -0.17063E-03   -0.11705E-03 10120   0.250E-01    0.173E-01
DAV:   5    -0.191814066226E+03    0.33011E-03   -0.78613E-04 10160   0.234E-01    0.802E-02
DAV:   6    -0.191814078674E+03   -0.12448E-04   -0.40102E-04  8320   0.129E-01
  77 F= -.19181408E+03 E0= -.19172860E+03  d E =-.828808E-02
       N       E                     dE             d eps       ncg     rms          rms(c)
DAV:   1    -0.191815789800E+03   -0.17236E-02   -0.33793E-02  8160   0.412E-01    0.897E-02
DAV:   2    -0.191816802512E+03   -0.10127E-02   -0.31857E-03 10800   0.378E-01    0.303E-01
DAV:   3    -0.191815734363E+03    0.10681E-02   -0.15090E-03 10240   0.316E-01    0.484E-02
DAV:   4    -0.191815781202E+03   -0.46839E-04   -0.15779E-04  6800   0.107E-01
  78 F= -.19181578E+03 E0= -.19173025E+03  d E =-.170253E-02
       N       E                     dE             d eps       ncg     rms          rms(c)
DAV:   1    -0.191808971317E+03    0.67630E-02   -0.58056E-01  8160   0.164E+00    0.280E-01
DAV:   2    -0.191817215966E+03   -0.82446E-02   -0.34938E-02 12560   0.116E+00    0.862E-01
DAV:   3    -0.191808633810E+03    0.85822E-02   -0.15943E-02 12240   0.940E-01    0.153E-01
DAV:   4    -0.191808855320E+03   -0.22151E-03   -0.21447E-03  9760   0.336E-01    0.225E-01
DAV:   5    -0.191808289479E+03    0.56584E-03   -0.16520E-03 10240   0.315E-01    0.103E-01
DAV:   6    -0.191808154780E+03    0.13470E-03   -0.45964E-04  9480   0.115E-01    0.272E-02
DAV:   7    -0.191808161729E+03   -0.69490E-05   -0.78048E-05  7160   0.524E-02
  79 F= -.19180816E+03 E0= -.19172305E+03  d E =0.761947E-02
       N       E                     dE             d eps       ncg     rms          rms(c)
DAV:   1    -0.191824176592E+03   -0.16022E-01   -0.23944E+00  8160   0.327E+00    0.478E-01
DAV:   2    -0.191859666445E+03   -0.35490E-01   -0.13129E-01 13280   0.219E+00    0.185E+00
DAV:   3    -0.191825805141E+03    0.33861E-01   -0.67032E-02 12040   0.183E+00    0.252E-01
DAV:   4    -0.191826761299E+03   -0.95616E-03   -0.50302E-03 11280   0.556E-01    0.428E-01
DAV:   5    -0.191824728014E+03    0.20333E-02   -0.36739E-03 10880   0.514E-01    0.138E-01
DAV:   6    -0.191824768311E+03   -0.40298E-04   -0.14245E-03 11480   0.223E-01    0.142E-01
DAV:   7    -0.191824578978E+03    0.18933E-03   -0.84181E-04 10640   0.219E-01    0.799E-02
DAV:   8    -0.191824488555E+03    0.90424E-04   -0.11571E-04  5760   0.829E-02
  80 F= -.19182449E+03 E0= -.19173922E+03  d E =-.163268E-01
       N       E                     dE             d eps       ncg     rms          rms(c)
DAV:   1    -0.191833622272E+03   -0.90433E-02   -0.90519E-01  8160   0.199E+00    0.249E-01
DAV:   2    -0.191843356137E+03   -0.97339E-02   -0.39020E-02 13280   0.110E+00    0.918E-01
DAV:   3    -0.191834634438E+03    0.87217E-02   -0.17290E-02 11760   0.937E-01    0.131E-01
DAV:   4    -0.191834729371E+03   -0.94933E-04   -0.93944E-04 10240   0.209E-01
  81 F= -.19183473E+03 E0= -.19174967E+03  d E =-.102408E-01
       N       E                     dE             d eps       ncg     rms          rms(c)
DAV:   1    -0.191827334136E+03    0.73003E-02   -0.41463E-01  8160   0.137E+00    0.188E-01
DAV:   2    -0.191834553835E+03   -0.72197E-02   -0.24835E-02 13400   0.962E-01    0.768E-01
DAV:   3    -0.191827791243E+03    0.67626E-02   -0.11799E-02 11440   0.799E-01    0.642E-02
DAV:   4    -0.191827890576E+03   -0.99333E-04   -0.46408E-04  8520   0.151E-01
  82 F= -.19182789E+03 E0= -.19174264E+03  d E =0.683880E-02
       N       E                     dE             d eps       ncg     rms          rms(c)
DAV:   1    -0.191820874491E+03    0.69168E-02   -0.44848E-01  8160   0.141E+00    0.199E-01
DAV:   2    -0.191826797513E+03   -0.59230E-02   -0.22289E-02 13440   0.870E-01    0.705E-01
DAV:   3    -0.191821136881E+03    0.56606E-02   -0.10725E-02 12120   0.749E-01    0.967E-02
DAV:   4    -0.191821198142E+03   -0.61261E-04   -0.68484E-04  9960   0.163E-01
  83 F= -.19182120E+03 E0= -.19173559E+03  d E =0.669243E-02
       N       E                     dE             d eps       ncg     rms          rms(c)
DAV:   1    -0.191829348119E+03   -0.82112E-02   -0.71058E-01  8160   0.177E+00    0.244E-01
DAV:   2    -0.191838709329E+03   -0.93612E-02   -0.36325E-02 13120   0.117E+00    0.897E-01
DAV:   3    -0.191829987910E+03    0.87214E-02   -0.16213E-02 11480   0.934E-01    0.131E-01
DAV:   4    -0.191830222677E+03   -0.23477E-03   -0.14896E-03 10160   0.293E-01    0.195E-01
DAV:   5    -0.191829771832E+03    0.45085E-03   -0.88448E-04 10600   0.243E-01    0.685E-02
DAV:   6    -0.191829845648E+03   -0.73815E-04   -0.38604E-04  8520   0.143E-01
  84 F= -.19182985E+03 E0= -.19174422E+03  d E =-.864751E-02
       N       E                     dE             d eps       ncg     rms          rms(c)
DAV:   1    -0.191810709003E+03    0.19063E-01   -0.33035E+00  8160   0.382E+00    0.528E-01
DAV:   2    -0.191855061520E+03   -0.44353E-01   -0.16718E-01 13520   0.252E+00    0.190E+00
DAV:   3    -0.191813578884E+03    0.41483E-01   -0.80409E-02 12320   0.204E+00    0.282E-01
DAV:   4    -0.191814015903E+03   -0.43702E-03   -0.62635E-03 11320   0.559E-01    0.359E-01
DAV:   5    -0.191812504000E+03    0.15119E-02   -0.40211E-03 12040   0.494E-01    0.157E-01
DAV:   6    -0.191812470443E+03    0.33557E-04   -0.13698E-03 11760   0.217E-01    0.133E-01
DAV:   7    -0.191812473620E+03   -0.31773E-05   -0.98229E-04 10640   0.247E-01
  85 F= -.19181247E+03 E0= -.19172624E+03  d E =0.173720E-01
       N       E                     dE             d eps       ncg     rms          rms(c)
DAV:   1    -0.191833284983E+03   -0.20815E-01   -0.58491E+00  8160   0.507E+00    0.687E-01
DAV:   2    -0.191912808162E+03   -0.79523E-01   -0.29294E-01 13360   0.325E+00    0.268E+00
DAV:   3    -0.191838406743E+03    0.74401E-01   -0.14249E-01 12240   0.273E+00    0.344E-01
DAV:   4    -0.191839965940E+03   -0.15592E-02   -0.94887E-03 11400   0.713E-01    0.565E-01
DAV:   5    -0.191836778899E+03    0.31870E-02   -0.71443E-03 11800   0.706E-01    0.230E-01
DAV:   6    -0.191836465446E+03    0.31345E-03   -0.23052E-03 11760   0.257E-01    0.128E-01
DAV:   7    -0.191836430036E+03    0.35410E-04   -0.14260E-03 10800   0.256E-01    0.147E-01
DAV:   8    -0.191836150731E+03    0.27931E-03   -0.42218E-04  9240   0.163E-01    0.222E-02
DAV:   9    -0.191836155251E+03   -0.45201E-05   -0.54210E-05  6280   0.297E-02
  86 F= -.19183616E+03 E0= -.19175079E+03  d E =-.236816E-01
       N       E                     dE             d eps       ncg     rms          rms(c)
DAV:   1    -0.191838832271E+03   -0.26815E-02   -0.10338E-01  8160   0.680E-01    0.873E-02
DAV:   2    -0.191839516368E+03   -0.68410E-03   -0.41905E-03 12360   0.309E-01    0.226E-01
DAV:   3    -0.191839000387E+03    0.51598E-03   -0.13819E-03 10560   0.275E-01    0.767E-02
DAV:   4    -0.191838956263E+03    0.44123E-04   -0.18208E-04  6480   0.830E-02
  87 F= -.19183896E+03 E0= -.19175381E+03  d E =-.280101E-02
       N       E                     dE             d eps       ncg     rms          rms(c)
DAV:   1    -0.191845919038E+03   -0.69187E-02   -0.53347E-01  8160   0.153E+00    0.200E-01
DAV:   2    -0.191852144142E+03   -0.62251E-02   -0.24072E-02 13080   0.851E-01    0.740E-01
DAV:   3    -0.191846435905E+03    0.57082E-02   -0.11448E-02 11840   0.749E-01    0.111E-01
DAV:   4    -0.191846565735E+03   -0.12983E-03   -0.76375E-04  9880   0.199E-01    0.149E-01
DAV:   5    -0.191846335011E+03    0.23072E-03   -0.52882E-04  9480   0.196E-01    0.659E-02
DAV:   6    -0.191846366930E+03   -0.31919E-04   -0.24476E-04  7320   0.106E-01
  88 F= -.19184637E+03 E0= -.19176141E+03  d E =-.741067E-02
       N       E                     dE             d eps       ncg     rms          rms(c)
DAV:   1    -0.191846085427E+03    0.24958E-03   -0.87429E-03  8160   0.227E-01    0.538E-02
DAV:   2    -0.191846594026E+03   -0.50860E-03   -0.13254E-03 10920   0.260E-01    0.209E-01
DAV:   3    -0.191846058576E+03    0.53545E-03   -0.80539E-04  9800   0.222E-01    0.273E-02
DAV:   4    -0.191846064253E+03   -0.56767E-05   -0.32626E-05  5520   0.432E-02
  89 F= -.19184606E+03 E0= -.19176115E+03  d E =0.302677E-03
       N       E                     dE             d eps       ncg     rms          rms(c)
DAV:   1    -0.191852795287E+03   -0.67367E-02   -0.57752E-01  8160   0.159E+00    0.192E-01
DAV:   2    -0.191857910084E+03   -0.51148E-02   -0.23286E-02 12680   0.799E-01    0.648E-01
DAV:   3    -0.191853557390E+03    0.43527E-02   -0.95888E-03 11800   0.687E-01    0.120E-01
DAV:   4    -0.191853547742E+03    0.96483E-05   -0.61096E-04  9040   0.159E-01
  90 F= -.19185355E+03 E0= -.19176900E+03  d E =-.748349E-02
       N       E                     dE             d eps       ncg     rms          rms(c)
DAV:   1    -0.191848521138E+03    0.50363E-02   -0.28700E-01  8160   0.115E+00    0.132E-01
DAV:   2    -0.191851201779E+03   -0.26806E-02   -0.11776E-02 12680   0.560E-01    0.445E-01
DAV:   3    -0.191848935485E+03    0.22663E-02   -0.44848E-03 11480   0.498E-01    0.670E-02
DAV:   4    -0.191848920845E+03    0.14639E-04   -0.24632E-04  7000   0.768E-02
  91 F= -.19184892E+03 E0= -.19176401E+03  d E =0.462690E-02
       N       E                     dE             d eps       ncg     rms          rms(c)
DAV:   1    -0.191849500081E+03   -0.56460E-03   -0.44267E-01  8160   0.146E+00    0.216E-01
DAV:   2    -0.191849882215E+03   -0.38213E-03   -0.12533E-02 12120   0.405E-01    0.252E-01
DAV:   3    -0.191849766065E+03    0.11615E-03   -0.38256E-03 11960   0.475E-01    0.271E-01
DAV:   4    -0.191849186955E+03    0.57911E-03   -0.19316E-03 10400   0.346E-01    0.151E-01
DAV:   5    -0.191848981601E+03    0.20535E-03   -0.11178E-03  9560   0.213E-01    0.127E-01
DAV:   6    -0.191848865759E+03    0.11584E-03   -0.61971E-04  8240   0.180E-01    0.758E-02
DAV:   7    -0.191848814574E+03    0.51185E-04   -0.19182E-04  6800   0.979E-02
  92 F= -.19184881E+03 E0= -.19176311E+03  d E =0.106271E-03
       N       E                     dE             d eps       ncg     rms          rms(c)
DAV:   1    -0.191851080831E+03   -0.22151E-02   -0.47158E-02  8160   0.463E-01    0.761E-02
DAV:   2    -0.191851873083E+03   -0.79225E-03   -0.31570E-03 12600   0.318E-01    0.264E-01
DAV:   3    -0.191851076341E+03    0.79674E-03   -0.15824E-03  9960   0.285E-01    0.460E-02
DAV:   4    -0.191851087568E+03   -0.11227E-04   -0.10435E-04  6040   0.771E-02
  93 F= -.19185109E+03 E0= -.19176553E+03  d E =-.227299E-02
       N       E                     dE             d eps       ncg     rms          rms(c)
DAV:   1    -0.191860432990E+03   -0.93566E-02   -0.10035E+00  8160   0.211E+00    0.273E-01
DAV:   2    -0.191870784020E+03   -0.10351E-01   -0.46769E-02 12880   0.115E+00    0.934E-01
DAV:   3    -0.191861707795E+03    0.90762E-02   -0.20728E-02 12120   0.992E-01    0.180E-01
DAV:   4    -0.191861748806E+03   -0.41011E-04   -0.15409E-03 10920   0.278E-01    0.201E-01
DAV:   5    -0.191861425043E+03    0.32376E-03   -0.12284E-03 10520   0.290E-01    0.125E-01
DAV:   6    -0.191861323553E+03    0.10149E-03   -0.47681E-04  9000   0.149E-01    0.671E-02
DAV:   7    -0.191861345235E+03   -0.21681E-04   -0.30144E-04  8680   0.140E-01
  94 F= -.19186135E+03 E0= -.19177625E+03  d E =-.102577E-01
       N       E                     dE             d eps       ncg     rms          rms(c)
DAV:   1    -0.191864317853E+03   -0.29943E-02   -0.88231E-02  8160   0.631E-01    0.922E-02
DAV:   2    -0.191865347587E+03   -0.10297E-02   -0.46984E-03 12120   0.376E-01    0.305E-01
DAV:   3    -0.191864385196E+03    0.96239E-03   -0.20418E-03 10200   0.314E-01    0.551E-02
DAV:   4    -0.191864388627E+03   -0.34311E-05   -0.13179E-04  5760   0.849E-02
  95 F= -.19186439E+03 E0= -.19177928E+03  d E =-.304339E-02
       N       E                     dE             d eps       ncg     rms          rms(c)
DAV:   1    -0.191872345045E+03   -0.79598E-02   -0.66121E-01  8160   0.172E+00    0.227E-01
DAV:   2    -0.191879282439E+03   -0.69374E-02   -0.29780E-02 13160   0.905E-01    0.793E-01
DAV:   3    -0.191872993968E+03    0.62885E-02   -0.13813E-02 11800   0.806E-01    0.142E-01
DAV:   4    -0.191872982177E+03    0.11792E-04   -0.10151E-03 10280   0.197E-01    0.148E-01
DAV:   5    -0.191872833375E+03    0.14880E-03   -0.81872E-04  9960   0.231E-01    0.111E-01
DAV:   6    -0.191872736588E+03    0.96787E-04   -0.39187E-04  8600   0.140E-01
  96 F= -.19187274E+03 E0= -.19178787E+03  d E =-.834796E-02
       N       E                     dE             d eps       ncg     rms          rms(c)
DAV:   1    -0.191876256392E+03   -0.34230E-02   -0.11555E-01  8160   0.724E-01    0.110E-01
DAV:   2    -0.191877965919E+03   -0.17095E-02   -0.64843E-03 12320   0.483E-01    0.378E-01
DAV:   3    -0.191876339142E+03    0.16268E-02   -0.30707E-03 11800   0.412E-01    0.759E-02
DAV:   4    -0.191876378768E+03   -0.39626E-04   -0.33110E-04  8200   0.136E-01
  97 F= -.19187638E+03 E0= -.19179127E+03  d E =-.364218E-02
       N       E                     dE             d eps       ncg     rms          rms(c)
DAV:   1    -0.191882195976E+03   -0.58568E-02   -0.32068E-01  8160   0.120E+00    0.167E-01
DAV:   2    -0.191885816577E+03   -0.36206E-02   -0.15561E-02 13240   0.655E-01    0.571E-01
DAV:   3    -0.191882494987E+03    0.33216E-02   -0.73547E-03 11840   0.586E-01    0.113E-01
DAV:   4    -0.191882486001E+03    0.89856E-05   -0.63154E-04  9200   0.150E-01
  98 F= -.19188249E+03 E0= -.19179762E+03  d E =-.610723E-02
       N       E                     dE             d eps       ncg     rms          rms(c)
DAV:   1    -0.191866482421E+03    0.16013E-01   -0.21181E+00  8160   0.310E+00    0.420E-01
DAV:   2    -0.191894950535E+03   -0.28468E-01   -0.11091E-01 13400   0.186E+00    0.153E+00
DAV:   3    -0.191868047220E+03    0.26903E-01   -0.54097E-02 12000   0.165E+00    0.196E-01
DAV:   4    -0.191867839432E+03    0.20779E-03   -0.25978E-03 11400   0.234E-01    0.168E-01
DAV:   5    -0.191867750857E+03    0.88575E-04   -0.16221E-03 12000   0.297E-01    0.195E-01
DAV:   6    -0.191867498890E+03    0.25197E-03   -0.10704E-03 10400   0.258E-01    0.103E-01
DAV:   7    -0.191867411401E+03    0.87489E-04   -0.39377E-04  8840   0.115E-01
  99 F= -.19186741E+03 E0= -.19178228E+03  d E =0.150746E-01
       N       E                     dE             d eps       ncg     rms          rms(c)
DAV:   1    -0.191858164745E+03    0.93341E-02   -0.10771E+00  8160   0.222E+00    0.294E-01
DAV:   2    -0.191867672452E+03   -0.95077E-02   -0.46739E-02 12960   0.109E+00    0.879E-01
DAV:   3    -0.191859012199E+03    0.86603E-02   -0.20921E-02 11800   0.100E+00    0.196E-01
DAV:   4    -0.191858879428E+03    0.13277E-03   -0.19746E-03 10680   0.245E-01    0.159E-01
DAV:   5    -0.191858691002E+03    0.18843E-03   -0.11948E-03 10640   0.251E-01    0.144E-01
DAV:   6    -0.191858584736E+03    0.10627E-03   -0.73703E-04  9120   0.208E-01    0.949E-02
DAV:   7    -0.191858558604E+03    0.26132E-04   -0.33291E-04  8800   0.141E-01
 100 F= -.19185856E+03 E0= -.19177370E+03  d E =0.885280E-02
