<?xml version="1.0" encoding="ISO-8859-1"?>
<modeling>
 <generator>
  <i name="program" type="string">vasp </i>
  <i name="version" type="string">5.4.1  </i>
  <i name="subversion" type="string">05Feb16 (build Jul 05 2020 17:13:04) complex                          parallel </i>
  <i name="platform" type="string">IFC91_ompi </i>
  <i name="date" type="string">2024 04 23 </i>
  <i name="time" type="string">04:00:03 </i>
 </generator>
 <incar>
  <i type="int" name="ISTART">     0</i>
  <i type="string" name="PREC">normal</i>
  <i type="string" name="ALGO"> Normal</i>
  <i type="int" name="ISPIN">     1</i>
  <i type="int" name="ICHARG">     2</i>
  <i type="int" name="IBRION">     1</i>
  <i type="int" name="NSW">   100</i>
  <i type="int" name="ISIF">     3</i>
  <i type="int" name="ISYM">     0</i>
  <i name="SYMPREC">      0.00000001</i>
  <i name="POTIM">      0.50000000</i>
  <i type="logical" name="LREAL"> F  </i>
  <i type="logical" name="LPLANE"> F  </i>
  <i type="int" name="ISMEAR">     0</i>
  <i type="logical" name="LWAVE"> F  </i>
  <i type="logical" name="LCHARG"> F  </i>
  <v type="int" name="KPOINT_BSE">    -1     0     0     0</v>
 </incar>
 <kpoints>
  <generation param="Gamma">
   <v type="int" name="divisions">       8        8        1 </v>
   <v name="usershift">      0.00000000       0.00000000       0.00000000 </v>
   <v name="genvec1">      0.12500000       0.00000000       0.00000000 </v>
   <v name="genvec2">     -0.00000000       0.12500000       0.00000000 </v>
   <v name="genvec3">      0.00000000       0.00000000       1.00000000 </v>
   <v name="shift">      0.00000000       0.00000000       0.00000000 </v>
  </generation>
  <varray name="kpointlist" >
   <v>       0.00000000       0.00000000       0.00000000 </v>
   <v>       0.12500000       0.00000000       0.00000000 </v>
   <v>       0.25000000       0.00000000       0.00000000 </v>
   <v>       0.37500000       0.00000000       0.00000000 </v>
   <v>       0.50000000       0.00000000       0.00000000 </v>
   <v>       0.00000000       0.12500000       0.00000000 </v>
   <v>       0.12500000       0.12500000       0.00000000 </v>
   <v>       0.25000000       0.12500000       0.00000000 </v>
   <v>       0.37500000       0.12500000       0.00000000 </v>
   <v>       0.50000000       0.12500000       0.00000000 </v>
   <v>      -0.37500000       0.12500000       0.00000000 </v>
   <v>      -0.25000000       0.12500000       0.00000000 </v>
   <v>      -0.12500000       0.12500000       0.00000000 </v>
   <v>       0.00000000       0.25000000       0.00000000 </v>
   <v>       0.12500000       0.25000000       0.00000000 </v>
   <v>       0.25000000       0.25000000       0.00000000 </v>
   <v>       0.37500000       0.25000000       0.00000000 </v>
   <v>       0.50000000       0.25000000       0.00000000 </v>
   <v>      -0.37500000       0.25000000       0.00000000 </v>
   <v>      -0.25000000       0.25000000       0.00000000 </v>
   <v>      -0.12500000       0.25000000       0.00000000 </v>
   <v>      -0.00000000       0.37500000       0.00000000 </v>
   <v>       0.12500000       0.37500000       0.00000000 </v>
   <v>       0.25000000       0.37500000       0.00000000 </v>
   <v>       0.37500000       0.37500000       0.00000000 </v>
   <v>       0.50000000       0.37500000       0.00000000 </v>
   <v>      -0.37500000       0.37500000       0.00000000 </v>
   <v>      -0.25000000       0.37500000       0.00000000 </v>
   <v>      -0.12500000       0.37500000       0.00000000 </v>
   <v>       0.00000000       0.50000000       0.00000000 </v>
   <v>       0.12500000       0.50000000       0.00000000 </v>
   <v>       0.25000000       0.50000000       0.00000000 </v>
   <v>       0.37500000       0.50000000       0.00000000 </v>
   <v>       0.50000000       0.50000000       0.00000000 </v>
  </varray>
  <varray name="weights" >
   <v>       0.01562500 </v>
   <v>       0.03125000 </v>
   <v>       0.03125000 </v>
   <v>       0.03125000 </v>
   <v>       0.01562500 </v>
   <v>       0.03125000 </v>
   <v>       0.03125000 </v>
   <v>       0.03125000 </v>
   <v>       0.03125000 </v>
   <v>       0.03125000 </v>
   <v>       0.03125000 </v>
   <v>       0.03125000 </v>
   <v>       0.03125000 </v>
   <v>       0.03125000 </v>
   <v>       0.03125000 </v>
   <v>       0.03125000 </v>
   <v>       0.03125000 </v>
   <v>       0.03125000 </v>
   <v>       0.03125000 </v>
   <v>       0.03125000 </v>
   <v>       0.03125000 </v>
   <v>       0.03125000 </v>
   <v>       0.03125000 </v>
   <v>       0.03125000 </v>
   <v>       0.03125000 </v>
   <v>       0.03125000 </v>
   <v>       0.03125000 </v>
   <v>       0.03125000 </v>
   <v>       0.03125000 </v>
   <v>       0.01562500 </v>
   <v>       0.03125000 </v>
   <v>       0.03125000 </v>
   <v>       0.03125000 </v>
   <v>       0.01562500 </v>
  </varray>
 </kpoints>
 <parameters>
  <separator name="general" >
   <i type="string" name="SYSTEM">unknown system</i>
   <i type="logical" name="LCOMPAT"> F  </i>
  </separator>
  <separator name="electronic" >
   <i type="string" name="PREC">normal</i>
   <i name="ENMAX">    280.00000000</i>
   <i name="ENAUG">    373.43800000</i>
   <i name="EDIFF">      0.00010000</i>
   <i type="int" name="IALGO">    38</i>
   <i type="int" name="IWAVPR">    11</i>
   <i type="int" name="NBANDS">   120</i>
   <i name="NELECT">    159.00000000</i>
   <i type="int" name="TURBO">     0</i>
   <i type="int" name="IRESTART">     0</i>
   <i type="int" name="NREBOOT">     0</i>
   <i type="int" name="NMIN">     0</i>
   <i name="EREF">      0.00000000</i>
   <separator name="electronic smearing" >
    <i type="int" name="ISMEAR">     0</i>
    <i name="SIGMA">      0.20000000</i>
    <i name="KSPACING">      0.50000000</i>
    <i type="logical" name="KGAMMA"> T  </i>
   </separator>
   <separator name="electronic projectors" >
    <i type="logical" name="LREAL"> F  </i>
    <v name="ROPT">      0.00000000      0.00000000      0.00000000      0.00000000</v>
    <i type="int" name="LMAXPAW">  -100</i>
    <i type="int" name="LMAXMIX">     2</i>
    <i type="logical" name="NLSPLINE"> F  </i>
   </separator>
   <separator name="electronic startup" >
    <i type="int" name="ISTART">     0</i>
    <i type="int" name="ICHARG">     2</i>
    <i type="int" name="INIWAV">     1</i>
   </separator>
   <separator name="electronic spin" >
    <i type="int" name="ISPIN">     1</i>
    <i type="logical" name="LNONCOLLINEAR"> F  </i>
    <v name="MAGMOM">      1.00000000      1.00000000      1.00000000      1.00000000      1.00000000      1.00000000      1.00000000      1.00000000      1.00000000      1.00000000      1.00000000      1.00000000      1.00000000      1.00000000      1.00000000      1.00000000      1.00000000      1.00000000      1.00000000      1.00000000
      1.00000000      1.00000000      1.00000000      1.00000000      1.00000000      1.00000000      1.00000000</v>
    <i name="NUPDOWN">     -1.00000000</i>
    <i type="logical" name="LSORBIT"> F  </i>
    <v name="SAXIS">      0.00000000      0.00000000      1.00000000</v>
    <i type="logical" name="LSPIRAL"> F  </i>
    <v name="QSPIRAL">      0.00000000      0.00000000      0.00000000</v>
    <i type="logical" name="LZEROZ"> F  </i>
   </separator>
   <separator name="electronic exchange-correlation" >
    <i type="logical" name="LASPH"> F  </i>
    <i type="logical" name="LMETAGGA"> F  </i>
   </separator>
   <separator name="electronic convergence" >
    <i type="int" name="NELM">    60</i>
    <i type="int" name="NELMDL">    -5</i>
    <i type="int" name="NELMIN">     2</i>
    <i name="ENINI">    280.00000000</i>
    <separator name="electronic convergence detail" >
     <i type="logical" name="LDIAG"> T  </i>
     <i type="logical" name="LSUBROT"> F  </i>
     <i name="WEIMIN">      0.00100000</i>
     <i name="EBREAK">      0.00000021</i>
     <i name="DEPER">      0.30000000</i>
     <i type="int" name="NRMM">     4</i>
     <i name="TIME">      0.40000000</i>
    </separator>
   </separator>
   <separator name="electronic mixer" >
    <i name="AMIX">      0.40000000</i>
    <i name="BMIX">      1.00000000</i>
    <i name="AMIN">      0.10000000</i>
    <i name="AMIX_MAG">      1.60000000</i>
    <i name="BMIX_MAG">      1.00000000</i>
    <separator name="electronic mixer details" >
     <i type="int" name="IMIX">     4</i>
     <i type="logical" name="MIXFIRST"> F  </i>
     <i type="int" name="MAXMIX">   -45</i>
     <i name="WC">    100.00000000</i>
     <i type="int" name="INIMIX">     1</i>
     <i type="int" name="MIXPRE">     1</i>
     <i type="int" name="MREMOVE">     5</i>
    </separator>
   </separator>
   <separator name="electronic dipolcorrection" >
    <i type="logical" name="LDIPOL"> F  </i>
    <i type="logical" name="LMONO"> F  </i>
    <i type="int" name="IDIPOL">     0</i>
    <i name="EPSILON">      1.00000000</i>
    <v name="DIPOL">   -100.00000000   -100.00000000   -100.00000000</v>
    <i name="EFIELD">      0.00000000</i>
   </separator>
  </separator>
  <separator name="grids" >
   <i type="int" name="NGX">    42</i>
   <i type="int" name="NGY">    42</i>
   <i type="int" name="NGZ">   126</i>
   <i type="int" name="NGXF">    84</i>
   <i type="int" name="NGYF">    84</i>
   <i type="int" name="NGZF">   252</i>
   <i type="logical" name="ADDGRID"> F  </i>
  </separator>
  <separator name="ionic" >
   <i type="int" name="NSW">   100</i>
   <i type="int" name="IBRION">     1</i>
   <i type="int" name="ISIF">     3</i>
   <i name="PSTRESS">      0.00000000</i>
   <i name="EDIFFG">      0.00100000</i>
   <i type="int" name="NFREE">     0</i>
   <i name="POTIM">      0.50000000</i>
   <i name="SMASS">     -3.00000000</i>
   <i name="SCALEE">      1.00000000</i>
  </separator>
  <separator name="ionic md" >
   <i name="TEBEG">      0.00010000</i>
   <i name="TEEND">      0.00010000</i>
   <i type="int" name="NBLOCK">     1</i>
   <i type="int" name="KBLOCK">   100</i>
   <i type="int" name="NPACO">   256</i>
   <i name="APACO">     16.00000000</i>
  </separator>
  <separator name="symmetry" >
   <i type="int" name="ISYM">     0</i>
   <i name="SYMPREC">      0.00000001</i>
  </separator>
  <separator name="dos" >
   <i type="logical" name="LORBIT"> F  </i>
   <v name="RWIGS">     -1.00000000     -1.00000000     -1.00000000     -1.00000000</v>
   <i type="int" name="NEDOS">   301</i>
   <i name="EMIN">     10.00000000</i>
   <i name="EMAX">    -10.00000000</i>
   <i name="EFERMI">      0.00000000</i>
  </separator>
  <separator name="writing" >
   <i type="int" name="NWRITE">     2</i>
   <i type="logical" name="LWAVE"> F  </i>
   <i type="logical" name="LCHARG"> F  </i>
   <i type="logical" name="LPARD"> F  </i>
   <i type="logical" name="LVTOT"> F  </i>
   <i type="logical" name="LVHAR"> F  </i>
   <i type="logical" name="LELF"> F  </i>
   <i type="logical" name="LOPTICS"> F  </i>
   <v name="STM">      0.00000000      0.00000000      0.00000000      0.00000000      0.00000000      0.00000000      0.00000000</v>
  </separator>
  <separator name="performance" >
   <i type="int" name="NPAR">    40</i>
   <i type="int" name="NSIM">     4</i>
   <i type="int" name="NBLK">    -1</i>
   <i type="logical" name="LPLANE"> F  </i>
   <i type="logical" name="LSCALAPACK"> T  </i>
   <i type="logical" name="LSCAAWARE"> F  </i>
   <i type="logical" name="LSCALU"> F  </i>
   <i type="logical" name="LASYNC"> F  </i>
   <i type="logical" name="LORBITALREAL"> F  </i>
  </separator>
  <separator name="miscellaneous" >
   <i type="int" name="IDIOT">     3</i>
   <i type="logical" name="LMUSIC"> F  </i>
   <v name="POMASS">     50.94100000     95.94000000    183.85000000     32.06600000</v>
   <v name="DARWINR">      0.00000000      0.00000000      0.00000000      0.00000000</v>
   <v name="DARWINV">      1.00000000      1.00000000      1.00000000      1.00000000</v>
   <i type="logical" name="LCORR"> T  </i>
  </separator>
  <i type="logical" name="GGA_COMPAT"> T  </i>
  <i type="logical" name="LBERRY"> F  </i>
  <i type="int" name="ICORELEVEL">     0</i>
  <i type="logical" name="LDAU"> F  </i>
  <i type="int" name="I_CONSTRAINED_M">     0</i>
  <separator name="electronic exchange-correlation" >
   <i type="string" name="GGA">--</i>
   <i type="int" name="VOSKOWN">     0</i>
   <i type="logical" name="LHFCALC"> F  </i>
   <i type="string" name="PRECFOCK"></i>
   <i type="logical" name="LSYMGRAD"> F  </i>
   <i type="logical" name="LHFONE"> F  </i>
   <i type="logical" name="LRHFCALC"> F  </i>
   <i type="logical" name="LTHOMAS"> F  </i>
   <i type="logical" name="LMODELHF"> F  </i>
   <i name="ENCUT4O">     -1.00000000</i>
   <i type="int" name="EXXOEP">     0</i>
   <i type="int" name="FOURORBIT">     0</i>
   <i name="AEXX">      0.00000000</i>
   <i name="HFALPHA">      0.00000000</i>
   <i name="MCALPHA">      0.00000000</i>
   <i name="ALDAX">      1.00000000</i>
   <i name="AGGAX">      1.00000000</i>
   <i name="ALDAC">      1.00000000</i>
   <i name="AGGAC">      1.00000000</i>
   <i type="int" name="NKREDX">     1</i>
   <i type="int" name="NKREDY">     1</i>
   <i type="int" name="NKREDZ">     1</i>
   <i type="logical" name="SHIFTRED"> F  </i>
   <i type="logical" name="ODDONLY"> F  </i>
   <i type="logical" name="EVENONLY"> F  </i>
   <i type="int" name="LMAXFOCK">     0</i>
   <i type="int" name="NMAXFOCKAE">     0</i>
   <i type="logical" name="LFOCKAEDFT"> F  </i>
   <i name="HFSCREEN">      0.00000000</i>
   <i name="HFSCREENC">      0.00000000</i>
   <i type="int" name="NBANDSGWLOW">     0</i>
  </separator>
  <separator name="vdW DFT" >
   <i type="logical" name="LUSE_VDW"> F  </i>
   <i name="Zab_VDW">     -0.84910000</i>
   <i name="PARAM1">      0.12340000</i>
   <i name="PARAM2">      1.00000000</i>
   <i name="PARAM3">      0.00000000</i>
  </separator>
  <separator name="model GW" >
   <i type="int" name="MODEL_GW">     0</i>
   <i name="MODEL_EPS0">     58.26239943</i>
   <i name="MODEL_ALPHA">      1.00000000</i>
  </separator>
  <separator name="linear response parameters" >
   <i type="logical" name="LEPSILON"> F  </i>
   <i type="logical" name="LRPA"> F  </i>
   <i type="logical" name="LNABLA"> F  </i>
   <i type="logical" name="LVEL"> F  </i>
   <i type="int" name="KINTER">     0</i>
   <i name="CSHIFT">      0.10000000</i>
   <i name="OMEGAMAX">     -1.00000000</i>
   <i name="DEG_THRESHOLD">      0.00200000</i>
  </separator>
  <separator name="orbital magnetization" >
   <i type="logical" name="NUCIND"> F  </i>
   <v name="MAGPOS">      0.00000000      0.00000000      0.00000000</v>
   <i type="logical" name="LNICSALL"> T  </i>
   <i type="logical" name="ORBITALMAG"> F  </i>
   <i type="logical" name="LMAGBLOCH"> F  </i>
   <i type="logical" name="LCHIMAG"> F  </i>
   <i type="logical" name="LGAUGE"> T  </i>
   <i type="int" name="MAGATOM">     0</i>
   <v name="MAGDIPOL">      0.00000000      0.00000000      0.00000000</v>
   <v name="AVECCONST">      0.00000000      0.00000000      0.00000000</v>
  </separator>
  <separator name="response functions" >
   <i type="logical" name="LADDER"> F  </i>
   <i type="logical" name="LFXC"> F  </i>
   <i type="logical" name="LHARTREE"> T  </i>
   <i type="int" name="IBSE">     0</i>
   <v type="int" name="KPOINT">    -1     0     0     0</v>
   <i type="logical" name="LTCTE"> F  </i>
   <i type="logical" name="LTETE"> F  </i>
   <i type="logical" name="LTRIPLET"> F  </i>
   <i type="logical" name="LFXCEPS"> F  </i>
   <i type="logical" name="LFXHEG"> F  </i>
   <i type="int" name="NATURALO">     0</i>
   <i type="logical" name="L2ORDER"> F  </i>
   <i type="logical" name="LUSEW"> F  </i>
   <i name="ENCUTGW">     -2.00000000</i>
   <i name="ENCUTGWSOFT">     -2.00000000</i>
   <i name="ENCUTLF">     -1.00000000</i>
   <i type="int" name="LMAXMP2">    -1</i>
   <i name="SCISSOR">      0.00000000</i>
   <i type="int" name="NOMEGA">     0</i>
   <i type="int" name="NOMEGAR">     0</i>
   <i type="int" name="NBANDSGW">    -1</i>
   <i type="int" name="NBANDSO">    -1</i>
   <i type="int" name="NBANDSV">    -1</i>
   <i type="int" name="NELM">     1</i>
   <i type="int" name="NELMHF">     1</i>
   <i type="int" name="DIM">     3</i>
   <i type="int" name="ANTIRES">     0</i>
   <i name="OMEGAMAX">    -30.00000000</i>
   <i name="OMEGAMIN">    -30.00000000</i>
   <i name="OMEGATL">   -200.00000000</i>
   <i type="int" name="OMEGAGRID">     0</i>
   <i name="CSHIFT">     -0.10000000</i>
   <i type="logical" name="SELFENERGY"> F  </i>
   <i type="logical" name="LSPECTRAL"> F  </i>
   <i type="logical" name="LSPECTRALGW"> F  </i>
   <i type="logical" name="LSINGLES"> F  </i>
   <i type="logical" name="LFERMIGW"> F  </i>
   <i type="logical" name="ODDONLYGW"> F  </i>
   <i type="logical" name="EVENONLYGW"> F  </i>
   <i type="int" name="NKREDLFX">     1</i>
   <i type="int" name="NKREDLFY">     1</i>
   <i type="int" name="NKREDLFZ">     1</i>
   <i type="int" name="MAXMEM">  1800</i>
   <i type="int" name="TELESCOPE">     0</i>
   <i type="int" name="TAUPAR">     1</i>
   <i type="int" name="OMEGAPAR">    -1</i>
   <i name="LAMBDA">      1.00000000</i>
  </separator>
  <separator name="External order field" >
   <i name="OFIELD_KAPPA">      0.00000000</i>
   <v name="OFIELD_K">      0.00000000      0.00000000      0.00000000</v>
   <i name="OFIELD_Q6_NEAR">      0.00000000</i>
   <i name="OFIELD_Q6_FAR">      0.00000000</i>
   <i name="OFIELD_A">      0.00000000</i>
  </separator>
 </parameters>
 <atominfo>
  <atoms>      27 </atoms>
  <types>       4 </types>
  <array name="atoms" >
   <dimension dim="1">ion</dimension>
   <field type="string">element</field>
   <field type="int">atomtype</field>
   <set>
    <rc><c>V </c><c>   1</c></rc>
    <rc><c>V </c><c>   1</c></rc>
    <rc><c>V </c><c>   1</c></rc>
    <rc><c>Mo</c><c>   2</c></rc>
    <rc><c>Mo</c><c>   2</c></rc>
    <rc><c>Mo</c><c>   2</c></rc>
    <rc><c>W </c><c>   3</c></rc>
    <rc><c>W </c><c>   3</c></rc>
    <rc><c>W </c><c>   3</c></rc>
    <rc><c>S </c><c>   4</c></rc>
    <rc><c>S </c><c>   4</c></rc>
    <rc><c>S </c><c>   4</c></rc>
    <rc><c>S </c><c>   4</c></rc>
    <rc><c>S </c><c>   4</c></rc>
    <rc><c>S </c><c>   4</c></rc>
    <rc><c>S </c><c>   4</c></rc>
    <rc><c>S </c><c>   4</c></rc>
    <rc><c>S </c><c>   4</c></rc>
    <rc><c>S </c><c>   4</c></rc>
    <rc><c>S </c><c>   4</c></rc>
    <rc><c>S </c><c>   4</c></rc>
    <rc><c>S </c><c>   4</c></rc>
    <rc><c>S </c><c>   4</c></rc>
    <rc><c>S </c><c>   4</c></rc>
    <rc><c>S </c><c>   4</c></rc>
    <rc><c>S </c><c>   4</c></rc>
    <rc><c>S </c><c>   4</c></rc>
   </set>
  </array>
  <array name="atomtypes" >
   <dimension dim="1">type</dimension>
   <field type="int">atomspertype</field>
   <field type="string">element</field>
   <field>mass</field>
   <field>valence</field>
   <field type="string">pseudopotential</field>
   <set>
    <rc><c>   3</c><c>V </c><c>     50.94100000</c><c>      5.00000000</c><c> PAW_PBE V 08Apr2002                    </c></rc>
    <rc><c>   3</c><c>Mo</c><c>     95.94000000</c><c>      6.00000000</c><c> PAW_PBE Mo 08Apr2002                   </c></rc>
    <rc><c>   3</c><c>W </c><c>    183.85000000</c><c>      6.00000000</c><c> PAW_PBE W 08Apr2002                    </c></rc>
    <rc><c>  18</c><c>S </c><c>     32.06600000</c><c>      6.00000000</c><c>  PAW_PBE S 17Jan2003                   </c></rc>
   </set>
  </array>
 </atominfo>
 <structure name="initialpos" >
  <crystal>
   <varray name="basis" >
    <v>       8.66999996       5.03999989       0.00000000 </v>
    <v>      -8.66999982       5.04000013       0.00000000 </v>
    <v>       0.00000000       0.00000000      30.00000000 </v>
   </varray>
   <i name="volume">   2621.80797419 </i>
   <varray name="rec_basis" >
    <v>       0.05767013       0.09920635       0.00000000 </v>
    <v>      -0.05767013       0.09920635       0.00000000 </v>
    <v>       0.00000000       0.00000000       0.03333333 </v>
   </varray>
  </crystal>
  <varray name="positions" >
   <v>       0.33333334       0.00000000       0.00000000 </v>
   <v>       0.66666669       0.00000000       0.00000000 </v>
   <v>       1.00000000       0.33333334       0.00000000 </v>
   <v>       0.66666669       0.33333334       0.00000000 </v>
   <v>       0.33333334       0.66666669       0.00000000 </v>
   <v>       0.33333334       0.33333334       0.00000000 </v>
   <v>       0.00000000       0.00000000       0.00000000 </v>
   <v>       0.00000000       0.66666669       0.00000000 </v>
   <v>       0.66666669       0.66666669       0.00000000 </v>
   <v>       0.11068511       0.22244981       0.95539999 </v>
   <v>       0.22244981       0.11068511       0.04460000 </v>
   <v>       0.11068511       0.55578315       0.95539999 </v>
   <v>       0.22244981       0.44401845       0.04460000 </v>
   <v>       0.11068511       0.88911647       0.95539999 </v>
   <v>       0.22244981       0.77735180       0.04460000 </v>
   <v>       0.44401845       0.22244981       0.95539999 </v>
   <v>       0.55578315       0.11068511       0.04460000 </v>
   <v>       0.44401845       0.55578315       0.95539999 </v>
   <v>       0.55578315       0.44401845       0.04460000 </v>
   <v>       0.44401845       0.88911647       0.95539999 </v>
   <v>       0.55578315       0.77735180       0.04460000 </v>
   <v>       0.77735180       0.22244981       0.95539999 </v>
   <v>       0.88911647       0.11068511       0.04460000 </v>
   <v>       0.77735180       0.55578315       0.95539999 </v>
   <v>       0.88911647       0.44401845       0.04460000 </v>
   <v>       0.77735180       0.88911647       0.95539999 </v>
   <v>       0.88911647       0.77735180       0.04460000 </v>
  </varray>
 </structure>
 <calculation>
  <scstep>
   <time name="dav">   21.72   21.78</time>
   <time name="total">   21.77   21.82</time>
   <energy>
    <i name="alphaZ">     81.65567618 </i>
    <i name="ewald">  41890.23010373 </i>
    <i name="hartreedc"> -47722.87379190 </i>
    <i name="XCdc">   -242.92723504 </i>
    <i name="pawpsdc">   3467.42045192 </i>
    <i name="pawaedc">  -2871.19716117 </i>
    <i name="eentropy">     -0.53213811 </i>
    <i name="bandstr">   -239.07243804 </i>
    <i name="atom">   6761.44252427 </i>
    <i name="e_fr_energy">   1124.14599184 </i>
    <i name="e_wo_entrp">   1124.67812995 </i>
    <i name="e_0_energy">   1124.41206089 </i>
   </energy>
  </scstep>
  <scstep>
   <time name="dav">   28.21   28.27</time>
   <time name="total">   28.21   28.28</time>
   <energy>
    <i name="e_fr_energy">     -1.79311725 </i>
    <i name="e_wo_entrp">     -1.58204234 </i>
    <i name="e_0_energy">     -1.68757979 </i>
   </energy>
  </scstep>
  <scstep>
   <time name="dav">   27.47   27.54</time>
   <time name="total">   27.48   27.55</time>
   <energy>
    <i name="e_fr_energy">   -199.83337738 </i>
    <i name="e_wo_entrp">   -199.56346949 </i>
    <i name="e_0_energy">   -199.69842344 </i>
   </energy>
  </scstep>
  <scstep>
   <time name="dav">   29.99   30.06</time>
   <time name="total">   29.99   30.07</time>
   <energy>
    <i name="e_fr_energy">   -208.98295968 </i>
    <i name="e_wo_entrp">   -208.67493582 </i>
    <i name="e_0_energy">   -208.82894775 </i>
   </energy>
  </scstep>
  <scstep>
   <time name="dav">   28.14   28.21</time>
   <time name="total">   28.61   28.69</time>
   <energy>
    <i name="e_fr_energy">   -209.30598213 </i>
    <i name="e_wo_entrp">   -209.00023794 </i>
    <i name="e_0_energy">   -209.15311004 </i>
   </energy>
  </scstep>
  <scstep>
   <time name="dav">   31.19   31.27</time>
   <time name="total">   31.69   31.77</time>
   <energy>
    <i name="e_fr_energy">   -236.78397141 </i>
    <i name="e_wo_entrp">   -236.50175969 </i>
    <i name="e_0_energy">   -236.64286555 </i>
   </energy>
  </scstep>
  <scstep>
   <time name="dav">   32.24   32.32</time>
   <time name="total">   32.75   32.84</time>
   <energy>
    <i name="e_fr_energy">   -196.50508175 </i>
    <i name="e_wo_entrp">   -196.18898586 </i>
    <i name="e_0_energy">   -196.34703381 </i>
   </energy>
  </scstep>
  <scstep>
   <time name="dav">   29.48   29.56</time>
   <time name="total">   30.00   30.08</time>
   <energy>
    <i name="e_fr_energy">   -189.48196595 </i>
    <i name="e_wo_entrp">   -189.19259056 </i>
    <i name="e_0_energy">   -189.33727826 </i>
   </energy>
  </scstep>
  <scstep>
   <time name="dav">   30.67   30.74</time>
   <time name="total">   31.19   31.27</time>
   <energy>
    <i name="e_fr_energy">   -188.16814869 </i>
    <i name="e_wo_entrp">   -187.82767760 </i>
    <i name="e_0_energy">   -187.99791315 </i>
   </energy>
  </scstep>
  <scstep>
   <time name="dav">   32.56   32.64</time>
   <time name="total">   33.09   33.18</time>
   <energy>
    <i name="e_fr_energy">   -187.03352038 </i>
    <i name="e_wo_entrp">   -186.68703157 </i>
    <i name="e_0_energy">   -186.86027598 </i>
   </energy>
  </scstep>
  <scstep>
   <time name="dav">   30.44   30.51</time>
   <time name="total">   30.98   31.06</time>
   <energy>
    <i name="e_fr_energy">   -186.94210259 </i>
    <i name="e_wo_entrp">   -186.59100537 </i>
    <i name="e_0_energy">   -186.76655398 </i>
   </energy>
  </scstep>
  <scstep>
   <time name="dav">   30.89   30.96</time>
   <time name="total">   31.42   31.51</time>
   <energy>
    <i name="e_fr_energy">   -187.04675880 </i>
    <i name="e_wo_entrp">   -186.70975653 </i>
    <i name="e_0_energy">   -186.87825766 </i>
   </energy>
  </scstep>
  <scstep>
   <time name="dav">   30.99   31.06</time>
   <time name="total">   31.53   31.61</time>
   <energy>
    <i name="e_fr_energy">   -186.88114495 </i>
    <i name="e_wo_entrp">   -186.54257424 </i>
    <i name="e_0_energy">   -186.71185959 </i>
   </energy>
  </scstep>
  <scstep>
   <time name="dav">   32.11   32.19</time>
   <time name="total">   32.65   32.74</time>
   <energy>
    <i name="e_fr_energy">   -186.84548621 </i>
    <i name="e_wo_entrp">   -186.50021815 </i>
    <i name="e_0_energy">   -186.67285218 </i>
   </energy>
  </scstep>
  <scstep>
   <time name="dav">   30.07   30.15</time>
   <time name="total">   30.61   30.70</time>
   <energy>
    <i name="e_fr_energy">   -186.83985714 </i>
    <i name="e_wo_entrp">   -186.49286126 </i>
    <i name="e_0_energy">   -186.66635920 </i>
   </energy>
  </scstep>
  <scstep>
   <time name="dav">   31.70   31.78</time>
   <time name="total">   32.24   32.32</time>
   <energy>
    <i name="e_fr_energy">   -186.82957411 </i>
    <i name="e_wo_entrp">   -186.48239495 </i>
    <i name="e_0_energy">   -186.65598453 </i>
   </energy>
  </scstep>
  <scstep>
   <time name="dav">   31.40   31.48</time>
   <time name="total">   31.94   32.02</time>
   <energy>
    <i name="e_fr_energy">   -186.82745410 </i>
    <i name="e_wo_entrp">   -186.48219327 </i>
    <i name="e_0_energy">   -186.65482369 </i>
   </energy>
  </scstep>
  <scstep>
   <time name="dav">   29.75   29.82</time>
   <time name="total">   30.29   30.37</time>
   <energy>
    <i name="e_fr_energy">   -186.82710938 </i>
    <i name="e_wo_entrp">   -186.48173827 </i>
    <i name="e_0_energy">   -186.65442382 </i>
   </energy>
  </scstep>
  <scstep>
   <time name="dav">   26.06   26.12</time>
   <time name="total">   26.60   26.67</time>
   <energy>
    <i name="e_fr_energy">   -186.82676092 </i>
    <i name="e_wo_entrp">   -186.48101304 </i>
    <i name="e_0_energy">   -186.65388698 </i>
   </energy>
  </scstep>
  <scstep>
   <time name="dav">   24.50   24.56</time>
   <time name="total">   25.04   25.11</time>
   <energy>
    <i name="e_fr_energy">   -186.82735241 </i>
    <i name="e_wo_entrp">   -186.48165970 </i>
    <i name="e_0_energy">   -186.65450605 </i>
   </energy>
  </scstep>
  <scstep>
   <time name="dav">   23.66   23.72</time>
   <time name="total">   24.20   24.27</time>
   <energy>
    <i name="e_fr_energy">   -186.82801037 </i>
    <i name="e_wo_entrp">   -186.48258103 </i>
    <i name="e_0_energy">   -186.65529570 </i>
   </energy>
  </scstep>
  <scstep>
   <time name="dav">   20.59   20.64</time>
   <time name="total">   21.13   21.19</time>
   <energy>
    <i name="e_fr_energy">   -186.82919264 </i>
    <i name="e_wo_entrp">   -186.48361713 </i>
    <i name="e_0_energy">   -186.65640489 </i>
   </energy>
  </scstep>
  <scstep>
   <time name="dav">   20.50   20.55</time>
   <time name="total">   21.04   21.10</time>
   <energy>
    <i name="e_fr_energy">   -186.83045626 </i>
    <i name="e_wo_entrp">   -186.48498888 </i>
    <i name="e_0_energy">   -186.65772257 </i>
   </energy>
  </scstep>
  <scstep>
   <time name="dav">   18.78   18.83</time>
   <time name="total">   19.32   19.38</time>
   <energy>
    <i name="e_fr_energy">   -186.83105432 </i>
    <i name="e_wo_entrp">   -186.48557511 </i>
    <i name="e_0_energy">   -186.65831471 </i>
   </energy>
  </scstep>
  <scstep>
   <time name="dav">   16.71   16.75</time>
   <time name="total">   17.24   17.30</time>
   <energy>
    <i name="e_fr_energy">   -186.83143901 </i>
    <i name="e_wo_entrp">   -186.48591390 </i>
    <i name="e_0_energy">   -186.65867645 </i>
   </energy>
  </scstep>
  <scstep>
   <time name="dav">   19.12   19.16</time>
   <time name="total">   19.66   19.71</time>
   <energy>
    <i name="e_fr_energy">   -186.83165625 </i>
    <i name="e_wo_entrp">   -186.48614658 </i>
    <i name="e_0_energy">   -186.65890142 </i>
   </energy>
  </scstep>
  <scstep>
   <time name="dav">   19.28   19.33</time>
   <time name="total">   19.82   19.88</time>
   <energy>
    <i name="e_fr_energy">   -186.83176351 </i>
    <i name="e_wo_entrp">   -186.48625693 </i>
    <i name="e_0_energy">   -186.65901022 </i>
   </energy>
  </scstep>
  <scstep>
   <time name="dav">   20.14   20.19</time>
   <time name="total">   20.18   20.24</time>
   <energy>
    <i name="alphaZ">     81.65567618 </i>
    <i name="ewald">  41890.23010373 </i>
    <i name="hartreedc"> -47832.88101367 </i>
    <i name="XCdc">   -231.61131449 </i>
    <i name="pawpsdc">   4192.03332158 </i>
    <i name="pawaedc">  -3610.03630965 </i>
    <i name="eentropy">     -0.34550510 </i>
    <i name="bandstr">  -1437.31929167 </i>
    <i name="atom">   6761.44252427 </i>
    <i name="e_fr_energy">   -186.83180883 </i>
    <i name="e_wo_entrp">   -186.48630373 </i>
    <i name="e_0_energy">   -186.65905628 </i>
   </energy>
  </scstep>
  <structure>
   <crystal>
    <varray name="basis" >
     <v>       8.66999996       5.03999989       0.00000000 </v>
     <v>      -8.66999982       5.04000013       0.00000000 </v>
     <v>       0.00000000       0.00000000      30.00000000 </v>
    </varray>
    <i name="volume">   2621.80797419 </i>
    <varray name="rec_basis" >
     <v>       0.05767013       0.09920635       0.00000000 </v>
     <v>      -0.05767013       0.09920635       0.00000000 </v>
     <v>       0.00000000       0.00000000       0.03333333 </v>
    </varray>
   </crystal>
   <varray name="positions" >
    <v>       0.33333334       0.00000000       0.00000000 </v>
    <v>       0.66666669       0.00000000       0.00000000 </v>
    <v>       1.00000000       0.33333334       0.00000000 </v>
    <v>       0.66666669       0.33333334       0.00000000 </v>
    <v>       0.33333334       0.66666669       0.00000000 </v>
    <v>       0.33333334       0.33333334       0.00000000 </v>
    <v>       0.00000000       0.00000000       0.00000000 </v>
    <v>       0.00000000       0.66666669       0.00000000 </v>
    <v>       0.66666669       0.66666669       0.00000000 </v>
    <v>       0.11068511       0.22244981       0.95539999 </v>
    <v>       0.22244981       0.11068511       0.04460000 </v>
    <v>       0.11068511       0.55578315       0.95539999 </v>
    <v>       0.22244981       0.44401845       0.04460000 </v>
    <v>       0.11068511       0.88911647       0.95539999 </v>
    <v>       0.22244981       0.77735180       0.04460000 </v>
    <v>       0.44401845       0.22244981       0.95539999 </v>
    <v>       0.55578315       0.11068511       0.04460000 </v>
    <v>       0.44401845       0.55578315       0.95539999 </v>
    <v>       0.55578315       0.44401845       0.04460000 </v>
    <v>       0.44401845       0.88911647       0.95539999 </v>
    <v>       0.55578315       0.77735180       0.04460000 </v>
    <v>       0.77735180       0.22244981       0.95539999 </v>
    <v>       0.88911647       0.11068511       0.04460000 </v>
    <v>       0.77735180       0.55578315       0.95539999 </v>
    <v>       0.88911647       0.44401845       0.04460000 </v>
    <v>       0.77735180       0.88911647       0.95539999 </v>
    <v>       0.88911647       0.77735180       0.04460000 </v>
   </varray>
  </structure>
  <varray name="forces" >
   <v>       0.07536831       0.26765422      -0.10348370 </v>
   <v>      -0.29836784      -0.07075212      -0.03397586 </v>
   <v>      -0.00635479       0.15275697       0.08343211 </v>
   <v>      -0.18320592      -0.16677835      -0.07322461 </v>
   <v>       0.24003938      -0.12923093       0.01947269 </v>
   <v>      -0.00404609       0.28338217       0.12096640 </v>
   <v>      -0.07559321       0.34171648       0.04438894 </v>
   <v>       0.34589900      -0.13594139      -0.08703136 </v>
   <v>      -0.05344485      -0.64570655       0.01877356 </v>
   <v>      -0.66021164      -0.15316020      -2.09562675 </v>
   <v>       0.64476486      -0.14170249       2.10219406 </v>
   <v>       0.34803835      -0.69124710      -2.17118040 </v>
   <v>      -0.52539395      -0.71537980       2.16696756 </v>
   <v>       0.47606486       0.58439448      -2.20049020 </v>
   <v>      -0.61373483       0.55853910       2.11950653 </v>
   <v>       0.55186067      -0.71402775      -2.15057351 </v>
   <v>       0.32333354      -0.66514974       1.43562250 </v>
   <v>       0.19613670       0.18077888      -2.93017649 </v>
   <v>      -0.21657970       0.15036845       2.94958997 </v>
   <v>      -0.34787373       0.67533202      -1.43124367 </v>
   <v>      -0.35842538       0.70803624       2.15676197 </v>
   <v>       0.88841609      -0.00476263      -1.43222963 </v>
   <v>      -0.74178725       0.02161266       1.48523221 </v>
   <v>       0.04497471       0.17416083      -2.91038744 </v>
   <v>       0.69091806       0.14563501       2.13701586 </v>
   <v>      -0.57916533      -0.00010807      -2.08513733 </v>
   <v>      -0.16163003      -0.01042039       2.86483659 </v>
  </varray>
  <varray name="stress" >
   <v>       7.30395444      -0.04590760      -1.53147028 </v>
   <v>      -0.04590787       4.43597281       0.00017205 </v>
   <v>      -1.53147022       0.00017201      30.32803244 </v>
  </varray>
  <energy>
   <i name="e_fr_energy">   -186.83180883 </i>
   <i name="e_wo_entrp">   -186.65905628 </i>
   <i name="e_0_energy">     -0.34550510 </i>
  </energy>
  <time name="totalsc">  802.65  804.83</time>
 </calculation>
 <calculation>
  <scstep>
   <time name="dav">   21.66   21.71</time>
   <time name="total">   22.21   22.26</time>
   <energy>
    <i name="alphaZ">     78.92464926 </i>
    <i name="ewald">  39380.90794303 </i>
    <i name="hartreedc"> -45338.36358020 </i>
    <i name="XCdc">   -239.07002223 </i>
    <i name="pawpsdc">   4192.03469076 </i>
    <i name="pawaedc">  -3610.03767097 </i>
    <i name="eentropy">     -0.28728363 </i>
    <i name="bandstr">  -1413.01568169 </i>
    <i name="atom">   6761.44252427 </i>
    <i name="e_fr_energy">   -187.46443140 </i>
    <i name="e_wo_entrp">   -187.17714776 </i>
    <i name="e_0_energy">   -187.32078958 </i>
   </energy>
  </scstep>
  <scstep>
   <time name="dav">   30.19   30.26</time>
   <time name="total">   30.72   30.81</time>
   <energy>
    <i name="e_fr_energy">   -189.36317072 </i>
    <i name="e_wo_entrp">   -189.04239646 </i>
    <i name="e_0_energy">   -189.20278359 </i>
   </energy>
  </scstep>
  <scstep>
   <time name="dav">   30.66   30.73</time>
   <time name="total">   31.21   31.29</time>
   <energy>
    <i name="e_fr_energy">   -189.34354776 </i>
    <i name="e_wo_entrp">   -189.06293597 </i>
    <i name="e_0_energy">   -189.20324186 </i>
   </energy>
  </scstep>
  <scstep>
   <time name="dav">   30.98   31.05</time>
   <time name="total">   31.52   31.61</time>
   <energy>
    <i name="e_fr_energy">   -188.73989771 </i>
    <i name="e_wo_entrp">   -188.45401603 </i>
    <i name="e_0_energy">   -188.59695687 </i>
   </energy>
  </scstep>
  <scstep>
   <time name="dav">   27.78   27.85</time>
   <time name="total">   28.33   28.40</time>
   <energy>
    <i name="e_fr_energy">   -188.74524079 </i>
    <i name="e_wo_entrp">   -188.45638394 </i>
    <i name="e_0_energy">   -188.60081236 </i>
   </energy>
  </scstep>
  <scstep>
   <time name="dav">   28.10   28.16</time>
   <time name="total">   28.64   28.72</time>
   <energy>
    <i name="e_fr_energy">   -188.67138579 </i>
    <i name="e_wo_entrp">   -188.38463727 </i>
    <i name="e_0_energy">   -188.52801153 </i>
   </energy>
  </scstep>
  <scstep>
   <time name="dav">   29.70   29.77</time>
   <time name="total">   30.24   30.32</time>
   <energy>
    <i name="e_fr_energy">   -188.68730343 </i>
    <i name="e_wo_entrp">   -188.40057484 </i>
    <i name="e_0_energy">   -188.54393914 </i>
   </energy>
  </scstep>
  <scstep>
   <time name="dav">   32.08   32.16</time>
   <time name="total">   32.63   32.71</time>
   <energy>
    <i name="e_fr_energy">   -188.64792825 </i>
    <i name="e_wo_entrp">   -188.36267402 </i>
    <i name="e_0_energy">   -188.50530114 </i>
   </energy>
  </scstep>
  <scstep>
   <time name="dav">   27.91   27.98</time>
   <time name="total">   28.46   28.53</time>
   <energy>
    <i name="e_fr_energy">   -188.64469229 </i>
    <i name="e_wo_entrp">   -188.35943574 </i>
    <i name="e_0_energy">   -188.50206402 </i>
   </energy>
  </scstep>
  <scstep>
   <time name="dav">   33.07   33.15</time>
   <time name="total">   33.62   33.70</time>
   <energy>
    <i name="e_fr_energy">   -188.64445831 </i>
    <i name="e_wo_entrp">   -188.35879479 </i>
    <i name="e_0_energy">   -188.50162655 </i>
   </energy>
  </scstep>
  <scstep>
   <time name="dav">   31.70   31.78</time>
   <time name="total">   32.25   32.33</time>
   <energy>
    <i name="e_fr_energy">   -188.64347730 </i>
    <i name="e_wo_entrp">   -188.35897860 </i>
    <i name="e_0_energy">   -188.50122795 </i>
   </energy>
  </scstep>
  <scstep>
   <time name="dav">   30.25   30.32</time>
   <time name="total">   30.79   30.88</time>
   <energy>
    <i name="e_fr_energy">   -188.64351999 </i>
    <i name="e_wo_entrp">   -188.35883086 </i>
    <i name="e_0_energy">   -188.50117542 </i>
   </energy>
  </scstep>
  <scstep>
   <time name="dav">   20.83   20.88</time>
   <time name="total">   20.87   20.93</time>
   <energy>
    <i name="alphaZ">     78.92464926 </i>
    <i name="ewald">  39380.90794303 </i>
    <i name="hartreedc"> -45349.21712554 </i>
    <i name="XCdc">   -237.97942214 </i>
    <i name="pawpsdc">   3950.37860811 </i>
    <i name="pawaedc">  -3364.88302600 </i>
    <i name="eentropy">     -0.28472332 </i>
    <i name="bandstr">  -1407.93285822 </i>
    <i name="atom">   6761.44252427 </i>
    <i name="e_fr_energy">   -188.64343053 </i>
    <i name="e_wo_entrp">   -188.35870721 </i>
    <i name="e_0_energy">   -188.50106887 </i>
   </energy>
  </scstep>
  <structure>
   <crystal>
    <varray name="basis" >
     <v>       8.85447820       5.10420594       0.00000000 </v>
     <v>      -8.85583109       5.10653369       0.00000000 </v>
     <v>       0.00000000       0.00000000      30.00000000 </v>
    </varray>
    <i name="volume">   2712.53030492 </i>
    <varray name="rec_basis" >
     <v>       0.05647716       0.09794358       0.00000000 </v>
     <v>      -0.05645142       0.09792862       0.00000000 </v>
     <v>       0.00000000       0.00000000       0.03333333 </v>
    </varray>
   </crystal>
   <varray name="positions" >
    <v>       0.33482402       0.00107130      -0.00016641 </v>
    <v>       0.66549796       0.00049149      -0.00005464 </v>
    <v>       1.00071341       0.33408211       0.00013417 </v>
    <v>       0.66535878       0.33304485      -0.00011775 </v>
    <v>       0.33338267       0.66538036       0.00003131 </v>
    <v>       0.33467835       0.33470086       0.00019452 </v>
    <v>       0.00142513       0.00184576       0.00007138 </v>
    <v>       0.00031173       0.66505373      -0.00013995 </v>
    <v>       0.66342766       0.66372504       0.00003019 </v>
    <v>       0.10811527       0.22355360       0.95203004 </v>
    <v>       0.22356546       0.10821309       0.04798051 </v>
    <v>       0.10834512       0.55150656       0.95190854 </v>
    <v>       0.21756429       0.44205639       0.04808467 </v>
    <v>       0.11480650       0.89058888       0.95186141 </v>
    <v>       0.22341546       0.78173246       0.04800835 </v>
    <v>       0.44213650       0.21749712       0.95194168 </v>
    <v>       0.55349933       0.10660215       0.04690861 </v>
    <v>       0.44542934       0.55610267       0.95068801 </v>
    <v>       0.55590025       0.44534067       0.04934320 </v>
    <v>       0.44628274       0.89331643       0.95309842 </v>
    <v>       0.55817460       0.78173764       0.04806826 </v>
    <v>       0.77980072       0.21995530       0.95309684 </v>
    <v>       0.88715613       0.11285232       0.04698838 </v>
    <v>       0.77831045       0.55649156       0.95071983 </v>
    <v>       0.89173572       0.44279321       0.04803651 </v>
    <v>       0.77573995       0.89072728       0.95204690 </v>
    <v>       0.88861691       0.77775161       0.04920691 </v>
   </varray>
  </structure>
  <varray name="forces" >
   <v>       0.00372145       0.16173978      -0.04883462 </v>
   <v>      -0.18951828      -0.05756075      -0.09966412 </v>
   <v>      -0.00678231       0.16185742       0.02667860 </v>
   <v>      -0.44769794       0.04416581      -0.09017775 </v>
   <v>       0.34555849      -0.15641202       0.08608923 </v>
   <v>      -0.00917329       0.48621778       0.03096450 </v>
   <v>       0.04814079       0.25369067      -0.00066187 </v>
   <v>       0.16841551      -0.12273194       0.07144590 </v>
   <v>       0.05425848      -0.71736505       0.01102211 </v>
   <v>       0.02233663      -0.10588847       0.04418566 </v>
   <v>      -0.01792230      -0.09919677      -0.00069564 </v>
   <v>      -0.09419627      -0.06871511      -0.05844113 </v>
   <v>      -0.02614768      -0.07725103       0.12453094 </v>
   <v>      -0.04188441      -0.04354796       0.10221262 </v>
   <v>      -0.08188314      -0.04996592      -0.14638999 </v>
   <v>       0.02377168      -0.07703088      -0.08487819 </v>
   <v>       0.00651529      -0.03832685      -0.00524443 </v>
   <v>       0.06098502       0.09473465      -0.23803106 </v>
   <v>      -0.05659666       0.09306036       0.28062389 </v>
   <v>      -0.00617324       0.04330911       0.05216723 </v>
   <v>       0.10250074       0.05890210      -0.03649211 </v>
   <v>       0.03317162      -0.00778262       0.16440891 </v>
   <v>       0.09212189       0.01562960      -0.12320409 </v>
   <v>      -0.09110754       0.12230597      -0.03375809 </v>
   <v>      -0.00631004       0.09184576      -0.00893134 </v>
   <v>       0.10113576       0.00591255       0.23877993 </v>
   <v>       0.01275975      -0.01159619      -0.25770511 </v>
  </varray>
  <varray name="stress" >
   <v>     -19.88720332       0.00933822       0.01216500 </v>
   <v>       0.00933817     -19.47271348       0.02022755 </v>
   <v>       0.01216509       0.02022753      -1.75072700 </v>
  </varray>
  <energy>
   <i name="e_fr_energy">   -188.64343053 </i>
   <i name="e_wo_entrp">   -188.50106887 </i>
   <i name="e_0_energy">     -0.28472332 </i>
  </energy>
  <time name="totalsc">  423.57  424.70</time>
 </calculation>
 <calculation>
  <scstep>
   <time name="dav">   23.88   23.94</time>
   <time name="total">   24.42   24.48</time>
   <energy>
    <i name="alphaZ">     82.35069422 </i>
    <i name="ewald">  41305.24942656 </i>
    <i name="hartreedc"> -47304.12628127 </i>
    <i name="XCdc">   -233.85461530 </i>
    <i name="pawpsdc">   3949.82451814 </i>
    <i name="pawaedc">  -3364.32411689 </i>
    <i name="eentropy">     -0.23751116 </i>
    <i name="bandstr">  -1386.88811817 </i>
    <i name="atom">   6761.44252427 </i>
    <i name="e_fr_energy">   -190.56347961 </i>
    <i name="e_wo_entrp">   -190.32596845 </i>
    <i name="e_0_energy">   -190.44472403 </i>
   </energy>
  </scstep>
  <scstep>
   <time name="dav">   28.41   28.48</time>
   <time name="total">   28.93   29.01</time>
   <energy>
    <i name="e_fr_energy">   -190.55088547 </i>
    <i name="e_wo_entrp">   -190.30819358 </i>
    <i name="e_0_energy">   -190.42953953 </i>
   </energy>
  </scstep>
  <scstep>
   <time name="dav">   30.34   30.42</time>
   <time name="total">   30.87   30.96</time>
   <energy>
    <i name="e_fr_energy">   -190.03777619 </i>
    <i name="e_wo_entrp">   -189.78919330 </i>
    <i name="e_0_energy">   -189.91348474 </i>
   </energy>
  </scstep>
  <scstep>
   <time name="dav">   31.17   31.25</time>
   <time name="total">   31.72   32.01</time>
   <energy>
    <i name="e_fr_energy">   -189.83240320 </i>
    <i name="e_wo_entrp">   -189.59245992 </i>
    <i name="e_0_energy">   -189.71243156 </i>
   </energy>
  </scstep>
  <scstep>
   <time name="dav">   28.83   28.90</time>
   <time name="total">   29.37   29.45</time>
   <energy>
    <i name="e_fr_energy">   -189.74500547 </i>
    <i name="e_wo_entrp">   -189.50308735 </i>
    <i name="e_0_energy">   -189.62404641 </i>
   </energy>
  </scstep>
  <scstep>
   <time name="dav">   26.77   26.84</time>
   <time name="total">   27.31   27.38</time>
   <energy>
    <i name="e_fr_energy">   -189.72985820 </i>
    <i name="e_wo_entrp">   -189.48886893 </i>
    <i name="e_0_energy">   -189.60936356 </i>
   </energy>
  </scstep>
  <scstep>
   <time name="dav">   30.34   30.42</time>
   <time name="total">   30.88   30.96</time>
   <energy>
    <i name="e_fr_energy">   -189.73149113 </i>
    <i name="e_wo_entrp">   -189.48993148 </i>
    <i name="e_0_energy">   -189.61071131 </i>
   </energy>
  </scstep>
  <scstep>
   <time name="dav">   30.29   30.36</time>
   <time name="total">   30.83   30.91</time>
   <energy>
    <i name="e_fr_energy">   -189.73024800 </i>
    <i name="e_wo_entrp">   -189.48939077 </i>
    <i name="e_0_energy">   -189.60981938 </i>
   </energy>
  </scstep>
  <scstep>
   <time name="dav">   25.71   25.77</time>
   <time name="total">   26.24   26.32</time>
   <energy>
    <i name="e_fr_energy">   -189.73026699 </i>
    <i name="e_wo_entrp">   -189.48908277 </i>
    <i name="e_0_energy">   -189.60967488 </i>
   </energy>
  </scstep>
  <scstep>
   <time name="dav">   26.71   26.77</time>
   <time name="total">   26.74   26.82</time>
   <energy>
    <i name="alphaZ">     82.35069422 </i>
    <i name="ewald">  41305.24942656 </i>
    <i name="hartreedc"> -47277.19114848 </i>
    <i name="XCdc">   -235.24344023 </i>
    <i name="pawpsdc">   4037.10850713 </i>
    <i name="pawaedc">  -3452.79757270 </i>
    <i name="eentropy">     -0.24108104 </i>
    <i name="bandstr">  -1410.40821381 </i>
    <i name="atom">   6761.44252427 </i>
    <i name="e_fr_energy">   -189.73030408 </i>
    <i name="e_wo_entrp">   -189.48922304 </i>
    <i name="e_0_energy">   -189.60976356 </i>
   </energy>
  </scstep>
  <structure>
   <crystal>
    <varray name="basis" >
     <v>       8.66642559       4.99812106       0.00000000 </v>
     <v>      -8.66764788       5.00022373       0.00000000 </v>
     <v>       0.00000000       0.00000000      30.00000000 </v>
    </varray>
    <i name="volume">   2599.68060947 </i>
    <varray name="rec_basis" >
     <v>       0.05770198       0.10002361       0.00000000 </v>
     <v>      -0.05767771       0.10000950       0.00000000 </v>
     <v>       0.00000000       0.00000000       0.03333333 </v>
    </varray>
   </crystal>
   <varray name="positions" >
    <v>       0.33509747       0.00133755      -0.00019414 </v>
    <v>       0.66521958       0.00057772      -0.00011123 </v>
    <v>       1.00097695       0.33435866       0.00014932 </v>
    <v>       0.66500173       0.33354908      -0.00016896 </v>
    <v>       0.33345417       0.66478710       0.00008020 </v>
    <v>       0.33548079       0.33552083       0.00021211 </v>
    <v>       0.00189474       0.00222269       0.00007101 </v>
    <v>       0.00026899       0.66468701      -0.00009938 </v>
    <v>       0.66228291       0.66247609       0.00003645 </v>
    <v>       0.10796009       0.22335547       0.95205513 </v>
    <v>       0.22338271       0.10806483       0.04798012 </v>
    <v>       0.10813983       0.55148251       0.95187535 </v>
    <v>       0.21741023       0.44195266       0.04815539 </v>
    <v>       0.11469354       0.89055651       0.95191945 </v>
    <v>       0.22325330       0.78172785       0.04792522 </v>
    <v>       0.44203084       0.21734575       0.95189348 </v>
    <v>       0.55344165       0.10653195       0.04690563 </v>
    <v>       0.44564608       0.55620207       0.95055284 </v>
    <v>       0.55600107       0.44555035       0.04950255 </v>
    <v>       0.44634906       0.89339462       0.95312805 </v>
    <v>       0.55837150       0.78173733       0.04804754 </v>
    <v>       0.77981965       0.21991042       0.95319020 </v>
    <v>       0.88727084       0.11278980       0.04691842 </v>
    <v>       0.77842687       0.55678321       0.95070066 </v>
    <v>       0.89188289       0.44295251       0.04803144 </v>
    <v>       0.77584712       0.89063988       0.95218250 </v>
    <v>       0.88860984       0.77771999       0.04906057 </v>
   </varray>
  </structure>
  <varray name="forces" >
   <v>      -0.04023150       0.10684774      -0.02344489 </v>
   <v>      -0.14235198      -0.05138834      -0.09267232 </v>
   <v>      -0.01240214       0.18521078       0.00489191 </v>
   <v>      -0.52331256       0.11720473      -0.06749196 </v>
   <v>       0.37404128      -0.18471225       0.07627092 </v>
   <v>      -0.01117730       0.53552726       0.00288950 </v>
   <v>       0.08409821       0.22667823      -0.01480935 </v>
   <v>       0.11885616      -0.13237815       0.08765722 </v>
   <v>       0.10289056      -0.72796019       0.00514640 </v>
   <v>      -0.08949391      -0.01303617      -0.44783643 </v>
   <v>       0.09643784      -0.00498038       0.50281822 </v>
   <v>       0.04143472      -0.13005944      -0.56537851 </v>
   <v>      -0.05559969      -0.14989729       0.62736860 </v>
   <v>       0.04365470       0.07642615      -0.40980526 </v>
   <v>      -0.06791126       0.08662680       0.33922493 </v>
   <v>       0.04244720      -0.13804867      -0.58195043 </v>
   <v>       0.03486432      -0.08619810       0.43937231 </v>
   <v>       0.01489481       0.00993878      -0.81611403 </v>
   <v>      -0.00717630       0.01354002       0.87255269 </v>
   <v>      -0.03042209       0.08628688      -0.39354820 </v>
   <v>      -0.01456751       0.12507937       0.46211420 </v>
   <v>       0.10113803       0.00441696      -0.26960616 </v>
   <v>      -0.07847307       0.01442624       0.34225874 </v>
   <v>      -0.06041466       0.06428158      -0.60249512 </v>
   <v>       0.10735426       0.00009314       0.48905669 </v>
   <v>      -0.03097871      -0.00963190      -0.23780696 </v>
   <v>       0.00240060      -0.02429377       0.27133727 </v>
  </varray>
  <varray name="stress" >
   <v>     -10.15145561       0.00859007      -0.00575592 </v>
   <v>       0.00859000      -9.82749968       0.02365138 </v>
   <v>      -0.00575594       0.02365130       6.58954554 </v>
  </varray>
  <energy>
   <i name="e_fr_energy">   -189.73030408 </i>
   <i name="e_wo_entrp">   -189.60976356 </i>
   <i name="e_0_energy">     -0.24108104 </i>
  </energy>
  <time name="totalsc">  329.27  330.36</time>
 </calculation>
 <calculation>
  <scstep>
   <time name="dav">   21.69   21.74</time>
   <time name="total">   22.22   22.27</time>
   <energy>
    <i name="alphaZ">     85.83342311 </i>
    <i name="ewald">  42838.19567501 </i>
    <i name="hartreedc"> -48854.62443307 </i>
    <i name="XCdc">   -232.95563688 </i>
    <i name="pawpsdc">   4037.83967751 </i>
    <i name="pawaedc">  -3453.53499612 </i>
    <i name="eentropy">     -0.20224303 </i>
    <i name="bandstr">  -1373.28724400 </i>
    <i name="atom">   6761.44252427 </i>
    <i name="e_fr_energy">   -191.29325320 </i>
    <i name="e_wo_entrp">   -191.09101017 </i>
    <i name="e_0_energy">   -191.19213168 </i>
   </energy>
  </scstep>
  <scstep>
   <time name="dav">   32.08   32.16</time>
   <time name="total">   32.60   32.68</time>
   <energy>
    <i name="e_fr_energy">   -191.19328415 </i>
    <i name="e_wo_entrp">   -190.98276740 </i>
    <i name="e_0_energy">   -191.08802578 </i>
   </energy>
  </scstep>
  <scstep>
   <time name="dav">   29.94   30.01</time>
   <time name="total">   30.45   30.53</time>
   <energy>
    <i name="e_fr_energy">   -191.19844307 </i>
    <i name="e_wo_entrp">   -190.98097324 </i>
    <i name="e_0_energy">   -191.08970815 </i>
   </energy>
  </scstep>
  <scstep>
   <time name="dav">   31.31   31.39</time>
   <time name="total">   31.83   31.92</time>
   <energy>
    <i name="e_fr_energy">   -190.86440538 </i>
    <i name="e_wo_entrp">   -190.65263968 </i>
    <i name="e_0_energy">   -190.75852253 </i>
   </energy>
  </scstep>
  <scstep>
   <time name="dav">   29.42   29.49</time>
   <time name="total">   29.95   30.03</time>
   <energy>
    <i name="e_fr_energy">   -190.85103760 </i>
    <i name="e_wo_entrp">   -190.64618817 </i>
    <i name="e_0_energy">   -190.74861289 </i>
   </energy>
  </scstep>
  <scstep>
   <time name="dav">   30.16   30.23</time>
   <time name="total">   30.67   30.76</time>
   <energy>
    <i name="e_fr_energy">   -190.71246375 </i>
    <i name="e_wo_entrp">   -190.50203238 </i>
    <i name="e_0_energy">   -190.60724807 </i>
   </energy>
  </scstep>
  <scstep>
   <time name="dav">   30.59   30.67</time>
   <time name="total">   31.11   31.20</time>
   <energy>
    <i name="e_fr_energy">   -190.70381151 </i>
    <i name="e_wo_entrp">   -190.49508772 </i>
    <i name="e_0_energy">   -190.59944962 </i>
   </energy>
  </scstep>
  <scstep>
   <time name="dav">   25.91   25.97</time>
   <time name="total">   26.43   26.50</time>
   <energy>
    <i name="e_fr_energy">   -190.70104103 </i>
    <i name="e_wo_entrp">   -190.49210539 </i>
    <i name="e_0_energy">   -190.59657321 </i>
   </energy>
  </scstep>
  <scstep>
   <time name="dav">   28.62   28.68</time>
   <time name="total">   29.14   29.21</time>
   <energy>
    <i name="e_fr_energy">   -190.70121794 </i>
    <i name="e_wo_entrp">   -190.49231282 </i>
    <i name="e_0_energy">   -190.59676538 </i>
   </energy>
  </scstep>
  <scstep>
   <time name="dav">   27.09   27.16</time>
   <time name="total">   27.61   27.68</time>
   <energy>
    <i name="e_fr_energy">   -190.70113384 </i>
    <i name="e_wo_entrp">   -190.49212109 </i>
    <i name="e_0_energy">   -190.59662746 </i>
   </energy>
  </scstep>
  <scstep>
   <time name="dav">   26.16   26.23</time>
   <time name="total">   26.68   26.75</time>
   <energy>
    <i name="e_fr_energy">   -190.70095835 </i>
    <i name="e_wo_entrp">   -190.49210231 </i>
    <i name="e_0_energy">   -190.59653033 </i>
   </energy>
  </scstep>
  <scstep>
   <time name="dav">   21.61   21.66</time>
   <time name="total">   21.64   21.70</time>
   <energy>
    <i name="alphaZ">     85.83342311 </i>
    <i name="ewald">  42838.19567501 </i>
    <i name="hartreedc"> -48826.39633967 </i>
    <i name="XCdc">   -234.28643697 </i>
    <i name="pawpsdc">   4063.77145704 </i>
    <i name="pawaedc">  -3479.65405864 </i>
    <i name="eentropy">     -0.20889605 </i>
    <i name="bandstr">  -1399.39829169 </i>
    <i name="atom">   6761.44252427 </i>
    <i name="e_fr_energy">   -190.70094359 </i>
    <i name="e_wo_entrp">   -190.49204754 </i>
    <i name="e_0_energy">   -190.59649557 </i>
   </energy>
  </scstep>
  <structure>
   <crystal>
    <varray name="basis" >
     <v>       8.48453412       4.89846490       0.00000000 </v>
     <v>      -8.48543412       4.90001129       0.00000000 </v>
     <v>       0.00000000       0.00000000      30.00000000 </v>
    </varray>
    <i name="volume">   2494.19742537 </i>
    <varray name="rec_basis" >
     <v>       0.05893693       0.10206210       0.00000000 </v>
     <v>      -0.05891833       0.10205127       0.00000000 </v>
     <v>       0.00000000       0.00000000       0.03333333 </v>
    </varray>
   </crystal>
   <varray name="positions" >
    <v>       0.33542167       0.00207898      -0.00022116 </v>
    <v>       0.66446581       0.00071789      -0.00029725 </v>
    <v>       1.00214320       0.33563059       0.00014096 </v>
    <v>       0.66391713       0.33646630      -0.00028951 </v>
    <v>       0.33361953       0.66216570       0.00022985 </v>
    <v>       0.33891728       0.33904343       0.00019427 </v>
    <v>       0.00360414       0.00322034       0.00002833 </v>
    <v>      -0.00022623       0.66347482       0.00009594 </v>
    <v>       0.65813546       0.65744537       0.00004212 </v>
    <v>       0.10762542       0.22398948       0.95071003 </v>
    <v>       0.22409959       0.10775550       0.04944885 </v>
    <v>       0.10751649       0.55016975       0.95027413 </v>
    <v>       0.21604608       0.44107542       0.04988153 </v>
    <v>       0.11575259       0.89105384       0.95063616 </v>
    <v>       0.22391134       0.78283672       0.04903992 </v>
    <v>       0.44119374       0.21614814       0.95026631 </v>
    <v>       0.55294883       0.10570559       0.04819297 </v>
    <v>       0.44548457       0.55606536       0.94837190 </v>
    <v>       0.55593278       0.44539191       0.05181214 </v>
    <v>       0.44685220       0.89418739       0.95193469 </v>
    <v>       0.55909954       0.78290713       0.04942780 </v>
    <v>       0.78034125       0.21950520       0.95226349 </v>
    <v>       0.88682920       0.11340607       0.04802230 </v>
    <v>       0.77851076       0.55721576       0.94897012 </v>
    <v>       0.89220640       0.44217291       0.04946698 </v>
    <v>       0.77544601       0.89084261       0.95128553 </v>
    <v>       0.88841969       0.77754228       0.05007150 </v>
   </varray>
  </structure>
  <varray name="forces" >
   <v>      -0.08879943       0.03090027       0.03459627 </v>
   <v>      -0.11268012      -0.03037677      -0.04978069 </v>
   <v>      -0.01651623       0.16851123      -0.03615193 </v>
   <v>      -0.56753408       0.14622928      -0.01323425 </v>
   <v>       0.37865959      -0.16938464       0.04042766 </v>
   <v>       0.01754633       0.54699393      -0.02170298 </v>
   <v>       0.08731309       0.28471085      -0.01664478 </v>
   <v>       0.10434090      -0.13006268       0.06561336 </v>
   <v>       0.12933936      -0.73277607       0.00012475 </v>
   <v>      -0.00137925       0.07165945      -0.27380625 </v>
   <v>       0.02596808       0.08569764       0.32155197 </v>
   <v>       0.05071356      -0.03806029      -0.36662507 </v>
   <v>       0.03214589      -0.05223308       0.49198633 </v>
   <v>       0.08258130       0.04368632      -0.28989802 </v>
   <v>       0.04206603       0.04564807       0.17905234 </v>
   <v>      -0.01942143      -0.00981543      -0.42016400 </v>
   <v>      -0.03645837       0.01416312       0.27805706 </v>
   <v>      -0.00514434      -0.03534414      -0.62473532 </v>
   <v>      -0.00209950      -0.04597872       0.71494878 </v>
   <v>       0.01504055      -0.02806497      -0.28980356 </v>
   <v>       0.01552735       0.00949563       0.29397382 </v>
   <v>      -0.05017697       0.01568650      -0.18550652 </v>
   <v>      -0.05133579       0.01022971       0.25795252 </v>
   <v>      -0.04870249       0.01786049      -0.44808803 </v>
   <v>       0.02939602      -0.07148602       0.33030250 </v>
   <v>       0.03376307      -0.07141651      -0.06821521 </v>
   <v>      -0.04415313      -0.07647317       0.09576926 </v>
  </varray>
  <varray name="stress" >
   <v>      -5.73875388      -0.06925333      -0.03633554 </v>
   <v>      -0.06925360      -5.65839462      -0.04957718 </v>
   <v>      -0.03633583      -0.04957734       4.48936529 </v>
  </varray>
  <energy>
   <i name="e_fr_energy">   -190.70094359 </i>
   <i name="e_wo_entrp">   -190.59649557 </i>
   <i name="e_0_energy">     -0.20889605 </i>
  </energy>
  <time name="totalsc">  381.88  382.89</time>
 </calculation>
 <calculation>
  <scstep>
   <time name="dav">   21.68   21.73</time>
   <time name="total">   22.19   22.24</time>
   <energy>
    <i name="alphaZ">     90.12564689 </i>
    <i name="ewald">  44641.31685662 </i>
    <i name="hartreedc"> -50684.19436488 </i>
    <i name="XCdc">   -231.87638042 </i>
    <i name="pawpsdc">   4063.72026446 </i>
    <i name="pawaedc">  -3479.59736515 </i>
    <i name="eentropy">     -0.19262266 </i>
    <i name="bandstr">  -1352.76244467 </i>
    <i name="atom">   6761.44252427 </i>
    <i name="e_fr_energy">   -192.01788555 </i>
    <i name="e_wo_entrp">   -191.82526288 </i>
    <i name="e_0_energy">   -191.92157421 </i>
   </energy>
  </scstep>
  <scstep>
   <time name="dav">   30.21   30.28</time>
   <time name="total">   30.72   30.80</time>
   <energy>
    <i name="e_fr_energy">   -191.87881872 </i>
    <i name="e_wo_entrp">   -191.67384249 </i>
    <i name="e_0_energy">   -191.77633061 </i>
   </energy>
  </scstep>
  <scstep>
   <time name="dav">   28.36   28.43</time>
   <time name="total">   28.86   28.94</time>
   <energy>
    <i name="e_fr_energy">   -192.20303818 </i>
    <i name="e_wo_entrp">   -191.99575782 </i>
    <i name="e_0_energy">   -192.09939800 </i>
   </energy>
  </scstep>
  <scstep>
   <time name="dav">   29.76   29.84</time>
   <time name="total">   30.27   30.36</time>
   <energy>
    <i name="e_fr_energy">   -191.57641354 </i>
    <i name="e_wo_entrp">   -191.37222280 </i>
    <i name="e_0_energy">   -191.47431817 </i>
   </energy>
  </scstep>
  <scstep>
   <time name="dav">   30.09   30.16</time>
   <time name="total">   30.60   30.68</time>
   <energy>
    <i name="e_fr_energy">   -191.50990154 </i>
    <i name="e_wo_entrp">   -191.31429782 </i>
    <i name="e_0_energy">   -191.41209968 </i>
   </energy>
  </scstep>
  <scstep>
   <time name="dav">   30.16   30.23</time>
   <time name="total">   30.66   30.75</time>
   <energy>
    <i name="e_fr_energy">   -191.33306436 </i>
    <i name="e_wo_entrp">   -191.13086399 </i>
    <i name="e_0_energy">   -191.23196418 </i>
   </energy>
  </scstep>
  <scstep>
   <time name="dav">   30.09   30.17</time>
   <time name="total">   30.60   30.69</time>
   <energy>
    <i name="e_fr_energy">   -191.32652207 </i>
    <i name="e_wo_entrp">   -191.12533979 </i>
    <i name="e_0_energy">   -191.22593093 </i>
   </energy>
  </scstep>
  <scstep>
   <time name="dav">   29.52   29.59</time>
   <time name="total">   30.03   30.11</time>
   <energy>
    <i name="e_fr_energy">   -191.32487163 </i>
    <i name="e_wo_entrp">   -191.12398138 </i>
    <i name="e_0_energy">   -191.22442650 </i>
   </energy>
  </scstep>
  <scstep>
   <time name="dav">   29.31   29.38</time>
   <time name="total">   29.83   29.90</time>
   <energy>
    <i name="e_fr_energy">   -191.32088381 </i>
    <i name="e_wo_entrp">   -191.11964570 </i>
    <i name="e_0_energy">   -191.22026476 </i>
   </energy>
  </scstep>
  <scstep>
   <time name="dav">   27.50   27.57</time>
   <time name="total">   28.01   28.09</time>
   <energy>
    <i name="e_fr_energy">   -191.32132044 </i>
    <i name="e_wo_entrp">   -191.12022382 </i>
    <i name="e_0_energy">   -191.22077213 </i>
   </energy>
  </scstep>
  <scstep>
   <time name="dav">   28.18   28.24</time>
   <time name="total">   28.68   28.76</time>
   <energy>
    <i name="e_fr_energy">   -191.32108490 </i>
    <i name="e_wo_entrp">   -191.11996752 </i>
    <i name="e_0_energy">   -191.22052621 </i>
   </energy>
  </scstep>
  <scstep>
   <time name="dav">   18.46   18.51</time>
   <time name="total">   18.50   18.55</time>
   <energy>
    <i name="alphaZ">     90.12564689 </i>
    <i name="ewald">  44641.31685662 </i>
    <i name="hartreedc"> -50650.92390280 </i>
    <i name="XCdc">   -233.37799487 </i>
    <i name="pawpsdc">   4084.63172390 </i>
    <i name="pawaedc">  -3500.59519289 </i>
    <i name="eentropy">     -0.20115482 </i>
    <i name="bandstr">  -1383.73959331 </i>
    <i name="atom">   6761.44252427 </i>
    <i name="e_fr_energy">   -191.32108700 </i>
    <i name="e_wo_entrp">   -191.11993218 </i>
    <i name="e_0_energy">   -191.22050959 </i>
   </energy>
  </scstep>
  <structure>
   <crystal>
    <varray name="basis" >
     <v>       8.27566963       4.77830377       0.00000000 </v>
     <v>      -8.28054387       4.78673423       0.00000000 </v>
     <v>       0.00000000       0.00000000      30.00000000 </v>
    </varray>
    <i name="volume">   2375.41155403 </i>
    <varray name="rec_basis" >
     <v>       0.06045354       0.10457822       0.00000000 </v>
     <v>      -0.06034706       0.10451666       0.00000000 </v>
     <v>       0.00000000       0.00000000       0.03333333 </v>
    </varray>
   </crystal>
   <varray name="positions" >
    <v>       0.33511563       0.00307694      -0.00008962 </v>
    <v>       0.66333265       0.00107487      -0.00051126 </v>
    <v>       1.00417322       0.33790389      -0.00000227 </v>
    <v>       0.66177931       0.34249456      -0.00034889 </v>
    <v>       0.33415752       0.65728019       0.00040016 </v>
    <v>       0.34581107       0.34575045       0.00009369 </v>
    <v>       0.00757937       0.00585199      -0.00005066 </v>
    <v>      -0.00117771       0.66118776       0.00038442 </v>
    <v>       0.65013247       0.64751017       0.00003957 </v>
    <v>       0.10834776       0.22526706       0.94905056 </v>
    <v>       0.22570355       0.10848259       0.05131328 </v>
    <v>       0.10729668       0.54880646       0.94821777 </v>
    <v>       0.21513425       0.43997466       0.05239909 </v>
    <v>       0.11736833       0.89129790       0.94892194 </v>
    <v>       0.22514090       0.78363675       0.05030883 </v>
    <v>       0.44064079       0.21568969       0.94802611 </v>
    <v>       0.55267701       0.10571859       0.04981658 </v>
    <v>       0.44479282       0.55555965       0.94522342 </v>
    <v>       0.55530441       0.44464031       0.05531509 </v>
    <v>       0.44684380       0.89413337       0.95029380 </v>
    <v>       0.55948336       0.78351449       0.05117078 </v>
    <v>       0.78045130       0.21981060       0.95105934 </v>
    <v>       0.88628907       0.11420273       0.04954534 </v>
    <v>       0.77833587       0.55764888       0.94655314 </v>
    <v>       0.89165853       0.44068812       0.05134893 </v>
    <v>       0.77459061       0.89006936       0.95046138 </v>
    <v>       0.88725189       0.77694243       0.05105939 </v>
   </varray>
  </structure>
  <varray name="forces" >
   <v>      -0.10093902      -0.01670151      -0.00576874 </v>
   <v>      -0.12098756      -0.00057332      -0.02939550 </v>
   <v>       0.00501029       0.11171814       0.03787989 </v>
   <v>      -0.21777520       0.08806246       0.05596373 </v>
   <v>       0.16667183      -0.11904754      -0.02291142 </v>
   <v>       0.03339154       0.02522352       0.03466556 </v>
   <v>       0.00783309       0.37868279      -0.00591767 </v>
   <v>       0.11169999      -0.15472149      -0.00690711 </v>
   <v>       0.04521563      -0.22845451      -0.04250996 </v>
   <v>       0.08422073       0.14982489      -0.03947039 </v>
   <v>      -0.04792958       0.15705164       0.06471464 </v>
   <v>       0.02039581       0.03350153      -0.05924731 </v>
   <v>       0.12987679       0.03586258       0.11747126 </v>
   <v>       0.08256479      -0.01653215      -0.00266712 </v>
   <v>       0.16696238      -0.04665250      -0.06234610 </v>
   <v>      -0.09227522       0.14201857      -0.06820439 </v>
   <v>      -0.09417946       0.09494784      -0.00853521 </v>
   <v>      -0.02158763      -0.03599301      -0.27403651 </v>
   <v>      -0.01066710      -0.07472169       0.34358207 </v>
   <v>       0.02612136      -0.12587924       0.02411283 </v>
   <v>       0.13456708      -0.10853438      -0.00351107 </v>
   <v>      -0.24181817       0.04443464       0.05179655 </v>
   <v>       0.01532592       0.03478773      -0.02076256 </v>
   <v>      -0.09576108       0.01808324      -0.13407566 </v>
   <v>      -0.05341645      -0.09771837       0.02362835 </v>
   <v>       0.17748694      -0.15263701       0.24908188 </v>
   <v>      -0.11000771      -0.13603287      -0.21663002 </v>
  </varray>
  <varray name="stress" >
   <v>      -0.07820166      -0.19330896       0.21380091 </v>
   <v>      -0.19330906       0.24441327      -0.22608944 </v>
   <v>       0.21380109      -0.22608925      -0.59207258 </v>
  </varray>
  <energy>
   <i name="e_fr_energy">   -191.32108700 </i>
   <i name="e_wo_entrp">   -191.22050959 </i>
   <i name="e_0_energy">     -0.20115482 </i>
  </energy>
  <time name="totalsc">  381.01  382.01</time>
 </calculation>
 <calculation>
  <scstep>
   <time name="dav">   21.68   21.73</time>
   <time name="total">   22.19   22.24</time>
   <energy>
    <i name="alphaZ">     90.09042244 </i>
    <i name="ewald">  44606.10056597 </i>
    <i name="hartreedc"> -50616.11445675 </i>
    <i name="XCdc">   -233.48042503 </i>
    <i name="pawpsdc">   4084.54893443 </i>
    <i name="pawaedc">  -3500.50850728 </i>
    <i name="eentropy">     -0.20412387 </i>
    <i name="bandstr">  -1383.23725994 </i>
    <i name="atom">   6761.44252427 </i>
    <i name="e_fr_energy">   -191.36232577 </i>
    <i name="e_wo_entrp">   -191.15820190 </i>
    <i name="e_0_energy">   -191.26026384 </i>
   </energy>
  </scstep>
  <scstep>
   <time name="dav">   31.09   31.16</time>
   <time name="total">   31.60   31.68</time>
   <energy>
    <i name="e_fr_energy">   -191.40363323 </i>
    <i name="e_wo_entrp">   -191.19656149 </i>
    <i name="e_0_energy">   -191.30009736 </i>
   </energy>
  </scstep>
  <scstep>
   <time name="dav">   29.87   29.95</time>
   <time name="total">   30.38   30.46</time>
   <energy>
    <i name="e_fr_energy">   -191.37411206 </i>
    <i name="e_wo_entrp">   -191.17031417 </i>
    <i name="e_0_energy">   -191.27221311 </i>
   </energy>
  </scstep>
  <scstep>
   <time name="dav">   27.66   27.72</time>
   <time name="total">   28.17   28.24</time>
   <energy>
    <i name="e_fr_energy">   -191.37399719 </i>
    <i name="e_wo_entrp">   -191.16913959 </i>
    <i name="e_0_energy">   -191.27156839 </i>
   </energy>
  </scstep>
  <scstep>
   <time name="dav">   26.17   26.23</time>
   <time name="total">   26.68   26.75</time>
   <energy>
    <i name="e_fr_energy">   -191.37191422 </i>
    <i name="e_wo_entrp">   -191.16733237 </i>
    <i name="e_0_energy">   -191.26962330 </i>
   </energy>
  </scstep>
  <scstep>
   <time name="dav">   26.09   26.15</time>
   <time name="total">   26.60   26.67</time>
   <energy>
    <i name="e_fr_energy">   -191.37179855 </i>
    <i name="e_wo_entrp">   -191.16711729 </i>
    <i name="e_0_energy">   -191.26945792 </i>
   </energy>
  </scstep>
  <scstep>
   <time name="dav">   26.83   26.90</time>
   <time name="total">   27.34   27.42</time>
   <energy>
    <i name="e_fr_energy">   -191.37215670 </i>
    <i name="e_wo_entrp">   -191.16759702 </i>
    <i name="e_0_energy">   -191.26987686 </i>
   </energy>
  </scstep>
  <scstep>
   <time name="dav">   23.62   23.67</time>
   <time name="total">   24.13   24.19</time>
   <energy>
    <i name="e_fr_energy">   -191.37151176 </i>
    <i name="e_wo_entrp">   -191.16689036 </i>
    <i name="e_0_energy">   -191.26920106 </i>
   </energy>
  </scstep>
  <scstep>
   <time name="dav">   17.15   17.19</time>
   <time name="total">   17.18   17.23</time>
   <energy>
    <i name="alphaZ">     90.09042244 </i>
    <i name="ewald">  44606.10056597 </i>
    <i name="hartreedc"> -50617.32538495 </i>
    <i name="XCdc">   -233.45072903 </i>
    <i name="pawpsdc">   4081.28711767 </i>
    <i name="pawaedc">  -3497.20214729 </i>
    <i name="eentropy">     -0.20466525 </i>
    <i name="bandstr">  -1382.10922987 </i>
    <i name="atom">   6761.44252427 </i>
    <i name="e_fr_energy">   -191.37152604 </i>
    <i name="e_wo_entrp">   -191.16686078 </i>
    <i name="e_0_energy">   -191.26919341 </i>
   </energy>
  </scstep>
  <structure>
   <crystal>
    <varray name="basis" >
     <v>       8.27128070       4.77703327       0.00000000 </v>
     <v>      -8.28107289       4.79398349       0.00000000 </v>
     <v>       0.00000000       0.00000000      30.00000000 </v>
    </varray>
    <i name="volume">   2376.34031612 </i>
    <varray name="rec_basis" >
     <v>       0.06052143       0.10454403       0.00000000 </v>
     <v>      -0.06030744       0.10442041       0.00000000 </v>
     <v>       0.00000000       0.00000000       0.03333333 </v>
    </varray>
   </crystal>
   <varray name="positions" >
    <v>       0.33473525       0.00328898      -0.00009870 </v>
    <v>       0.66297388       0.00142580      -0.00055907 </v>
    <v>       1.00475689       0.33845838       0.00005857 </v>
    <v>       0.66158421       0.34358677      -0.00025875 </v>
    <v>       0.33404353       0.65618264       0.00036352 </v>
    <v>       0.34604870       0.34579257       0.00014941 </v>
    <v>       0.00952537       0.00774856      -0.00006036 </v>
    <v>      -0.00163569       0.66007514       0.00037382 </v>
    <v>       0.64909458       0.64620512      -0.00002900 </v>
    <v>       0.10935335       0.22578156       0.94898328 </v>
    <v>       0.22636134       0.10941789       0.05142166 </v>
    <v>       0.10752533       0.54891326       0.94811786 </v>
    <v>       0.21569340       0.43977455       0.05259368 </v>
    <v>       0.11752965       0.89097399       0.94891393 </v>
    <v>       0.22539584       0.78291536       0.05021118 </v>
    <v>       0.44108817       0.21667595       0.94791146 </v>
    <v>       0.55288126       0.10647327       0.04980630 </v>
    <v>       0.44454605       0.55543963       0.94477507 </v>
    <v>       0.55489394       0.44429200       0.05587623 </v>
    <v>       0.44628350       0.89342089       0.95032920 </v>
    <v>       0.55932865       0.78257449       0.05116889 </v>
    <v>       0.77996932       0.22074166       0.95114019 </v>
    <v>       0.88650861       0.11433569       0.04951514 </v>
    <v>       0.77814690       0.55802056       0.94633186 </v>
    <v>       0.89100699       0.44034680       0.05139105 </v>
    <v>       0.77433564       0.88877824       0.95086100 </v>
    <v>       0.88623979       0.77657468       0.05071247 </v>
   </varray>
  </structure>
  <varray name="forces" >
   <v>      -0.10092701       0.02554639      -0.02473446 </v>
   <v>      -0.15001458      -0.02061866      -0.04006567 </v>
   <v>       0.02549494       0.10900336       0.03624174 </v>
   <v>      -0.23545633       0.10549702       0.03441439 </v>
   <v>       0.19146209      -0.10759305      -0.01570043 </v>
   <v>       0.02121118       0.04854923       0.00150668 </v>
   <v>      -0.02053807       0.44462674      -0.01500931 </v>
   <v>       0.12946791      -0.18335488       0.00658838 </v>
   <v>       0.04947761      -0.36174515      -0.00072280 </v>
   <v>       0.03340491       0.08835858      -0.06719357 </v>
   <v>       0.00230511       0.09427125       0.10289170 </v>
   <v>       0.02095544      -0.00414784      -0.05072043 </v>
   <v>       0.06748668       0.01349163       0.08504255 </v>
   <v>       0.05499221      -0.01091809       0.04095660 </v>
   <v>       0.10111493      -0.04126709      -0.09538924 </v>
   <v>      -0.04136207       0.08712606      -0.02620612 </v>
   <v>      -0.05927672       0.04930233      -0.01968764 </v>
   <v>       0.01087853      -0.04711523      -0.14400214 </v>
   <v>      -0.03398285      -0.03120349       0.18197642 </v>
   <v>       0.00996890      -0.09008204       0.05644415 </v>
   <v>       0.07937406      -0.07083086      -0.03637424 </v>
   <v>      -0.15215792       0.03173255       0.08650085 </v>
   <v>       0.01101872       0.03686985      -0.04078503 </v>
   <v>      -0.04896786       0.01713921      -0.07969990 </v>
   <v>      -0.02144971      -0.05773325       0.02495085 </v>
   <v>       0.13510903      -0.07291832       0.25059897 </v>
   <v>      -0.07958912      -0.05198626      -0.25182231 </v>
  </varray>
  <varray name="stress" >
   <v>      -0.08544606      -0.02103059       0.04796979 </v>
   <v>      -0.02103068      -0.17306682      -0.06555809 </v>
   <v>       0.04796982      -0.06555821      -1.33245831 </v>
  </varray>
  <energy>
   <i name="e_fr_energy">   -191.37152604 </i>
   <i name="e_wo_entrp">   -191.26919341 </i>
   <i name="e_0_energy">     -0.20466525 </i>
  </energy>
  <time name="totalsc">  275.98  276.71</time>
 </calculation>
 <calculation>
  <scstep>
   <time name="dav">   21.67   21.72</time>
   <time name="total">   22.18   22.23</time>
   <energy>
    <i name="alphaZ">     90.18707437 </i>
    <i name="ewald">  44653.19659906 </i>
    <i name="hartreedc"> -50665.38376113 </i>
    <i name="XCdc">   -233.37369947 </i>
    <i name="pawpsdc">   4081.17910245 </i>
    <i name="pawaedc">  -3497.09264521 </i>
    <i name="eentropy">     -0.20645183 </i>
    <i name="bandstr">  -1381.36443542 </i>
    <i name="atom">   6761.44252427 </i>
    <i name="e_fr_energy">   -191.41569291 </i>
    <i name="e_wo_entrp">   -191.20924108 </i>
    <i name="e_0_energy">   -191.31246700 </i>
   </energy>
  </scstep>
  <scstep>
   <time name="dav">   31.62   31.70</time>
   <time name="total">   32.13   32.21</time>
   <energy>
    <i name="e_fr_energy">   -191.44679230 </i>
    <i name="e_wo_entrp">   -191.23672069 </i>
    <i name="e_0_energy">   -191.34175649 </i>
   </energy>
  </scstep>
  <scstep>
   <time name="dav">   30.07   30.14</time>
   <time name="total">   30.58   30.66</time>
   <energy>
    <i name="e_fr_energy">   -191.42376326 </i>
    <i name="e_wo_entrp">   -191.21756419 </i>
    <i name="e_0_energy">   -191.32066372 </i>
   </energy>
  </scstep>
  <scstep>
   <time name="dav">   27.72   27.79</time>
   <time name="total">   28.23   28.31</time>
   <energy>
    <i name="e_fr_energy">   -191.42233088 </i>
    <i name="e_wo_entrp">   -191.21539701 </i>
    <i name="e_0_energy">   -191.31886394 </i>
   </energy>
  </scstep>
  <scstep>
   <time name="dav">   27.28   27.35</time>
   <time name="total">   27.79   27.86</time>
   <energy>
    <i name="e_fr_energy">   -191.42105612 </i>
    <i name="e_wo_entrp">   -191.21383508 </i>
    <i name="e_0_energy">   -191.31744560 </i>
   </energy>
  </scstep>
  <scstep>
   <time name="dav">   25.75   25.81</time>
   <time name="total">   26.26   26.33</time>
   <energy>
    <i name="e_fr_energy">   -191.42066626 </i>
    <i name="e_wo_entrp">   -191.21341607 </i>
    <i name="e_0_energy">   -191.31704116 </i>
   </energy>
  </scstep>
  <scstep>
   <time name="dav">   27.52   27.59</time>
   <time name="total">   28.03   28.10</time>
   <energy>
    <i name="e_fr_energy">   -191.42091611 </i>
    <i name="e_wo_entrp">   -191.21378168 </i>
    <i name="e_0_energy">   -191.31734890 </i>
   </energy>
  </scstep>
  <scstep>
   <time name="dav">   23.70   23.75</time>
   <time name="total">   24.20   24.27</time>
   <energy>
    <i name="e_fr_energy">   -191.42032288 </i>
    <i name="e_wo_entrp">   -191.21307408 </i>
    <i name="e_0_energy">   -191.31669848 </i>
   </energy>
  </scstep>
  <scstep>
[...]
      <set comment="kpoint 31">
       <r>  -17.4966    1.0000 </r>
       <r>  -17.2883    1.0000 </r>
       <r>  -16.8972    1.0000 </r>
       <r>  -16.5974    1.0000 </r>
       <r>  -16.4744    1.0000 </r>
       <r>  -16.3345    1.0000 </r>
       <r>  -16.2884    1.0000 </r>
       <r>  -16.1670    1.0000 </r>
       <r>  -16.0837    1.0000 </r>
       <r>  -16.0178    1.0000 </r>
       <r>  -15.9501    1.0000 </r>
       <r>  -15.8837    1.0000 </r>
       <r>  -15.8219    1.0000 </r>
       <r>  -15.6870    1.0000 </r>
       <r>  -15.6341    1.0000 </r>
       <r>  -15.5740    1.0000 </r>
       <r>  -15.5160    1.0000 </r>
       <r>  -15.3735    1.0000 </r>
       <r>   -9.7632    1.0000 </r>
       <r>   -9.4308    1.0000 </r>
       <r>   -9.2591    1.0000 </r>
       <r>   -8.9387    1.0000 </r>
       <r>   -8.8652    1.0000 </r>
       <r>   -8.7147    1.0000 </r>
       <r>   -8.5261    1.0000 </r>
       <r>   -8.4789    1.0000 </r>
       <r>   -8.3875    1.0000 </r>
       <r>   -8.3363    1.0000 </r>
       <r>   -8.2931    1.0000 </r>
       <r>   -8.2268    1.0000 </r>
       <r>   -8.1871    1.0000 </r>
       <r>   -8.0378    1.0000 </r>
       <r>   -7.9663    1.0000 </r>
       <r>   -7.9316    1.0000 </r>
       <r>   -7.7837    1.0000 </r>
       <r>   -7.6414    1.0000 </r>
       <r>   -7.5050    1.0000 </r>
       <r>   -7.3404    1.0000 </r>
       <r>   -7.2819    1.0000 </r>
       <r>   -7.1894    1.0000 </r>
       <r>   -7.1622    1.0000 </r>
       <r>   -7.0744    1.0000 </r>
       <r>   -7.0076    1.0000 </r>
       <r>   -6.9381    1.0000 </r>
       <r>   -6.9210    1.0000 </r>
       <r>   -6.7487    1.0000 </r>
       <r>   -6.6967    1.0000 </r>
       <r>   -6.6501    1.0000 </r>
       <r>   -6.5844    1.0000 </r>
       <r>   -6.4822    1.0000 </r>
       <r>   -6.4223    1.0000 </r>
       <r>   -6.3270    1.0000 </r>
       <r>   -6.2958    1.0000 </r>
       <r>   -6.2404    1.0000 </r>
       <r>   -6.1702    1.0000 </r>
       <r>   -6.0575    1.0000 </r>
       <r>   -6.0164    1.0000 </r>
       <r>   -5.9437    1.0000 </r>
       <r>   -5.9050    1.0000 </r>
       <r>   -5.8074    1.0000 </r>
       <r>   -5.7255    1.0000 </r>
       <r>   -5.6255    1.0000 </r>
       <r>   -5.6065    1.0000 </r>
       <r>   -5.4903    1.0000 </r>
       <r>   -5.2774    1.0000 </r>
       <r>   -5.1540    1.0000 </r>
       <r>   -5.0546    1.0000 </r>
       <r>   -4.9215    1.0000 </r>
       <r>   -4.7918    1.0000 </r>
       <r>   -4.6812    1.0000 </r>
       <r>   -4.5560    1.0000 </r>
       <r>   -4.4310    1.0000 </r>
       <r>   -4.3465    1.0000 </r>
       <r>   -4.2180    1.0000 </r>
       <r>   -4.1428    1.0000 </r>
       <r>   -3.9051    1.0000 </r>
       <r>   -3.7288    0.9998 </r>
       <r>   -3.6072    0.9958 </r>
       <r>   -3.5190    0.9780 </r>
       <r>   -3.0866    0.1482 </r>
       <r>   -3.0393    0.0841 </r>
       <r>   -2.8455    0.0030 </r>
       <r>   -2.7613    0.0004 </r>
       <r>   -2.6115    0.0000 </r>
       <r>   -2.5306    0.0000 </r>
       <r>   -2.4379    0.0000 </r>
       <r>   -2.2709    0.0000 </r>
       <r>   -2.1412    0.0000 </r>
       <r>   -1.9529    0.0000 </r>
       <r>   -1.8668    0.0000 </r>
       <r>   -1.6791    0.0000 </r>
       <r>   -1.5732    0.0000 </r>
       <r>   -1.4883    0.0000 </r>
       <r>   -1.4281    0.0000 </r>
       <r>   -1.3218    0.0000 </r>
       <r>   -1.2465    0.0000 </r>
       <r>   -1.1472    0.0000 </r>
       <r>   -1.0674    0.0000 </r>
       <r>   -0.9756    0.0000 </r>
       <r>   -0.8705    0.0000 </r>
       <r>   -0.8649    0.0000 </r>
       <r>   -0.7829    0.0000 </r>
       <r>   -0.6841    0.0000 </r>
       <r>   -0.5827    0.0000 </r>
       <r>   -0.5089    0.0000 </r>
       <r>   -0.3886    0.0000 </r>
       <r>   -0.2693    0.0000 </r>
       <r>   -0.1036    0.0000 </r>
       <r>    0.0754    0.0000 </r>
       <r>    0.3419    0.0000 </r>
       <r>    0.5960    0.0000 </r>
       <r>    0.6318    0.0000 </r>
       <r>    0.8372    0.0000 </r>
       <r>    0.9271    0.0000 </r>
       <r>    1.0591    0.0000 </r>
       <r>    1.2112    0.0000 </r>
       <r>    1.3147    0.0000 </r>
       <r>    2.1292    0.0000 </r>
       <r>    2.2882    0.0000 </r>
       <r>    2.3860    0.0000 </r>
      </set>
      <set comment="kpoint 32">
       <r>  -17.5141    1.0000 </r>
       <r>  -17.1902    1.0000 </r>
       <r>  -17.0346    1.0000 </r>
       <r>  -16.5810    1.0000 </r>
       <r>  -16.4206    1.0000 </r>
       <r>  -16.3293    1.0000 </r>
       <r>  -16.2388    1.0000 </r>
       <r>  -16.2010    1.0000 </r>
       <r>  -16.1060    1.0000 </r>
       <r>  -16.0493    1.0000 </r>
       <r>  -15.9320    1.0000 </r>
       <r>  -15.8825    1.0000 </r>
       <r>  -15.8218    1.0000 </r>
       <r>  -15.6920    1.0000 </r>
       <r>  -15.6575    1.0000 </r>
       <r>  -15.5690    1.0000 </r>
       <r>  -15.5040    1.0000 </r>
       <r>  -15.3588    1.0000 </r>
       <r>   -9.7006    1.0000 </r>
       <r>   -9.5245    1.0000 </r>
       <r>   -9.3588    1.0000 </r>
       <r>   -8.8953    1.0000 </r>
       <r>   -8.7512    1.0000 </r>
       <r>   -8.5977    1.0000 </r>
       <r>   -8.5434    1.0000 </r>
       <r>   -8.4424    1.0000 </r>
       <r>   -8.3923    1.0000 </r>
       <r>   -8.3655    1.0000 </r>
       <r>   -8.3230    1.0000 </r>
       <r>   -8.2250    1.0000 </r>
       <r>   -8.2007    1.0000 </r>
       <r>   -8.1075    1.0000 </r>
       <r>   -8.0175    1.0000 </r>
       <r>   -7.9502    1.0000 </r>
       <r>   -7.8336    1.0000 </r>
       <r>   -7.5693    1.0000 </r>
       <r>   -7.4988    1.0000 </r>
       <r>   -7.3521    1.0000 </r>
       <r>   -7.3020    1.0000 </r>
       <r>   -7.2314    1.0000 </r>
       <r>   -7.1303    1.0000 </r>
       <r>   -7.0845    1.0000 </r>
       <r>   -7.0389    1.0000 </r>
       <r>   -6.9896    1.0000 </r>
       <r>   -6.8610    1.0000 </r>
       <r>   -6.7884    1.0000 </r>
       <r>   -6.7072    1.0000 </r>
       <r>   -6.6265    1.0000 </r>
       <r>   -6.5210    1.0000 </r>
       <r>   -6.4833    1.0000 </r>
       <r>   -6.4061    1.0000 </r>
       <r>   -6.3443    1.0000 </r>
       <r>   -6.2873    1.0000 </r>
       <r>   -6.2427    1.0000 </r>
       <r>   -6.1794    1.0000 </r>
       <r>   -6.1073    1.0000 </r>
       <r>   -5.9775    1.0000 </r>
       <r>   -5.8914    1.0000 </r>
       <r>   -5.8572    1.0000 </r>
       <r>   -5.7188    1.0000 </r>
       <r>   -5.6860    1.0000 </r>
       <r>   -5.5859    1.0000 </r>
       <r>   -5.5113    1.0000 </r>
       <r>   -5.4390    1.0000 </r>
       <r>   -5.2687    1.0000 </r>
       <r>   -5.2379    1.0000 </r>
       <r>   -5.2192    1.0000 </r>
       <r>   -5.0679    1.0000 </r>
       <r>   -4.7798    1.0000 </r>
       <r>   -4.6820    1.0000 </r>
       <r>   -4.6004    1.0000 </r>
       <r>   -4.4709    1.0000 </r>
       <r>   -4.3112    1.0000 </r>
       <r>   -4.2465    1.0000 </r>
       <r>   -4.0108    1.0000 </r>
       <r>   -3.8729    1.0000 </r>
       <r>   -3.7206    0.9997 </r>
       <r>   -3.5850    0.9934 </r>
       <r>   -3.4718    0.9535 </r>
       <r>   -3.1635    0.3085 </r>
       <r>   -3.0381    0.0828 </r>
       <r>   -2.8510    0.0034 </r>
       <r>   -2.7850    0.0007 </r>
       <r>   -2.6490    0.0000 </r>
       <r>   -2.5337    0.0000 </r>
       <r>   -2.4818    0.0000 </r>
       <r>   -2.2338    0.0000 </r>
       <r>   -2.1399    0.0000 </r>
       <r>   -2.0263    0.0000 </r>
       <r>   -1.9255    0.0000 </r>
       <r>   -1.6658    0.0000 </r>
       <r>   -1.5840    0.0000 </r>
       <r>   -1.5055    0.0000 </r>
       <r>   -1.3987    0.0000 </r>
       <r>   -1.3059    0.0000 </r>
       <r>   -1.1861    0.0000 </r>
       <r>   -1.1208    0.0000 </r>
       <r>   -1.0374    0.0000 </r>
       <r>   -0.9655    0.0000 </r>
       <r>   -0.9020    0.0000 </r>
       <r>   -0.8292    0.0000 </r>
       <r>   -0.7678    0.0000 </r>
       <r>   -0.6733    0.0000 </r>
       <r>   -0.5991    0.0000 </r>
       <r>   -0.4888    0.0000 </r>
       <r>   -0.3854    0.0000 </r>
       <r>   -0.2133    0.0000 </r>
       <r>   -0.1006    0.0000 </r>
       <r>    0.0703    0.0000 </r>
       <r>    0.2331    0.0000 </r>
       <r>    0.4781    0.0000 </r>
       <r>    0.6552    0.0000 </r>
       <r>    0.7609    0.0000 </r>
       <r>    0.8692    0.0000 </r>
       <r>    1.1105    0.0000 </r>
       <r>    1.2655    0.0000 </r>
       <r>    1.4265    0.0000 </r>
       <r>    2.1032    0.0000 </r>
       <r>    2.2563    0.0000 </r>
       <r>    2.5681    0.0000 </r>
      </set>
      <set comment="kpoint 33">
       <r>  -17.4944    1.0000 </r>
       <r>  -17.2698    1.0000 </r>
       <r>  -16.9202    1.0000 </r>
       <r>  -16.5631    1.0000 </r>
       <r>  -16.5122    1.0000 </r>
       <r>  -16.4046    1.0000 </r>
       <r>  -16.2789    1.0000 </r>
       <r>  -16.1535    1.0000 </r>
       <r>  -16.0722    1.0000 </r>
       <r>  -16.0061    1.0000 </r>
       <r>  -15.9152    1.0000 </r>
       <r>  -15.8760    1.0000 </r>
       <r>  -15.7796    1.0000 </r>
       <r>  -15.7266    1.0000 </r>
       <r>  -15.6585    1.0000 </r>
       <r>  -15.5790    1.0000 </r>
       <r>  -15.5018    1.0000 </r>
       <r>  -15.3691    1.0000 </r>
       <r>   -9.7499    1.0000 </r>
       <r>   -9.4132    1.0000 </r>
       <r>   -9.3135    1.0000 </r>
       <r>   -8.9124    1.0000 </r>
       <r>   -8.8293    1.0000 </r>
       <r>   -8.7383    1.0000 </r>
       <r>   -8.5981    1.0000 </r>
       <r>   -8.5257    1.0000 </r>
       <r>   -8.4087    1.0000 </r>
       <r>   -8.3204    1.0000 </r>
       <r>   -8.2623    1.0000 </r>
       <r>   -8.2181    1.0000 </r>
       <r>   -8.1081    1.0000 </r>
       <r>   -8.0596    1.0000 </r>
       <r>   -8.0141    1.0000 </r>
       <r>   -7.9217    1.0000 </r>
       <r>   -7.7207    1.0000 </r>
       <r>   -7.6211    1.0000 </r>
       <r>   -7.5667    1.0000 </r>
       <r>   -7.4166    1.0000 </r>
       <r>   -7.3061    1.0000 </r>
       <r>   -7.2792    1.0000 </r>
       <r>   -7.1454    1.0000 </r>
       <r>   -7.0315    1.0000 </r>
       <r>   -6.9776    1.0000 </r>
       <r>   -6.9420    1.0000 </r>
       <r>   -6.8453    1.0000 </r>
       <r>   -6.7998    1.0000 </r>
       <r>   -6.6944    1.0000 </r>
       <r>   -6.5913    1.0000 </r>
       <r>   -6.5489    1.0000 </r>
       <r>   -6.4860    1.0000 </r>
       <r>   -6.4235    1.0000 </r>
       <r>   -6.3348    1.0000 </r>
       <r>   -6.2750    1.0000 </r>
       <r>   -6.2332    1.0000 </r>
       <r>   -6.1408    1.0000 </r>
       <r>   -6.0624    1.0000 </r>
       <r>   -5.9918    1.0000 </r>
       <r>   -5.9165    1.0000 </r>
       <r>   -5.8490    1.0000 </r>
       <r>   -5.7963    1.0000 </r>
       <r>   -5.7074    1.0000 </r>
       <r>   -5.6525    1.0000 </r>
       <r>   -5.5842    1.0000 </r>
       <r>   -5.4347    1.0000 </r>
       <r>   -5.3424    1.0000 </r>
       <r>   -5.1786    1.0000 </r>
       <r>   -5.1371    1.0000 </r>
       <r>   -4.9234    1.0000 </r>
       <r>   -4.8318    1.0000 </r>
       <r>   -4.7468    1.0000 </r>
       <r>   -4.6197    1.0000 </r>
       <r>   -4.4276    1.0000 </r>
       <r>   -4.2885    1.0000 </r>
       <r>   -4.2335    1.0000 </r>
       <r>   -3.9510    1.0000 </r>
       <r>   -3.8293    1.0000 </r>
       <r>   -3.7454    0.9998 </r>
       <r>   -3.5812    0.9929 </r>
       <r>   -3.4658    0.9493 </r>
       <r>   -3.2439    0.5273 </r>
       <r>   -3.0422    0.0873 </r>
       <r>   -2.8674    0.0047 </r>
       <r>   -2.8100    0.0014 </r>
       <r>   -2.6523    0.0000 </r>
       <r>   -2.5625    0.0000 </r>
       <r>   -2.5141    0.0000 </r>
       <r>   -2.2315    0.0000 </r>
       <r>   -2.1203    0.0000 </r>
       <r>   -2.0654    0.0000 </r>
       <r>   -1.9647    0.0000 </r>
       <r>   -1.6387    0.0000 </r>
       <r>   -1.5889    0.0000 </r>
       <r>   -1.5232    0.0000 </r>
       <r>   -1.3502    0.0000 </r>
       <r>   -1.3071    0.0000 </r>
       <r>   -1.1335    0.0000 </r>
       <r>   -1.0760    0.0000 </r>
       <r>   -1.0412    0.0000 </r>
       <r>   -0.9717    0.0000 </r>
       <r>   -0.9036    0.0000 </r>
       <r>   -0.8042    0.0000 </r>
       <r>   -0.7586    0.0000 </r>
       <r>   -0.7074    0.0000 </r>
       <r>   -0.5865    0.0000 </r>
       <r>   -0.5269    0.0000 </r>
       <r>   -0.3451    0.0000 </r>
       <r>   -0.2190    0.0000 </r>
       <r>   -0.1091    0.0000 </r>
       <r>    0.0904    0.0000 </r>
       <r>    0.1913    0.0000 </r>
       <r>    0.3460    0.0000 </r>
       <r>    0.6450    0.0000 </r>
       <r>    0.7086    0.0000 </r>
       <r>    0.8704    0.0000 </r>
       <r>    1.1344    0.0000 </r>
       <r>    1.3502    0.0000 </r>
       <r>    1.5655    0.0000 </r>
       <r>    2.1400    0.0000 </r>
       <r>    2.2862    0.0000 </r>
       <r>    2.4049    0.0000 </r>
      </set>
      <set comment="kpoint 34">
       <r>  -17.4656    1.0000 </r>
       <r>  -17.3371    1.0000 </r>
       <r>  -16.7528    1.0000 </r>
       <r>  -16.6765    1.0000 </r>
       <r>  -16.5515    1.0000 </r>
       <r>  -16.4430    1.0000 </r>
       <r>  -16.2674    1.0000 </r>
       <r>  -16.1512    1.0000 </r>
       <r>  -16.0730    1.0000 </r>
       <r>  -15.9661    1.0000 </r>
       <r>  -15.9110    1.0000 </r>
       <r>  -15.8540    1.0000 </r>
       <r>  -15.7758    1.0000 </r>
       <r>  -15.7272    1.0000 </r>
       <r>  -15.6292    1.0000 </r>
       <r>  -15.6082    1.0000 </r>
       <r>  -15.5127    1.0000 </r>
       <r>  -15.3780    1.0000 </r>
       <r>   -9.7846    1.0000 </r>
       <r>   -9.2873    1.0000 </r>
       <r>   -9.2175    1.0000 </r>
       <r>   -9.0200    1.0000 </r>
       <r>   -8.9542    1.0000 </r>
       <r>   -8.8015    1.0000 </r>
       <r>   -8.6060    1.0000 </r>
       <r>   -8.5751    1.0000 </r>
       <r>   -8.4120    1.0000 </r>
       <r>   -8.3183    1.0000 </r>
       <r>   -8.2247    1.0000 </r>
       <r>   -8.1760    1.0000 </r>
       <r>   -8.0890    1.0000 </r>
       <r>   -8.0209    1.0000 </r>
       <r>   -7.9570    1.0000 </r>
       <r>   -7.9127    1.0000 </r>
       <r>   -7.6841    1.0000 </r>
       <r>   -7.6537    1.0000 </r>
       <r>   -7.5804    1.0000 </r>
       <r>   -7.4118    1.0000 </r>
       <r>   -7.3358    1.0000 </r>
       <r>   -7.2743    1.0000 </r>
       <r>   -7.2437    1.0000 </r>
       <r>   -7.0251    1.0000 </r>
       <r>   -6.9798    1.0000 </r>
       <r>   -6.9009    1.0000 </r>
       <r>   -6.8231    1.0000 </r>
       <r>   -6.6504    1.0000 </r>
       <r>   -6.6235    1.0000 </r>
       <r>   -6.5858    1.0000 </r>
       <r>   -6.5483    1.0000 </r>
       <r>   -6.5023    1.0000 </r>
       <r>   -6.4347    1.0000 </r>
       <r>   -6.3910    1.0000 </r>
       <r>   -6.3323    1.0000 </r>
       <r>   -6.2305    1.0000 </r>
       <r>   -6.1920    1.0000 </r>
       <r>   -6.0717    1.0000 </r>
       <r>   -6.0465    1.0000 </r>
       <r>   -5.8560    1.0000 </r>
       <r>   -5.8489    1.0000 </r>
       <r>   -5.7644    1.0000 </r>
       <r>   -5.7357    1.0000 </r>
       <r>   -5.6774    1.0000 </r>
       <r>   -5.5800    1.0000 </r>
       <r>   -5.5212    1.0000 </r>
       <r>   -5.4512    1.0000 </r>
       <r>   -5.0673    1.0000 </r>
       <r>   -5.0231    1.0000 </r>
       <r>   -4.9363    1.0000 </r>
       <r>   -4.8255    1.0000 </r>
       <r>   -4.7887    1.0000 </r>
       <r>   -4.5703    1.0000 </r>
       <r>   -4.3652    1.0000 </r>
       <r>   -4.3442    1.0000 </r>
       <r>   -4.1929    1.0000 </r>
       <r>   -3.9462    1.0000 </r>
       <r>   -3.8722    1.0000 </r>
       <r>   -3.7177    0.9997 </r>
       <r>   -3.6032    0.9955 </r>
       <r>   -3.4528    0.9389 </r>
       <r>   -3.2681    0.5946 </r>
       <r>   -3.0644    0.1149 </r>
       <r>   -2.8679    0.0048 </r>
       <r>   -2.8119    0.0014 </r>
       <r>   -2.6556    0.0000 </r>
       <r>   -2.5925    0.0000 </r>
       <r>   -2.5132    0.0000 </r>
       <r>   -2.2415    0.0000 </r>
       <r>   -2.1011    0.0000 </r>
       <r>   -2.0735    0.0000 </r>
       <r>   -1.9787    0.0000 </r>
       <r>   -1.6252    0.0000 </r>
       <r>   -1.5919    0.0000 </r>
       <r>   -1.5233    0.0000 </r>
       <r>   -1.3206    0.0000 </r>
       <r>   -1.3077    0.0000 </r>
       <r>   -1.1061    0.0000 </r>
       <r>   -1.0891    0.0000 </r>
       <r>   -1.0571    0.0000 </r>
       <r>   -0.9602    0.0000 </r>
       <r>   -0.8887    0.0000 </r>
       <r>   -0.8238    0.0000 </r>
       <r>   -0.7385    0.0000 </r>
       <r>   -0.7050    0.0000 </r>
       <r>   -0.5769    0.0000 </r>
       <r>   -0.5587    0.0000 </r>
       <r>   -0.3664    0.0000 </r>
       <r>   -0.2297    0.0000 </r>
       <r>   -0.0792    0.0000 </r>
       <r>    0.0956    0.0000 </r>
       <r>    0.1774    0.0000 </r>
       <r>    0.2951    0.0000 </r>
       <r>    0.6287    0.0000 </r>
       <r>    0.6935    0.0000 </r>
       <r>    0.8927    0.0000 </r>
       <r>    1.1404    0.0000 </r>
       <r>    1.3959    0.0000 </r>
       <r>    1.6235    0.0000 </r>
       <r>    2.2327    0.0000 </r>
       <r>    2.2484    0.0000 </r>
       <r>    2.3730    0.0000 </r>
      </set>
     </set>
    </set>
   </array>
  </eigenvalues>
  <separator name="orbital magnetization" >
   <v name="MAGDIPOLOUT">      0.00000000      0.00000000      0.00000000</v>
  </separator>
 </calculation>
 <structure name="finalpos" >
  <crystal>
   <varray name="basis" >
    <v>       8.31151518       4.79131667       0.00000000 </v>
    <v>      -8.35063770       4.85897559       0.00000000 </v>
    <v>       0.00000000       0.00000000      30.00000000 </v>
   </varray>
   <i name="volume">   2411.87996921 </i>
   <varray name="rec_basis" >
    <v>       0.06043803       0.10386882       0.00000000 </v>
    <v>      -0.05959646       0.10338220       0.00000000 </v>
    <v>       0.00000000       0.00000000       0.03333333 </v>
   </varray>
  </crystal>
  <varray name="positions" >
   <v>       0.32167841      -0.00897299      -0.00024256 </v>
   <v>       0.65753759       0.02495240      -0.00139099 </v>
   <v>       1.01800287       0.33863557       0.00068646 </v>
   <v>       0.66514525       0.35453655       0.00126599 </v>
   <v>       0.32996059       0.63949228      -0.00009573 </v>
   <v>       0.34355353       0.34719109       0.00087001 </v>
   <v>       0.03053524       0.03562979      -0.00004555 </v>
   <v>      -0.01323667       0.63740531      -0.00049656 </v>
   <v>       0.64345248       0.63323879      -0.00098756 </v>
   <v>       0.11682960       0.23455320       0.94621604 </v>
   <v>       0.23154379       0.11120673       0.05315646 </v>
   <v>       0.10845154       0.54707596       0.94692835 </v>
   <v>       0.21740553       0.43763851       0.05496039 </v>
   <v>       0.11136416       0.88844267       0.95021454 </v>
   <v>       0.22156851       0.77297416       0.04816170 </v>
   <v>       0.44410104       0.21768296       0.95058491 </v>
   <v>       0.54851158       0.10887495       0.05045934 </v>
   <v>       0.44468210       0.55234464       0.94311976 </v>
   <v>       0.55349751       0.44557114       0.05777468 </v>
   <v>       0.44125381       0.88816135       0.95187947 </v>
   <v>       0.55965493       0.78165562       0.04754587 </v>
   <v>       0.78201120       0.22955484       0.95155629 </v>
   <v>       0.88854993       0.11565258       0.04870130 </v>
   <v>       0.77669232       0.55771677       0.94444343 </v>
   <v>       0.88997201       0.43455424       0.05240817 </v>
   <v>       0.77491536       0.89048471       0.95769753 </v>
   <v>       0.89058024       0.78196064       0.04462815 </v>
  </varray>
 </structure>
</modeling>
