unknown system                          
           1
     8.854478    5.104206    0.000000
    -8.855831    5.106534    0.000000
     0.000000    0.000000   30.000000
   V    Mo   W    S 
   3   3   3  18
Direct configuration=     1
   0.33333334  0.00000000  0.00000000
   0.66666669  0.00000000  0.00000000
   1.00000000  0.33333334  0.00000000
   0.66666669  0.33333334  0.00000000
   0.33333334  0.66666669  0.00000000
   0.33333334  0.33333334  0.00000000
   0.00000000  0.00000000  0.00000000
   0.00000000  0.66666669  0.00000000
   0.66666669  0.66666669  0.00000000
   0.11068511  0.22244981  0.95539999
   0.22244981  0.11068511  0.04460000
   0.11068511  0.55578315  0.95539999
   0.22244981  0.44401845  0.04460000
   0.11068511  0.88911647  0.95539999
   0.22244981  0.77735180  0.04460000
   0.44401845  0.22244981  0.95539999
   0.55578315  0.11068511  0.04460000
   0.44401845  0.55578315  0.95539999
   0.55578315  0.44401845  0.04460000
   0.44401845  0.88911647  0.95539999
   0.55578315  0.77735180  0.04460000
   0.77735180  0.22244981  0.95539999
   0.88911647  0.11068511  0.04460000
   0.77735180  0.55578315  0.95539999
   0.88911647  0.44401845  0.04460000
   0.77735180  0.88911647  0.95539999
   0.88911647  0.77735180  0.04460000
unknown system                          
           1
     8.666426    4.998121    0.000000
    -8.667648    5.000224    0.000000
     0.000000    0.000000   30.000000
   V    Mo   W    S 
   3   3   3  18
Direct configuration=     2
   0.33482402  0.00107130 -0.00016641
   0.66549796  0.00049149 -0.00005464
   1.00071341  0.33408211  0.00013417
   0.66535878  0.33304485 -0.00011775
   0.33338267  0.66538036  0.00003131
   0.33467835  0.33470086  0.00019452
   0.00142513  0.00184576  0.00007138
   0.00031173  0.66505373 -0.00013995
   0.66342766  0.66372504  0.00003019
   0.10811527  0.22355360  0.95203004
   0.22356546  0.10821309  0.04798051
   0.10834512  0.55150656  0.95190854
   0.21756429  0.44205639  0.04808467
   0.11480650  0.89058888  0.95186141
   0.22341546  0.78173246  0.04800835
   0.44213650  0.21749712  0.95194168
   0.55349933  0.10660215  0.04690861
   0.44542934  0.55610267  0.95068801
   0.55590025  0.44534067  0.04934320
   0.44628274  0.89331643  0.95309842
   0.55817460  0.78173764  0.04806826
   0.77980072  0.21995530  0.95309684
   0.88715613  0.11285232  0.04698838
   0.77831045  0.55649156  0.95071983
   0.89173572  0.44279321  0.04803651
   0.77573995  0.89072728  0.95204690
   0.88861691  0.77775161  0.04920691
unknown system                          
           1
     8.484534    4.898465    0.000000
    -8.485434    4.900011    0.000000
     0.000000    0.000000   30.000000
   V    Mo   W    S 
   3   3   3  18
Direct configuration=     3
   0.33509747  0.00133755 -0.00019414
   0.66521958  0.00057772 -0.00011123
   1.00097695  0.33435866  0.00014932
   0.66500173  0.33354908 -0.00016896
   0.33345417  0.66478710  0.00008020
   0.33548079  0.33552083  0.00021211
   0.00189474  0.00222269  0.00007101
   0.00026899  0.66468701 -0.00009938
   0.66228291  0.66247609  0.00003645
   0.10796009  0.22335547  0.95205513
   0.22338271  0.10806483  0.04798012
   0.10813983  0.55148251  0.95187535
   0.21741023  0.44195266  0.04815539
   0.11469354  0.89055651  0.95191945
   0.22325330  0.78172785  0.04792522
   0.44203084  0.21734575  0.95189348
   0.55344165  0.10653195  0.04690563
   0.44564608  0.55620207  0.95055284
   0.55600107  0.44555035  0.04950255
   0.44634906  0.89339462  0.95312805
   0.55837150  0.78173733  0.04804754
   0.77981965  0.21991042  0.95319020
   0.88727084  0.11278980  0.04691842
   0.77842687  0.55678321  0.95070066
   0.89188289  0.44295251  0.04803144
   0.77584712  0.89063988  0.95218250
   0.88860984  0.77771999  0.04906057
unknown system                          
           1
     8.275670    4.778304    0.000000
    -8.280544    4.786734    0.000000
     0.000000    0.000000   30.000000
   V    Mo   W    S 
   3   3   3  18
Direct configuration=     4
   0.33542167  0.00207898 -0.00022116
   0.66446581  0.00071789 -0.00029725
   1.00214320  0.33563059  0.00014096
   0.66391713  0.33646630 -0.00028951
   0.33361953  0.66216570  0.00022985
   0.33891728  0.33904343  0.00019427
   0.00360414  0.00322034  0.00002833
  -0.00022623  0.66347482  0.00009594
   0.65813546  0.65744537  0.00004212
   0.10762542  0.22398948  0.95071003
   0.22409959  0.10775550  0.04944885
   0.10751649  0.55016975  0.95027413
   0.21604608  0.44107542  0.04988153
   0.11575259  0.89105384  0.95063616
   0.22391134  0.78283672  0.04903992
   0.44119374  0.21614814  0.95026631
   0.55294883  0.10570559  0.04819297
   0.44548457  0.55606536  0.94837190
   0.55593278  0.44539191  0.05181214
   0.44685220  0.89418739  0.95193469
   0.55909954  0.78290713  0.04942780
   0.78034125  0.21950520  0.95226349
   0.88682920  0.11340607  0.04802230
   0.77851076  0.55721576  0.94897012
   0.89220640  0.44217291  0.04946698
   0.77544601  0.89084261  0.95128553
   0.88841969  0.77754228  0.05007150
unknown system                          
           1
     8.271281    4.777033    0.000000
    -8.281073    4.793983    0.000000
     0.000000    0.000000   30.000000
   V    Mo   W    S 
   3   3   3  18
Direct configuration=     5
   0.33511563  0.00307694 -0.00008962
   0.66333265  0.00107487 -0.00051126
   1.00417322  0.33790389 -0.00000227
   0.66177931  0.34249456 -0.00034889
   0.33415752  0.65728019  0.00040016
   0.34581107  0.34575045  0.00009369
   0.00757937  0.00585199 -0.00005066
  -0.00117771  0.66118776  0.00038442
   0.65013247  0.64751017  0.00003957
   0.10834776  0.22526706  0.94905056
   0.22570355  0.10848259  0.05131328
   0.10729668  0.54880646  0.94821777
   0.21513425  0.43997466  0.05239909
   0.11736833  0.89129790  0.94892194
   0.22514090  0.78363675  0.05030883
   0.44064079  0.21568969  0.94802611
   0.55267701  0.10571859  0.04981658
   0.44479282  0.55555965  0.94522342
   0.55530441  0.44464031  0.05531509
   0.44684380  0.89413337  0.95029380
   0.55948336  0.78351449  0.05117078
   0.78045130  0.21981060  0.95105934
   0.88628907  0.11420273  0.04954534
   0.77833587  0.55764888  0.94655314
   0.89165853  0.44068812  0.05134893
   0.77459061  0.89006936  0.95046138
   0.88725189  0.77694243  0.05105939
unknown system                          
           1
     8.267393    4.773338    0.000000
    -8.277892    4.791508    0.000000
     0.000000    0.000000   30.000000
   V    Mo   W    S 
   3   3   3  18
Direct configuration=     6
   0.33473525  0.00328898 -0.00009870
   0.66297388  0.00142580 -0.00055907
   1.00475689  0.33845838  0.00005857
   0.66158421  0.34358677 -0.00025875
   0.33404353  0.65618264  0.00036352
   0.34604870  0.34579257  0.00014941
   0.00952537  0.00774856 -0.00006036
  -0.00163569  0.66007514  0.00037382
   0.64909458  0.64620512 -0.00002900
   0.10935335  0.22578156  0.94898328
   0.22636134  0.10941789  0.05142166
   0.10752533  0.54891326  0.94811786
   0.21569340  0.43977455  0.05259368
   0.11752965  0.89097399  0.94891393
   0.22539584  0.78291536  0.05021118
   0.44108817  0.21667595  0.94791146
   0.55288126  0.10647327  0.04980630
   0.44454605  0.55543963  0.94477507
   0.55489394  0.44429200  0.05587623
   0.44628350  0.89342089  0.95032920
   0.55932865  0.78257449  0.05116889
   0.77996932  0.22074166  0.95114019
   0.88650861  0.11433569  0.04951514
   0.77814690  0.55802056  0.94633186
   0.89100699  0.44034680  0.05139105
   0.77433564  0.88877824  0.95086100
   0.88623979  0.77657468  0.05071247
unknown system                          
           1
     8.270590    4.775039    0.000000
    -8.281679    4.794230    0.000000
     0.000000    0.000000   30.000000
   V    Mo   W    S 
   3   3   3  18
Direct configuration=     7
   0.33454874  0.00374926 -0.00013900
   0.66238344  0.00178619 -0.00063055
   1.00545087  0.33899835  0.00011919
   0.66139041  0.34496533 -0.00019957
   0.33406459  0.65494257  0.00033851
   0.34646439  0.34607221  0.00015174
   0.01190632  0.01023315 -0.00008701
  -0.00223205  0.65865833  0.00038863
   0.64720809  0.64398702 -0.00003174
   0.10995267  0.22617725  0.94884241
   0.22690495  0.10993716  0.05162637
   0.10756869  0.54880760  0.94799879
   0.21596750  0.43961951  0.05277822
   0.11766870  0.89074716  0.94895616
   0.22551159  0.78238809  0.05006915
   0.44142242  0.21727377  0.94783134
   0.55295984  0.10692746  0.04979803
   0.44431405  0.55514746  0.94447671
   0.55460750  0.44421201  0.05624555
   0.44582729  0.89290188  0.95040006
   0.55919997  0.78195073  0.05113465
   0.77966461  0.22139551  0.95126848
   0.88673263  0.11451259  0.04946939
   0.77808089  0.55827297  0.94615639
   0.89061591  0.44007742  0.05146293
   0.77434539  0.88794593  0.95127703
   0.88568506  0.77652754  0.05029805
unknown system                          
           1
     8.262105    4.773398    0.000000
    -8.271641    4.789910    0.000000
     0.000000    0.000000   30.000000
   V    Mo   W    S 
   3   3   3  18
Direct configuration=     8
   0.33456236  0.00391804 -0.00014555
   0.66219704  0.00188178 -0.00065276
   1.00560016  0.33907060  0.00013769
   0.66140920  0.34516220 -0.00018490
   0.33405102  0.65471966  0.00033698
   0.34633366  0.34591136  0.00016250
   0.01253272  0.01098168 -0.00009146
  -0.00238130  0.65824329  0.00039088
   0.64689919  0.64366607 -0.00004557
   0.11003891  0.22627713  0.94880349
   0.22700831  0.10998906  0.05166748
   0.10756054  0.54878110  0.94799568
   0.21601110  0.43959552  0.05278460
   0.11766293  0.89071208  0.94900431
   0.22550503  0.78227304  0.05000152
   0.44150110  0.21737566  0.94784166
   0.55296559  0.10698821  0.04977583
   0.44426427  0.55507091  0.94444913
   0.55452703  0.44417363  0.05628406
   0.44572397  0.89280001  0.95044243
   0.55917478  0.78182643  0.05109768
   0.77961939  0.22151838  0.95132610
   0.88679814  0.11454272  0.04943406
   0.77807316  0.55833655  0.94615421
   0.89054793  0.44001160  0.05146152
   0.77440469  0.88781130  0.95141080
   0.88562353  0.77657643  0.05015752
unknown system                          
           1
     8.256762    4.767994    0.000000
    -8.268619    4.788514    0.000000
     0.000000    0.000000   30.000000
   V    Mo   W    S 
   3   3   3  18
Direct configuration=     9
   0.33414837  0.00317085 -0.00012416
   0.66295486  0.00183567 -0.00059837
   1.00558160  0.33942173  0.00009783
   0.66134575  0.34465407 -0.00021634
   0.33356277  0.65473822  0.00033745
   0.34656063  0.34651627  0.00015076
   0.01105981  0.00898101 -0.00007765
  -0.00170590  0.65944543  0.00039990
   0.64770150  0.64457068 -0.00005933
   0.10996130  0.22615133  0.94894140
   0.22698225  0.11006173  0.05157975
   0.10753635  0.54866078  0.94795803
   0.21579380  0.43948771  0.05282045
   0.11789265  0.89077570  0.94878034
   0.22568376  0.78249080  0.05022036
   0.44130642  0.21719819  0.94775705
   0.55288183  0.10698385  0.04985125
   0.44436449  0.55530151  0.94433280
   0.55462785  0.44413877  0.05643223
   0.44587169  0.89300287  0.95031612
   0.55915322  0.78195291  0.05127833
   0.77981415  0.22152320  0.95118285
   0.88673864  0.11470898  0.04952704
   0.77806640  0.55827233  0.94603769
   0.89071838  0.44007244  0.05146868
   0.77409082  0.88785407  0.95101169
   0.88552107  0.77624333  0.05059374
unknown system                          
           1
     8.265085    4.772014    0.000000
    -8.277705    4.793855    0.000000
     0.000000    0.000000   30.000000
   V    Mo   W    S 
   3   3   3  18
Direct configuration=    10
   0.33381145  0.00317451 -0.00017427
   0.66291605  0.00224766 -0.00063135
   1.00615052  0.34000984  0.00014900
   0.66119744  0.34549772 -0.00018300
   0.33333199  0.65381819  0.00028741
   0.34697408  0.34692580  0.00017374
   0.01206834  0.00981882 -0.00005343
  -0.00177795  0.65898703  0.00038911
   0.64660813  0.64330984 -0.00001625
   0.11022149  0.22630260  0.94891437
   0.22718821  0.11030542  0.05163586
   0.10751771  0.54857255  0.94785692
   0.21581482  0.43931458  0.05295210
   0.11791957  0.89061905  0.94877754
   0.22573506  0.78213131  0.05017877
   0.44147047  0.21755210  0.94778792
   0.55289952  0.10719948  0.04980017
   0.44427082  0.55519281  0.94423429
   0.55446983  0.44419049  0.05648585
   0.44566841  0.89267977  0.95042065
   0.55894063  0.78150151  0.05118336
   0.77976574  0.22195375  0.95128336
   0.88695218  0.11483419  0.04944619
   0.77810214  0.55843794  0.94603736
   0.89057784  0.43999653  0.05147866
   0.77418617  0.88744087  0.95123970
   0.88523378  0.77620007  0.05034586
unknown system                          
           1
     8.260908    4.770382    0.000000
    -8.272310    4.790116    0.000000
     0.000000    0.000000   30.000000
   V    Mo   W    S 
   3   3   3  18
Direct configuration=    11
   0.33411743  0.00373633 -0.00017173
   0.66232676  0.00226209 -0.00067735
   1.00618748  0.33977587  0.00017110
   0.66126750  0.34578989 -0.00016138
   0.33361909  0.65376039  0.00030604
   0.34666440  0.34640136  0.00018235
   0.01326721  0.01144478 -0.00007733
  -0.00226044  0.65803216  0.00039599
   0.64610787  0.64277559 -0.00004728
   0.11030492  0.22646240  0.94877969
   0.22730176  0.11028111  0.05174535
   0.10752578  0.54860518  0.94786427
   0.21595890  0.43937344  0.05294755
   0.11782932  0.89060023  0.94890789
   0.22565653  0.78201688  0.05003169
   0.44159694  0.21764640  0.94778615
   0.55293821  0.10721194  0.04978514
   0.44417714  0.55501716  0.94422186
   0.55435883  0.44411538  0.05652440
   0.44553413  0.89255976  0.95046547
   0.55899703  0.78144370  0.05111979
   0.77962869  0.22197513  0.95136372
   0.88697797  0.11476664  0.04941684
   0.77807572  0.55850385  0.94603975
   0.89044129  0.43988325  0.05150643
   0.77434818  0.88736239  0.95150082
   0.88526581  0.77641116  0.05007264
unknown system                          
           1
     8.259062    4.770758    0.000000
    -8.269661    4.789103    0.000000
     0.000000    0.000000   30.000000
   V    Mo   W    S 
   3   3   3  18
Direct configuration=    12
   0.33388352  0.00293052 -0.00015985
   0.66314020  0.00203691 -0.00059594
   1.00576894  0.33971408  0.00012250
   0.66122754  0.34516123 -0.00020378
   0.33354354  0.65434838  0.00029281
   0.34706026  0.34703194  0.00016395
   0.01113923  0.00877701 -0.00004836
  -0.00168284  0.65959718  0.00038205
   0.64714669  0.64389151 -0.00000809
   0.11012604  0.22614308  0.94898151
   0.22699877  0.11023790  0.05155367
   0.10755512  0.54867379  0.94789708
   0.21582610  0.43938634  0.05290176
   0.11788130  0.89064674  0.94873397
   0.22570262  0.78225939  0.05025090
   0.44139032  0.21745317  0.94779134
   0.55293942  0.10712462  0.04980390
   0.44436466  0.55531399  0.94431529
   0.55458416  0.44423937  0.05639488
   0.44584722  0.89283789  0.95037649
   0.55901942  0.78170658  0.05121329
   0.77975715  0.22172962  0.95122246
   0.88681631  0.11472958  0.04947792
   0.77811055  0.55835160  0.94606769
   0.89064408  0.44010723  0.05146458
   0.77410195  0.88763891  0.95107749
   0.88532217  0.77614587  0.05053038
unknown system                          
           1
     8.254603    4.769257    0.000000
    -8.265997    4.788981    0.000000
     0.000000    0.000000   30.000000
   V    Mo   W    S 
   3   3   3  18
Direct configuration=    13
   0.33271194  0.00039896 -0.00010653
   0.66498230  0.00196766 -0.00045052
   1.00491325  0.33975837  0.00002413
   0.66101945  0.34439975 -0.00029559
   0.33338224  0.65523312  0.00029145
   0.34838040  0.34890270  0.00009971
   0.00696597  0.00264452 -0.00003959
  -0.00017145  0.66353952  0.00036154
   0.64901889  0.64587937 -0.00003318
   0.11003859  0.22533205  0.94953627
   0.22650919  0.11035610  0.05107046
   0.10764270  0.54897650  0.94794358
   0.21580996  0.43941030  0.05286788
   0.11799616  0.89059699  0.94830916
   0.22584405  0.78246951  0.05063808
   0.44103306  0.21742260  0.94788544
   0.55301197  0.10709944  0.04968670
   0.44477231  0.55592243  0.94440653
   0.55488462  0.44439640  0.05633197
   0.44648369  0.89322172  0.95029866
   0.55895455  0.78193594  0.05129974
   0.77978156  0.22150554  0.95104134
   0.88653995  0.11453413  0.04952719
   0.77816499  0.55828250  0.94614180
   0.89091556  0.44079509  0.05134864
   0.77355257  0.88780880  0.95041481
   0.88507600  0.77542443  0.05140024
unknown system                          
           1
     8.261404    4.772968    0.000000
    -8.274092    4.794932    0.000000
     0.000000    0.000000   30.000000
   V    Mo   W    S 
   3   3   3  18
Direct configuration=    14
   0.33181062 -0.00067920 -0.00009760
   0.66539339  0.00259479 -0.00042126
   1.00494239  0.34017347  0.00003173
   0.66083199  0.34492453 -0.00025190
   0.33317194  0.65471382  0.00026045
   0.34942289  0.35005505  0.00013598
   0.00623144  0.00064224 -0.00002029
   0.00024479  0.66463630  0.00033522
   0.64898875  0.64555329 -0.00000714
   0.11022137  0.22512653  0.94977047
   0.22651556  0.11049452  0.05088045
   0.10760715  0.54914101  0.94800395
   0.21590944  0.43935870  0.05285700
   0.11803279  0.89049987  0.94817552
   0.22588166  0.78223240  0.05064137
   0.44101564  0.21762232  0.94800763
   0.55303987  0.10721964  0.04954143
   0.44472964  0.55601603  0.94433354
   0.55485842  0.44447137  0.05636555
   0.44646301  0.89306776  0.95038131
   0.55886563  0.78169861  0.05118885
   0.77968171  0.22180241  0.95111562
   0.88672980  0.11439100  0.04941301
   0.77828144  0.55848770  0.94616390
   0.89090322  0.44111265  0.05126628
   0.77356662  0.88759964  0.95048359
   0.88487329  0.77525797  0.05144526
unknown system                          
           1
     8.264965    4.774351    0.000000
    -8.278865    4.798409    0.000000
     0.000000    0.000000   30.000000
   V    Mo   W    S 
   3   3   3  18
Direct configuration=    15
   0.33170783 -0.00037358 -0.00011445
   0.66489930  0.00312527 -0.00047216
   1.00531005  0.34038511  0.00006892
   0.66085971  0.34548948 -0.00022145
   0.33312655  0.65404764  0.00024934
   0.34934309  0.34989860  0.00013621
   0.00762842  0.00204122 -0.00004986
  -0.00010187  0.66373490  0.00032716
   0.64818812  0.64461830 -0.00005558
   0.11038745  0.22532793  0.94968626
   0.22678084  0.11055156  0.05100499
   0.10756054  0.54908430  0.94796493
   0.21597037  0.43928866  0.05292114
   0.11804653  0.89044538  0.94822376
   0.22588711  0.78199660  0.05050603
   0.44116727  0.21779582  0.94802761
   0.55302014  0.10731100  0.04952648
   0.44459723  0.55582716  0.94422222
   0.55470930  0.44440060  0.05653307
   0.44620798  0.89282354  0.95045040
   0.55883721  0.78148634  0.05110212
   0.77960266  0.22210576  0.95122238
   0.88691937  0.11440769  0.04934683
   0.77829220  0.55863194  0.94611784
   0.89075392  0.44100271  0.05130928
   0.77373526  0.88736867  0.95079770
   0.88477786  0.77539187  0.05116875
unknown system                          
           1
     8.261496    4.772788    0.000000
    -8.274349    4.795037    0.000000
     0.000000    0.000000   30.000000
   V    Mo   W    S 
   3   3   3  18
Direct configuration=    16
   0.33123682 -0.00056060 -0.00013344
   0.66456295  0.00399636 -0.00051058
   1.00567959  0.34070670  0.00012462
   0.66091278  0.34614231 -0.00017569
   0.33297843  0.65320830  0.00023429
   0.34941625  0.35010121  0.00015597
   0.00901288  0.00296209 -0.00007656
  -0.00025193  0.66333076  0.00032492
   0.64729679  0.64353557 -0.00008661
   0.11054783  0.22543443  0.94969089
   0.22704259  0.11060471  0.05107309
   0.10750138  0.54901358  0.94795060
   0.21601257  0.43917026  0.05297040
   0.11811032  0.89033575  0.94821212
   0.22590074  0.78170473  0.05037927
   0.44128274  0.21798910  0.94809097
   0.55297390  0.10741452  0.04948934
   0.44450501  0.55566372  0.94411122
   0.55456443  0.44438813  0.05667659
   0.44598178  0.89257041  0.95054258
   0.55879530  0.78122996  0.05096159
   0.77957296  0.22249029  0.95132983
   0.88714926  0.11444369  0.04923453
   0.77832548  0.55880385  0.94608245
   0.89068054  0.44103521  0.05130474
   0.77382766  0.88708710  0.95111819
   0.88459539  0.77541230  0.05092455
unknown system                          
           1
     8.261837    4.773246    0.000000
    -8.274537    4.795229    0.000000
     0.000000    0.000000   30.000000
   V    Mo   W    S 
   3   3   3  18
Direct configuration=    17
   0.33163150 -0.00036712 -0.00011101
   0.66490354  0.00322885 -0.00047844
   1.00544278  0.34055429  0.00007217
   0.66085089  0.34573504 -0.00020536
   0.33305202  0.65375044  0.00025015
   0.34951463  0.35012845  0.00013661
   0.00770784  0.00205249 -0.00005440
  -0.00013062  0.66358980  0.00032906
   0.64794099  0.64435058 -0.00005663
   0.11045116  0.22534207  0.94973009
   0.22682066  0.11060555  0.05098878
   0.10753006  0.54907889  0.94797057
   0.21599258  0.43926032  0.05291242
   0.11803571  0.89041019  0.94822469
   0.22586428  0.78189941  0.05047035
   0.44119666  0.21786649  0.94803765
   0.55304297  0.10736102  0.04949438
   0.44459098  0.55580863  0.94419989
   0.55469555  0.44443419  0.05657407
   0.44616496  0.89274743  0.95047673
   0.55881195  0.78140257  0.05107049
   0.77957401  0.22219661  0.95127701
   0.88698537  0.11441410  0.04931199
   0.77832125  0.55869921  0.94610706
   0.89073177  0.44101723  0.05129682
   0.77375821  0.88727885  0.95084909
   0.88473276  0.77536885  0.05112567
unknown system                          
           1
     8.261602    4.773465    0.000000
    -8.275470    4.797472    0.000000
     0.000000    0.000000   30.000000
   V    Mo   W    S 
   3   3   3  18
Direct configuration=    18
   0.33178594 -0.00027368 -0.00010262
   0.66506885  0.00291489 -0.00046741
   1.00538020  0.34055949  0.00004904
   0.66082016  0.34564295 -0.00021632
   0.33305714  0.65389918  0.00025117
   0.34962616  0.35020979  0.00013078
   0.00712521  0.00160594 -0.00004536
  -0.00008657  0.66366118  0.00032768
   0.64817321  0.64466132 -0.00004521
   0.11044192  0.22531883  0.94976278
   0.22674331  0.11064033  0.05094331
   0.10754185  0.54910482  0.94796935
   0.21598659  0.43927233  0.05289634
   0.11799838  0.89042399  0.94822811
   0.22585330  0.78195367  0.05050424
   0.44117021  0.21784796  0.94801586
   0.55308704  0.10736018  0.04948556
   0.44462553  0.55587730  0.94421872
   0.55474283  0.44446406  0.05655434
   0.44623401  0.89279656  0.95045781
   0.55880887  0.78144787  0.05111196
   0.77956204  0.22210439  0.95127208
   0.88692652  0.11440336  0.04933931
   0.77832347  0.55868059  0.94611105
   0.89073971  0.44099573  0.05129989
   0.77371647  0.88731787  0.95073972
   0.88476211  0.77532359  0.05120771
unknown system                          
           1
     8.266917    4.775825    0.000000
    -8.281601    4.801243    0.000000
     0.000000    0.000000   30.000000
   V    Mo   W    S 
   3   3   3  18
Direct configuration=    19
   0.33161070 -0.00022705 -0.00010285
   0.66522515  0.00290252 -0.00047661
   1.00563803  0.34108202  0.00004928
   0.66081205  0.34615397 -0.00020138
   0.33279689  0.65342064  0.00023644
   0.35009185  0.35065440  0.00013449
   0.00689178  0.00108486 -0.00004783
  -0.00006329  0.66350614  0.00033436
   0.64799341  0.64446987 -0.00004867
   0.11057044  0.22528892  0.94989133
   0.22677106  0.11074043  0.05085068
   0.10752941  0.54911010  0.94793415
   0.21603359  0.43915792  0.05292345
   0.11798797  0.89034606  0.94825623
   0.22585478  0.78179573  0.05041499
   0.44124473  0.21804847  0.94807007
   0.55312724  0.10750376  0.04939974
   0.44463643  0.55591382  0.94415165
   0.55472484  0.44455401  0.05664478
   0.44612186  0.89262165  0.95054042
   0.55866994  0.78120868  0.05106559
   0.77950173  0.22234751  0.95138236
   0.88706564  0.11440469  0.04927866
   0.77833940  0.55883571  0.94610569
   0.89066171  0.44099915  0.05130028
   0.77370653  0.88710958  0.95076795
   0.88467058  0.77518088  0.05114465
unknown system                          
           1
     8.267938    4.776225    0.000000
    -8.283585    4.803308    0.000000
     0.000000    0.000000   30.000000
   V    Mo   W    S 
   3   3   3  18
Direct configuration=    20
   0.33129305 -0.00043891 -0.00012678
   0.66479876  0.00373097 -0.00050654
   1.00577532  0.34103292  0.00010680
   0.66087207  0.34638289 -0.00017199
   0.33284903  0.65303547  0.00022194
   0.34981838  0.35046217  0.00015586
   0.00834942  0.00224941 -0.00007229
  -0.00021035  0.66328309  0.00032040
   0.64735280  0.64367135 -0.00008019
   0.11062754  0.22540616  0.94979405
   0.22700281  0.11071025  0.05098549
   0.10750503  0.54903774  0.94791906
   0.21603664  0.43910447  0.05297917
   0.11807210  0.89028506  0.94822219
   0.22589895  0.78165374  0.05036287
   0.44130723  0.21810145  0.94809526
   0.55304984  0.10749516  0.04942908
   0.44453657  0.55574127  0.94408202
   0.55459336  0.44447494  0.05672054
   0.44598532  0.89251120  0.95057506
   0.55871483  0.78113958  0.05096969
   0.77951781  0.22254655  0.95139349
   0.88716487  0.11442968  0.04922216
   0.77834576  0.55888615  0.94607583
   0.89063662  0.44101124  0.05131849
   0.77376897  0.88699585  0.95104084
   0.88455170  0.77527460  0.05096738
unknown system                          
           1
     8.265602    4.774804    0.000000
    -8.280760    4.801040    0.000000
     0.000000    0.000000   30.000000
   V    Mo   W    S 
   3   3   3  18
Direct configuration=    21
   0.33104105 -0.00052269 -0.00014261
   0.66469896  0.00426961 -0.00052825
   1.00601732  0.34135867  0.00014577
   0.66095816  0.34685132 -0.00013861
   0.33268822  0.65245502  0.00020518
   0.34991841  0.35064828  0.00017328
   0.00903578  0.00264223 -0.00009135
  -0.00031836  0.66298797  0.00031268
   0.64683238  0.64305780 -0.00009998
   0.11070701  0.22544167  0.94982001
   0.22713818  0.11074490  0.05101895
   0.10747168  0.54897454  0.94789250
   0.21605355  0.43900624  0.05302044
   0.11810407  0.89018249  0.94821155
   0.22592141  0.78146670  0.05028321
   0.44139789  0.21826120  0.94813784
   0.55304539  0.10757809  0.04939877
   0.44448197  0.55564769  0.94401285
   0.55451641  0.44449644  0.05680328
   0.44585374  0.89234153  0.95064289
   0.55865364  0.78097155  0.05087764
   0.77951268  0.22280251  0.95146659
   0.88730377  0.11445415  0.04914528
   0.77836356  0.55900090  0.94605733
   0.89059394  0.44102874  0.05132771
   0.77379099  0.88682460  0.95121919
   0.88443267  0.77524231  0.05082776
unknown system                          
           1
     8.269161    4.776739    0.000000
    -8.286171    4.806178    0.000000
     0.000000    0.000000   30.000000
   V    Mo   W    S 
   3   3   3  18
Direct configuration=    22
   0.33094406 -0.00059657 -0.00015159
   0.66456335  0.00454934 -0.00053877
   1.00605129  0.34126460  0.00016214
   0.66102873  0.34687040 -0.00013551
   0.33268142  0.65235753  0.00020964
   0.34970215  0.35049782  0.00017762
   0.00960106  0.00320989 -0.00009622
  -0.00040106  0.66287362  0.00031890
   0.64666603  0.64279827 -0.00010573
   0.11068013  0.22547878  0.94977393
   0.22718945  0.11070832  0.05107254
   0.10745667  0.54893935  0.94791549
   0.21603475  0.43901524  0.05301585
   0.11811487  0.89019174  0.94821136
   0.22591606  0.78143350  0.05027050
   0.44140719  0.21824150  0.94814683
   0.55300662  0.10757016  0.04942731
   0.44445435  0.55558761  0.94401125
   0.55447809  0.44444680  0.05679957
   0.44581481  0.89231833  0.95063918
   0.55868819  0.78096908  0.05084937
   0.77955229  0.22284552  0.95145653
   0.88734628  0.11448330  0.04913201
   0.77835034  0.55898320  0.94606045
   0.89061349  0.44103464  0.05130955
   0.77384386  0.88681741  0.95131073
   0.88442997  0.77532507  0.05075696
unknown system                          
           1
     8.278151    4.781733    0.000000
    -8.297378    4.815008    0.000000
     0.000000    0.000000   30.000000
   V    Mo   W    S 
   3   3   3  18
Direct configuration=    23
   0.33064019 -0.00070084 -0.00016307
   0.66450216  0.00505535 -0.00055469
   1.00631959  0.34175235  0.00020038
   0.66112486  0.34738214 -0.00010424
   0.33250302  0.65176349  0.00018862
   0.34989590  0.35079165  0.00019401
   0.01013848  0.00326993 -0.00011378
  -0.00041200  0.66269851  0.00030567
   0.64616335  0.64228585 -0.00012835
   0.11078115  0.22547383  0.94984026
   0.22731851  0.11072897  0.05106939
   0.10743276  0.54887035  0.94786744
   0.21608728  0.43890577  0.05307020
   0.11817548  0.89006481  0.94820002
   0.22595667  0.78123513  0.05016910
   0.44151871  0.21845390  0.94820939
   0.55299673  0.10768392  0.04937528
   0.44439626  0.55548908  0.94393593
   0.55441297  0.44451706  0.05689164
   0.44565058  0.89211740  0.95072695
   0.55856616  0.78072340  0.05075057
   0.77953272  0.22315799  0.95154074
   0.88750511  0.11449282  0.04904522
   0.77835132  0.55911714  0.94604828
   0.89055773  0.44108651  0.05133860
   0.77382211  0.88659018  0.95146972
   0.88427664  0.77520775  0.05062661
unknown system                          
           1
     8.275205    4.779791    0.000000
    -8.293136    4.810822    0.000000
     0.000000    0.000000   30.000000
   V    Mo   W    S 
   3   3   3  18
Direct configuration=    24
   0.32991912 -0.00106503 -0.00021342
   0.66410673  0.00681187 -0.00060727
   1.00683331  0.34241855  0.00031765
   0.66153832  0.34826014 -0.00002790
   0.33211612  0.65044949  0.00014234
   0.34959020  0.35079123  0.00024551
   0.01248514  0.00477179 -0.00016759
  -0.00065796  0.66206190  0.00027516
   0.64498723  0.64087709 -0.00019383
   0.11083852  0.22555413  0.94980810
   0.22769904  0.11067625  0.05124222
   0.10735223  0.54865292  0.94779670
   0.21607177  0.43870443  0.05320729
   0.11828623  0.88982775  0.94813925
   0.22604969  0.78082934  0.04999968
   0.44173743  0.21874946  0.94833188
   0.55288830  0.10783883  0.04938259
   0.44418648  0.55515388  0.94376094
   0.55418034  0.44446760  0.05706452
   0.44531451  0.89172315  0.95085858