   27   27  100    1
  0.9710400E+02  0.1002848E-08  0.1002848E-08  0.3000000E-08  0.5000000E-15
  1.000000000000000E-004
  CAR 
 unknown system                          
    159     34    120
 
  0.0000000E+00  0.0000000E+00  0.0000000E+00  0.1562500E-01
    1      -17.797173   1.000000
    2      -16.730270   1.000000
    3      -16.623699   1.000000
    4      -16.577817   1.000000
    5      -16.472569   1.000000
    6      -16.437530   1.000000
    7      -16.376380   1.000000
    8      -16.321553   1.000000
    9      -16.175448   1.000000
   10      -16.070407   1.000000
   11      -16.062082   1.000000
   12      -16.033587   1.000000
   13      -15.834105   1.000000
   14      -15.708343   1.000000
   15      -15.598615   1.000000
   16      -15.542427   1.000000
   17      -15.406691   1.000000
   18      -15.377723   1.000000
   19       -9.209605   1.000000
   20       -9.005134   1.000000
   21       -8.844465   1.000000
   22       -8.818547   1.000000
   23       -8.758992   1.000000
   24       -8.684098   1.000000
   25       -8.652280   1.000000
   26       -8.590782   1.000000
   27       -8.525448   1.000000
   28       -8.412160   1.000000
   29       -8.361406   1.000000
   30       -8.320291   1.000000
   31       -8.264013   1.000000
   32       -8.224879   1.000000
   33       -8.138027   1.000000
   34       -8.001843   1.000000
   35       -7.891577   1.000000
   36       -7.838663   1.000000
   37       -7.697569   1.000000
   38       -7.531822   1.000000
   39       -7.486584   1.000000
   40       -7.367085   1.000000
   41       -7.314884   1.000000
   42       -7.219168   1.000000
   43       -7.195063   1.000000
   44       -6.983667   1.000000
   45       -6.869501   1.000000
   46       -6.822053   1.000000
   47       -6.724188   1.000000
   48       -6.657823   1.000000
   49       -6.637666   1.000000
   50       -6.543936   1.000000
   51       -6.420432   1.000000
   52       -6.399005   1.000000
   53       -6.324150   1.000000
   54       -6.224300   1.000000
   55       -6.131822   1.000000
   56       -6.040356   1.000000
   57       -5.923311   1.000000
   58       -5.823235   1.000000
   59       -5.731105   1.000000
   60       -5.634023   1.000000
   61       -5.516264   1.000000
   62       -5.487386   1.000000
   63       -5.329247   1.000000
   64       -5.112857   1.000000
   65       -5.097230   1.000000
   66       -4.966167   1.000000
   67       -4.936739   1.000000
   68       -4.875880   1.000000
   69       -4.739676   1.000000
   70       -4.696041   1.000000
   71       -4.608908   1.000000
   72       -4.582158   1.000000
   73       -4.460619   1.000000
   74       -4.320238   1.000000
   75       -4.261651   1.000000
   76       -3.958193   0.999998
   77       -3.832928   0.999922
   78       -3.637502   0.991801
   79       -3.573389   0.974208
   80       -3.404708   0.774522
   81       -3.244230   0.351628
   82       -2.640790   0.000002
   83       -2.603354   0.000000
   84       -2.579673   0.000000
   85       -2.513814   0.000000
   86       -2.455711   0.000000
   87       -2.304582   0.000000
   88       -2.224693   0.000000
   89       -2.135557   0.000000
   90       -1.909262   0.000000
   91       -1.889017   0.000000
   92       -1.720323   0.000000
   93       -1.493835   0.000000
   94       -1.308883   0.000000
   95       -1.210117   0.000000
   96       -1.061111   0.000000
   97       -0.971165   0.000000
   98       -0.885457   0.000000
   99       -0.732206   0.000000
  100       -0.700687   0.000000
  101       -0.602908   0.000000
  102       -0.578030   0.000000
  103       -0.463769   0.000000
  104       -0.430075   0.000000
  105       -0.359667   0.000000
  106       -0.077579   0.000000
  107        0.007702   0.000000
  108        0.028513   0.000000
  109        0.107562   0.000000
  110        0.284600   0.000000
  111        0.293777   0.000000
  112        0.408491   0.000000
  113        0.486414   0.000000
  114        0.805856   0.000000
  115        1.101608   0.000000
  116        1.138978   0.000000
  117        1.301300   0.000000
  118        1.640335   0.000000
  119        1.831606   0.000000
  120        2.147200   0.000000
 
  0.1250000E+00  0.2775558E-16  0.0000000E+00  0.3125000E-01
    1      -17.772219   1.000000
    2      -16.756322   1.000000
    3      -16.702034   1.000000
    4      -16.622948   1.000000
    5      -16.543574   1.000000
    6      -16.391452   1.000000
    7      -16.334828   1.000000
    8      -16.249658   1.000000
    9      -16.161986   1.000000
   10      -16.100058   1.000000
   11      -16.025919   1.000000
   12      -16.001730   1.000000
   13      -15.807049   1.000000
   14      -15.720087   1.000000
   15      -15.601923   1.000000
   16      -15.534951   1.000000
   17      -15.418414   1.000000
   18      -15.389567   1.000000
   19       -9.191992   1.000000
   20       -9.117925   1.000000
   21       -9.006779   1.000000
   22       -8.942657   1.000000
   23       -8.785693   1.000000
   24       -8.707671   1.000000
   25       -8.614151   1.000000
   26       -8.562231   1.000000
   27       -8.500133   1.000000
   28       -8.464943   1.000000
   29       -8.339213   1.000000
   30       -8.259016   1.000000
   31       -8.218495   1.000000
   32       -8.082161   1.000000
   33       -8.061836   1.000000
   34       -7.953430   1.000000
   35       -7.826857   1.000000
   36       -7.746539   1.000000
   37       -7.642762   1.000000
   38       -7.593223   1.000000
   39       -7.510936   1.000000
   40       -7.398530   1.000000
   41       -7.283950   1.000000
   42       -7.209818   1.000000
   43       -7.144432   1.000000
   44       -7.038701   1.000000
   45       -6.915506   1.000000
   46       -6.859233   1.000000
   47       -6.731270   1.000000
   48       -6.645646   1.000000
   49       -6.620025   1.000000
   50       -6.546325   1.000000
   51       -6.409311   1.000000
   52       -6.381482   1.000000
   53       -6.302126   1.000000
   54       -6.244362   1.000000
   55       -6.130154   1.000000
   56       -6.052318   1.000000
   57       -5.932718   1.000000
   58       -5.814715   1.000000
   59       -5.709614   1.000000
   60       -5.599015   1.000000
   61       -5.520473   1.000000
   62       -5.469410   1.000000
   63       -5.390429   1.000000
   64       -5.186245   1.000000
   65       -5.103417   1.000000
   66       -5.034175   1.000000
   67       -4.991162   1.000000
   68       -4.936580   1.000000
   69       -4.782524   1.000000
   70       -4.652036   1.000000
   71       -4.629750   1.000000
   72       -4.555400   1.000000
   73       -4.379396   1.000000
   74       -4.252846   1.000000
   75       -4.163668   1.000000
   76       -3.951215   0.999998
   77       -3.850102   0.999953
   78       -3.757904   0.999426
   79       -3.619619   0.988501
   80       -3.407047   0.779457
   81       -3.128721   0.115518
   82       -2.696823   0.000011
   83       -2.625421   0.000001
   84       -2.587317   0.000000
   85       -2.475344   0.000000
   86       -2.408312   0.000000
   87       -2.302049   0.000000
   88       -2.200025   0.000000
   89       -2.100941   0.000000
   90       -1.947384   0.000000
   91       -1.871910   0.000000
   92       -1.704568   0.000000
   93       -1.494791   0.000000
   94       -1.311867   0.000000
   95       -1.201325   0.000000
   96       -1.044722   0.000000
   97       -0.970330   0.000000
   98       -0.884802   0.000000
   99       -0.815196   0.000000
  100       -0.729664   0.000000
  101       -0.664508   0.000000
  102       -0.590950   0.000000
  103       -0.507106   0.000000
  104       -0.426954   0.000000
  105       -0.332093   0.000000
  106       -0.235809   0.000000
  107       -0.063664   0.000000
  108        0.043585   0.000000
  109        0.098903   0.000000
  110        0.187629   0.000000
  111        0.295038   0.000000
  112        0.495972   0.000000
  113        0.581991   0.000000
  114        0.855093   0.000000
  115        1.084327   0.000000
  116        1.177067   0.000000
  117        1.296517   0.000000
  118        1.685773   0.000000
  119        1.869821   0.000000
  120        2.182423   0.000000
 
  0.2500000E+00  0.5551115E-16  0.0000000E+00  0.3125000E-01
    1      -17.699034   1.000000
    2      -16.950917   1.000000
    3      -16.737195   1.000000
    4      -16.666091   1.000000
    5      -16.599363   1.000000
    6      -16.367186   1.000000
    7      -16.274663   1.000000
    8      -16.181276   1.000000
    9      -16.137541   1.000000
   10      -16.072265   1.000000
   11      -15.999228   1.000000
   12      -15.937869   1.000000
   13      -15.771721   1.000000
   14      -15.720260   1.000000
   15      -15.606765   1.000000
   16      -15.520233   1.000000
   17      -15.454463   1.000000
   18      -15.410093   1.000000
   19       -9.442102   1.000000
   20       -9.184729   1.000000
   21       -9.102152   1.000000
   22       -8.983097   1.000000
   23       -8.891778   1.000000
   24       -8.815771   1.000000
   25       -8.654617   1.000000
   26       -8.496804   1.000000
   27       -8.447868   1.000000
   28       -8.401721   1.000000
   29       -8.286490   1.000000
   30       -8.223961   1.000000
   31       -8.149371   1.000000
   32       -8.021359   1.000000
   33       -7.949829   1.000000
   34       -7.864510   1.000000
   35       -7.793129   1.000000
   36       -7.651991   1.000000
   37       -7.590559   1.000000
   38       -7.506055   1.000000
   39       -7.446968   1.000000
   40       -7.366956   1.000000
   41       -7.294714   1.000000
   42       -7.174736   1.000000
   43       -7.110079   1.000000
   44       -6.987683   1.000000
   45       -6.948573   1.000000
   46       -6.881151   1.000000
   47       -6.762477   1.000000
   48       -6.662121   1.000000
   49       -6.610084   1.000000
   50       -6.513764   1.000000
   51       -6.456037   1.000000
   52       -6.373282   1.000000
   53       -6.249201   1.000000
   54       -6.190607   1.000000
   55       -6.117207   1.000000
   56       -6.052764   1.000000
   57       -5.931088   1.000000
   58       -5.821871   1.000000
   59       -5.706759   1.000000
   60       -5.665646   1.000000
   61       -5.594951   1.000000
   62       -5.518434   1.000000
   63       -5.499980   1.000000
   64       -5.340231   1.000000
   65       -5.201171   1.000000
   66       -5.075482   1.000000
   67       -4.982757   1.000000
   68       -4.905397   1.000000
   69       -4.873595   1.000000
   70       -4.664325   1.000000
   71       -4.535152   1.000000
   72       -4.483919   1.000000
   73       -4.331614   1.000000
   74       -4.174179   1.000000
   75       -4.134375   1.000000
   76       -4.014078   1.000000
   77       -3.954195   0.999998
   78       -3.751176   0.999322
   79       -3.606153   0.985306
   80       -3.336143   0.606034
   81       -3.022203   0.025535
   82       -2.772704   0.000102
   83       -2.671705   0.000005
   84       -2.606700   0.000001
   85       -2.425874   0.000000
   86       -2.333436   0.000000
   87       -2.284722   0.000000
   88       -2.137437   0.000000
   89       -2.039175   0.000000
   90       -1.981815   0.000000
   91       -1.864086   0.000000
   92       -1.669144   0.000000
   93       -1.490953   0.000000
   94       -1.307915   0.000000
   95       -1.185453   0.000000
   96       -1.046474   0.000000
   97       -1.015604   0.000000
   98       -0.922967   0.000000
   99       -0.878045   0.000000
  100       -0.795156   0.000000
  101       -0.753909   0.000000
  102       -0.670729   0.000000
  103       -0.558892   0.000000
  104       -0.469761   0.000000
  105       -0.433224   0.000000
  106       -0.364241   0.000000
  107       -0.166512   0.000000
  108       -0.089702   0.000000
  109        0.056903   0.000000
  110        0.187411   0.000000
  111        0.281974   0.000000
  112        0.555572   0.000000
  113        0.763610   0.000000
  114        0.858483   0.000000
  115        1.119262   0.000000
  116        1.223142   0.000000
  117        1.370150   0.000000
  118        1.810062   0.000000
  119        1.979511   0.000000
  120        2.286747   0.000000
 
  0.3750000E+00  0.0000000E+00  0.0000000E+00  0.3125000E-01
    1      -17.585677   1.000000
    2      -17.163785   1.000000
    3      -16.757647   1.000000
    4      -16.701713   1.000000
    5      -16.615051   1.000000
    6      -16.378546   1.000000
    7      -16.235086   1.000000
    8      -16.156193   1.000000
    9      -16.094611   1.000000
   10      -16.019784   1.000000
   11      -15.963930   1.000000
   12      -15.882179   1.000000
   13      -15.817289   1.000000
   14      -15.660768   1.000000
   15      -15.613539   1.000000
   16      -15.539115   1.000000
   17      -15.484040   1.000000
   18      -15.407879   1.000000
   19       -9.667299   1.000000
   20       -9.283962   1.000000
   21       -9.138578   1.000000
   22       -8.973374   1.000000
   23       -8.924252   1.000000
   24       -8.865822   1.000000
   25       -8.626231   1.000000
   26       -8.468619   1.000000
   27       -8.395186   1.000000
   28       -8.345425   1.000000
   29       -8.320521   1.000000
   30       -8.220027   1.000000
   31       -8.158176   1.000000
   32       -7.968250   1.000000
   33       -7.956925   1.000000
   34       -7.895396   1.000000
   35       -7.703443   1.000000
   36       -7.620220   1.000000
   37       -7.565577   1.000000
   38       -7.479311   1.000000
   39       -7.373174   1.000000
   40       -7.293403   1.000000
   41       -7.229823   1.000000
   42       -7.205483   1.000000
   43       -7.033030   1.000000
   44       -6.957525   1.000000
   45       -6.857083   1.000000
   46       -6.792178   1.000000
   47       -6.706498   1.000000
   48       -6.623512   1.000000
   49       -6.578228   1.000000
   50       -6.506539   1.000000
   51       -6.410416   1.000000
   52       -6.345767   1.000000
   53       -6.248468   1.000000
   54       -6.152989   1.000000
   55       -6.067902   1.000000
   56       -6.031244   1.000000
   57       -5.990731   1.000000
   58       -5.939975   1.000000
   59       -5.827075   1.000000
   60       -5.756428   1.000000
   61       -5.718906   1.000000
   62       -5.607665   1.000000
   63       -5.573672   1.000000
   64       -5.422064   1.000000
   65       -5.235101   1.000000
   66       -5.108349   1.000000
   67       -4.952727   1.000000
   68       -4.892964   1.000000
   69       -4.814265   1.000000
   70       -4.742265   1.000000
   71       -4.587807   1.000000
   72       -4.466572   1.000000
   73       -4.375344   1.000000
   74       -4.260438   1.000000
   75       -4.060237   1.000000
   76       -3.929782   0.999996
   77       -3.924248   0.999995
   78       -3.681233   0.996627
   79       -3.609303   0.986115
   80       -3.231717   0.319390
   81       -2.993535   0.015635
   82       -2.795141   0.000188
   83       -2.711464   0.000017
   84       -2.631834   0.000001
   85       -2.409057   0.000000
   86       -2.317744   0.000000
   87       -2.230607   0.000000
   88       -2.098845   0.000000
   89       -2.010819   0.000000
   90       -1.971072   0.000000
   91       -1.804212   0.000000
   92       -1.652343   0.000000
   93       -1.485885   0.000000
   94       -1.293876   0.000000
   95       -1.223138   0.000000
   96       -1.091917   0.000000
   97       -1.049085   0.000000
   98       -0.946978   0.000000
   99       -0.917910   0.000000
  100       -0.864148   0.000000
  101       -0.807493   0.000000
  102       -0.753537   0.000000
  103       -0.627524   0.000000
  104       -0.568779   0.000000
  105       -0.493765   0.000000
  106       -0.431954   0.000000
  107       -0.257696   0.000000
  108       -0.194512   0.000000
  109        0.056860   0.000000
  110        0.163308   0.000000
  111        0.253938   0.000000
  112        0.602844   0.000000
  113        0.805745   0.000000
  114        0.919878   0.000000
  115        1.121239   0.000000
  116        1.281540   0.000000
  117        1.500778   0.000000
  118        1.993929   0.000000
  119        2.151190   0.000000
  120        2.456483   0.000000
 
  0.5000000E+00  0.1110223E-15  0.0000000E+00  0.1562500E-01
    1      -17.492483   1.000000
    2      -17.292115   1.000000
    3      -16.766147   1.000000
    4      -16.715900   1.000000
    5      -16.615737   1.000000
    6      -16.386534   1.000000
    7      -16.230301   1.000000
    8      -16.139778   1.000000
    9      -16.068913   1.000000
   10      -16.010916   1.000000
   11      -15.933046   1.000000
   12      -15.868444   1.000000
   13      -15.828337   1.000000
   14      -15.655250   1.000000
   15      -15.613599   1.000000
   16      -15.548615   1.000000
   17      -15.504316   1.000000
   18      -15.394040   1.000000
   19       -9.747852   1.000000
   20       -9.323274   1.000000
   21       -9.159590   1.000000
   22       -8.999142   1.000000
   23       -8.953399   1.000000
   24       -8.755264   1.000000
   25       -8.586581   1.000000
   26       -8.581854   1.000000
   27       -8.391622   1.000000
   28       -8.324794   1.000000
   29       -8.311869   1.000000
   30       -8.205548   1.000000
   31       -8.120683   1.000000
   32       -8.001077   1.000000
   33       -7.953658   1.000000
   34       -7.902424   1.000000
   35       -7.676225   1.000000
   36       -7.632440   1.000000
   37       -7.599552   1.000000
   38       -7.468221   1.000000
   39       -7.394562   1.000000
   40       -7.252819   1.000000
   41       -7.220720   1.000000
   42       -7.109004   1.000000
   43       -6.953904   1.000000
   44       -6.929932   1.000000
   45       -6.865792   1.000000
   46       -6.731642   1.000000
   47       -6.644417   1.000000
   48       -6.606507   1.000000
   49       -6.528457   1.000000
   50       -6.484672   1.000000
   51       -6.460820   1.000000
   52       -6.370384   1.000000
   53       -6.223484   1.000000
   54       -6.173151   1.000000
   55       -6.114103   1.000000
   56       -6.020775   1.000000
   57       -5.980640   1.000000
   58       -5.947501   1.000000
   59       -5.839397   1.000000
   60       -5.744019   1.000000
   61       -5.707845   1.000000
   62       -5.683762   1.000000
   63       -5.569057   1.000000
   64       -5.461602   1.000000
   65       -5.414188   1.000000
   66       -5.093440   1.000000
   67       -5.030526   1.000000
   68       -4.933888   1.000000
   69       -4.782315   1.000000
   70       -4.660498   1.000000
   71       -4.627287   1.000000
   72       -4.457185   1.000000
   73       -4.378232   1.000000
   74       -4.316068   1.000000
   75       -3.975764   0.999999
   76       -3.938319   0.999997
   77       -3.881577   0.999982
   78       -3.668531   0.995595
   79       -3.602131   0.984215
   80       -3.188877   0.219958
   81       -2.989026   0.014426
   82       -2.787010   0.000151
   83       -2.733731   0.000033
   84       -2.645756   0.000002
   85       -2.408924   0.000000
   86       -2.314559   0.000000
   87       -2.207556   0.000000
   88       -2.102224   0.000000
   89       -1.988886   0.000000
   90       -1.957225   0.000000
   91       -1.779315   0.000000
   92       -1.626335   0.000000
   93       -1.491588   0.000000
   94       -1.291217   0.000000
   95       -1.265994   0.000000
   96       -1.107793   0.000000
   97       -1.026596   0.000000
   98       -0.976828   0.000000
   99       -0.945422   0.000000
  100       -0.881115   0.000000
  101       -0.834985   0.000000
  102       -0.801097   0.000000
  103       -0.656771   0.000000
  104       -0.582838   0.000000
  105       -0.538597   0.000000
  106       -0.434636   0.000000
  107       -0.309845   0.000000
  108       -0.219248   0.000000
  109        0.055854   0.000000
  110        0.152072   0.000000
  111        0.237726   0.000000
  112        0.623491   0.000000
  113        0.791157   0.000000
  114        0.973256   0.000000
  115        1.112939   0.000000
  116        1.307214   0.000000
  117        1.556159   0.000000
  118        2.211995   0.000000
  119        2.243813   0.000000
  120        2.351492   0.000000
 
  0.0000000E+00  0.1250000E+00  0.0000000E+00  0.3125000E-01
    1      -17.771631   1.000000
    2      -16.768774   1.000000
    3      -16.725007   1.000000
    4      -16.603239   1.000000
    5      -16.477325   1.000000
    6      -16.412178   1.000000
    7      -16.378202   1.000000
    8      -16.242834   1.000000
    9      -16.157869   1.000000
   10      -16.099977   1.000000
   11      -16.043848   1.000000
   12      -15.964819   1.000000
   13      -15.832815   1.000000
   14      -15.710443   1.000000
   15      -15.607180   1.000000
   16      -15.532067   1.000000
   17      -15.424329   1.000000
   18      -15.382151   1.000000
   19       -9.209315   1.000000
   20       -9.139606   1.000000
   21       -8.994387   1.000000
   22       -8.907003   1.000000
   23       -8.763054   1.000000
   24       -8.722093   1.000000
   25       -8.626597   1.000000
   26       -8.585473   1.000000
   27       -8.497941   1.000000
   28       -8.406172   1.000000
   29       -8.354255   1.000000
   30       -8.288445   1.000000
   31       -8.232333   1.000000
   32       -8.107120   1.000000
   33       -8.036274   1.000000
   34       -7.940013   1.000000
   35       -7.808572   1.000000
   36       -7.754195   1.000000
   37       -7.695391   1.000000
   38       -7.538883   1.000000
   39       -7.500416   1.000000
   40       -7.366244   1.000000
   41       -7.300719   1.000000
   42       -7.236222   1.000000
   43       -7.154834   1.000000
   44       -7.032037   1.000000
   45       -6.880881   1.000000
   46       -6.860079   1.000000
   47       -6.765881   1.000000
   48       -6.686749   1.000000
   49       -6.590293   1.000000
   50       -6.552392   1.000000
   51       -6.393025   1.000000
   52       -6.371526   1.000000
   53       -6.290424   1.000000
   54       -6.268441   1.000000
   55       -6.144770   1.000000
   56       -6.047700   1.000000
   57       -5.901297   1.000000
   58       -5.819023   1.000000
   59       -5.714690   1.000000
   60       -5.633634   1.000000
   61       -5.549316   1.000000
   62       -5.475741   1.000000
   63       -5.362177   1.000000
   64       -5.167848   1.000000
   65       -5.089708   1.000000
   66       -5.044326   1.000000
   67       -4.971162   1.000000
   68       -4.936094   1.000000
   69       -4.787532   1.000000
   70       -4.679359   1.000000
   71       -4.593810   1.000000
   72       -4.578633   1.000000
   73       -4.363247   1.000000
   74       -4.245892   1.000000
   75       -4.182157   1.000000
   76       -3.930139   0.999996
   77       -3.855544   0.999960
   78       -3.775206   0.999629
   79       -3.583489   0.978204
   80       -3.448808   0.856710
   81       -3.126410   0.112366
   82       -2.687670   0.000008
   83       -2.608933   0.000001
   84       -2.583786   0.000000
   85       -2.478457   0.000000
   86       -2.429231   0.000000
   87       -2.298602   0.000000
   88       -2.220929   0.000000
   89       -2.094355   0.000000
   90       -1.934791   0.000000
   91       -1.879236   0.000000
   92       -1.713391   0.000000
   93       -1.482211   0.000000
   94       -1.306876   0.000000
   95       -1.186404   0.000000
   96       -1.059985   0.000000
   97       -0.979511   0.000000
   98       -0.894365   0.000000
   99       -0.781399   0.000000
  100       -0.734112   0.000000
  101       -0.677423   0.000000
  102       -0.598879   0.000000
  103       -0.559439   0.000000
  104       -0.467586   0.000000
  105       -0.352879   0.000000
  106       -0.149372   0.000000
  107       -0.060464   0.000000
  108        0.078618   0.000000
  109        0.101062   0.000000
  110        0.219371   0.000000
  111        0.332911   0.000000
  112        0.489818   0.000000
  113        0.548309   0.000000
  114        0.818226   0.000000
  115        1.041977   0.000000
  116        1.195102   0.000000
  117        1.318549   0.000000
  118        1.685297   0.000000
  119        1.870290   0.000000
  120        2.182597   0.000000
 
  0.1250000E+00  0.1250000E+00  0.0000000E+00  0.3125000E-01
    1      -17.721764   1.000000
    2      -16.873088   1.000000
    3      -16.781319   1.000000
    4      -16.685626   1.000000
    5      -16.479723   1.000000
    6      -16.394445   1.000000
    7      -16.322119   1.000000
    8      -16.195853   1.000000
    9      -16.135584   1.000000
   10      -16.076652   1.000000
   11      -16.038483   1.000000
   12      -15.938731   1.000000
   13      -15.765365   1.000000
   14      -15.722690   1.000000
   15      -15.615521   1.000000
   16      -15.510330   1.000000
   17      -15.447037   1.000000
   18      -15.409708   1.000000
   19       -9.351018   1.000000
   20       -9.213900   1.000000
   21       -9.101101   1.000000
   22       -8.944399   1.000000
   23       -8.879915   1.000000
   24       -8.762326   1.000000
   25       -8.623225   1.000000
   26       -8.514975   1.000000
   27       -8.451399   1.000000
   28       -8.370174   1.000000
   29       -8.334513   1.000000
   30       -8.252112   1.000000
   31       -8.185451   1.000000
   32       -8.121190   1.000000
   33       -7.971380   1.000000
   34       -7.854219   1.000000
   35       -7.767225   1.000000
   36       -7.720937   1.000000
   37       -7.582268   1.000000
   38       -7.492338   1.000000
   39       -7.385433   1.000000
   40       -7.344584   1.000000
   41       -7.276254   1.000000
   42       -7.194905   1.000000
   43       -7.167583   1.000000
   44       -7.051617   1.000000
   45       -6.982025   1.000000
   46       -6.876833   1.000000
   47       -6.739333   1.000000
   48       -6.694053   1.000000
   49       -6.638184   1.000000
   50       -6.524986   1.000000
   51       -6.433209   1.000000
   52       -6.336186   1.000000
   53       -6.311862   1.000000
   54       -6.212008   1.000000
   55       -6.102708   1.000000
   56       -6.047934   1.000000
   57       -5.874534   1.000000
   58       -5.819468   1.000000
   59       -5.703579   1.000000
   60       -5.645221   1.000000
   61       -5.568107   1.000000
   62       -5.488070   1.000000
   63       -5.433455   1.000000
   64       -5.349242   1.000000
   65       -5.163839   1.000000
   66       -5.102478   1.000000
   67       -5.027743   1.000000
   68       -4.889763   1.000000
   69       -4.805962   1.000000
   70       -4.714344   1.000000
   71       -4.577554   1.000000
   72       -4.507774   1.000000
   73       -4.293931   1.000000
   74       -4.177357   1.000000
   75       -4.062063   1.000000
   76       -4.027781   1.000000
   77       -3.927677   0.999996
   78       -3.768462   0.999559
   79       -3.637825   0.991852
   80       -3.367401   0.687942
   81       -3.025271   0.026853
   82       -2.762361   0.000076
   83       -2.675243   0.000005
   84       -2.600692   0.000000
   85       -2.439174   0.000000
   86       -2.369875   0.000000
   87       -2.300710   0.000000
   88       -2.186361   0.000000
   89       -2.040279   0.000000
   90       -1.981144   0.000000
   91       -1.871339   0.000000
   92       -1.684047   0.000000
   93       -1.474835   0.000000
   94       -1.295384   0.000000
   95       -1.162429   0.000000
   96       -1.063069   0.000000
   97       -0.977138   0.000000
   98       -0.902280   0.000000
   99       -0.871153   0.000000
  100       -0.781319   0.000000
  101       -0.740335   0.000000
  102       -0.660641   0.000000
  103       -0.565800   0.000000
  104       -0.513064   0.000000
  105       -0.387917   0.000000
  106       -0.270032   0.000000
  107       -0.149186   0.000000
  108       -0.074355   0.000000
  109        0.095070   0.000000
  110        0.189669   0.000000
  111        0.344845   0.000000
  112        0.567897   0.000000
  113        0.642273   0.000000
  114        0.815677   0.000000
  115        1.044665   0.000000
  116        1.281009   0.000000
  117        1.392273   0.000000
  118        1.773884   0.000000
  119        1.942517   0.000000
  120        2.253125   0.000000
 
  0.2500000E+00  0.1250000E+00  0.0000000E+00  0.3125000E-01
    1      -17.626567   1.000000
    2      -17.054190   1.000000
    3      -16.894369   1.000000
    4      -16.656048   1.000000
    5      -16.508933   1.000000
    6      -16.364502   1.000000
    7      -16.274313   1.000000
    8      -16.163343   1.000000
    9      -16.100264   1.000000
   10      -16.058343   1.000000
   11      -15.999440   1.000000
   12      -15.918182   1.000000
   13      -15.776804   1.000000
   14      -15.651718   1.000000
   15      -15.618183   1.000000
   16      -15.513078   1.000000
   17      -15.494217   1.000000
   18      -15.412308   1.000000
   19       -9.569021   1.000000
   20       -9.380232   1.000000
   21       -9.132667   1.000000
   22       -8.960825   1.000000
   23       -8.851039   1.000000
   24       -8.806169   1.000000
   25       -8.625240   1.000000
   26       -8.461266   1.000000
   27       -8.379726   1.000000
   28       -8.324293   1.000000
   29       -8.318035   1.000000
   30       -8.240936   1.000000
   31       -8.192632   1.000000
   32       -8.050139   1.000000
   33       -7.973274   1.000000
   34       -7.887308   1.000000
   35       -7.871527   1.000000
   36       -7.588617   1.000000
   37       -7.506025   1.000000
   38       -7.420763   1.000000
   39       -7.375763   1.000000
   40       -7.296124   1.000000
   41       -7.217681   1.000000
   42       -7.169772   1.000000
   43       -7.101642   1.000000
   44       -6.989130   1.000000
   45       -6.860712   1.000000
   46       -6.813681   1.000000
   47       -6.711926   1.000000