       N       E                     dE             d eps       ncg     rms          rms(c)
DAV:   1     0.112427724883E+04    0.11243E+04   -0.35867E+04  8160   0.577E+02
DAV:   2    -0.196114333715E+01   -0.11262E+04   -0.10834E+04 11080   0.173E+02
DAV:   3    -0.199818992605E+03   -0.19786E+03   -0.18975E+03 10920   0.821E+01
DAV:   4    -0.208958515210E+03   -0.91395E+01   -0.88550E+01 11960   0.260E+01
DAV:   5    -0.209307529755E+03   -0.34901E+00   -0.34802E+00 11520   0.377E+00    0.275E+01
DAV:   6    -0.236794099342E+03   -0.27487E+02   -0.11061E+02 12560   0.603E+01    0.595E+01
DAV:   7    -0.196504052322E+03    0.40290E+02   -0.17782E+02 13360   0.152E+02    0.200E+01
DAV:   8    -0.189482624568E+03    0.70214E+01   -0.17572E+01 11960   0.128E+01    0.127E+01
DAV:   9    -0.188170972093E+03    0.13117E+01   -0.31160E+00 12520   0.631E+00    0.917E+00
DAV:  10    -0.187030272896E+03    0.11407E+01   -0.21171E+00 13400   0.741E+00    0.301E+00
DAV:  11    -0.186943302151E+03    0.86971E-01   -0.59863E-01 12280   0.231E+00    0.234E+00
DAV:  12    -0.187052626237E+03   -0.10932E+00   -0.71206E-01 12320   0.426E+00    0.439E+00
DAV:  13    -0.186878536394E+03    0.17409E+00   -0.41354E-01 12680   0.380E+00    0.205E+00
DAV:  14    -0.186843417975E+03    0.35118E-01   -0.10301E-01 12880   0.175E+00    0.119E+00
DAV:  15    -0.186838806234E+03    0.46117E-02   -0.56311E-02 12040   0.143E+00    0.109E+00
DAV:  16    -0.186828728178E+03    0.10078E-01   -0.17925E-02 12720   0.686E-01    0.471E-01
DAV:  17    -0.186826650455E+03    0.20777E-02   -0.90238E-03 12640   0.464E-01    0.249E-01
DAV:  18    -0.186826270047E+03    0.38041E-03   -0.23235E-03 11680   0.138E-01    0.190E-01
DAV:  19    -0.186825858991E+03    0.41106E-03   -0.98049E-04 10160   0.139E-01    0.484E-02
DAV:  20    -0.186826551730E+03   -0.69274E-03   -0.69188E-04  9240   0.565E-02    0.493E-02
DAV:  21    -0.186827153693E+03   -0.60196E-03   -0.31058E-04  8080   0.503E-02    0.438E-02
DAV:  22    -0.186828305092E+03   -0.11514E-02   -0.22029E-04  7560   0.623E-02    0.393E-02
DAV:  23    -0.186829573330E+03   -0.12682E-02   -0.15288E-04  7440   0.437E-02    0.105E-02
DAV:  24    -0.186830164432E+03   -0.59110E-03   -0.31733E-05  6720   0.145E-02    0.899E-03
DAV:  25    -0.186830553978E+03   -0.38955E-03   -0.18494E-05  5560   0.142E-02    0.569E-03
DAV:  26    -0.186830766895E+03   -0.21292E-03   -0.83745E-06  6840   0.756E-03    0.185E-03
DAV:  27    -0.186830872746E+03   -0.10585E-03   -0.39629E-06  6920   0.451E-03    0.119E-03
DAV:  28    -0.186830917984E+03   -0.45238E-04   -0.21367E-06  7200   0.350E-03
   1 F= -.18683092E+03 E0= -.18665829E+03  d E =-.186831E+03
       N       E                     dE             d eps       ncg     rms          rms(c)
DAV:   1    -0.187465426497E+03   -0.63455E+00   -0.27339E+02  8160   0.351E+01    0.464E+00
DAV:   2    -0.189366468394E+03   -0.19010E+01   -0.20299E+01 12240   0.153E+01    0.871E+00
DAV:   3    -0.189351868454E+03    0.14600E-01   -0.41121E+00 12480   0.121E+01    0.672E+00
DAV:   4    -0.188735613341E+03    0.61626E+00   -0.62569E-01 12680   0.470E+00    0.176E+00
DAV:   5    -0.188760180947E+03   -0.24568E-01   -0.32541E-01 12200   0.237E+00    0.328E+00
DAV:   6    -0.188747917887E+03    0.12263E-01   -0.52117E-01 12760   0.406E+00    0.306E+00
DAV:   7    -0.188665781455E+03    0.82136E-01   -0.18280E-01 12920   0.226E+00    0.106E+00
DAV:   8    -0.188649329522E+03    0.16452E-01   -0.52998E-02 10720   0.776E-01    0.572E-01
DAV:   9    -0.188645170145E+03    0.41594E-02   -0.87457E-03 12040   0.329E-01    0.268E-01
DAV:  10    -0.188646593605E+03   -0.14235E-02   -0.53532E-03 13080   0.420E-01    0.507E-01
DAV:  11    -0.188644637071E+03    0.19565E-02   -0.41764E-03 13200   0.361E-01    0.117E-01
DAV:  12    -0.188644734979E+03   -0.97908E-04   -0.70802E-04 11840   0.880E-02
   2 F= -.18864473E+03 E0= -.18850238E+03  d E =-.181382E+01
       N       E                     dE             d eps       ncg     rms          rms(c)
DAV:   1    -0.190570041122E+03   -0.19254E+01   -0.31301E+01  9200   0.142E+01    0.446E+00
DAV:   2    -0.190554569091E+03    0.15472E-01   -0.28541E+00 11360   0.969E+00    0.744E+00
DAV:   3    -0.190042691307E+03    0.51188E+00   -0.13602E+00 12360   0.866E+00    0.415E+00
DAV:   4    -0.189835980123E+03    0.20671E+00   -0.71441E-01 12800   0.409E+00    0.247E+00
DAV:   5    -0.189748261717E+03    0.87718E-01   -0.29414E-01 11720   0.188E+00    0.842E-01
DAV:   6    -0.189732831748E+03    0.15430E-01   -0.40120E-02 10560   0.707E-01    0.288E-01
DAV:   7    -0.189734289329E+03   -0.14576E-02   -0.88496E-03 12400   0.503E-01    0.429E-01
DAV:   8    -0.189732990037E+03    0.12993E-02   -0.31441E-03 11960   0.360E-01    0.159E-01
DAV:   9    -0.189733042946E+03   -0.52909E-04   -0.10001E-03 10440   0.124E-01    0.123E-01
DAV:  10    -0.189733130829E+03   -0.87882E-04   -0.67809E-04 10280   0.136E-01
   3 F= -.18973313E+03 E0= -.18961269E+03  d E =-.108840E+01
       N       E                     dE             d eps       ncg     rms          rms(c)
DAV:   1    -0.191285784811E+03   -0.15527E+01   -0.74549E+01  8160   0.197E+01    0.461E+00
DAV:   2    -0.191186204787E+03    0.99580E-01   -0.54824E+00 13120   0.842E+00    0.529E+00
DAV:   3    -0.191194441248E+03   -0.82365E-02   -0.16332E+00 12160   0.922E+00    0.627E+00
DAV:   4    -0.190861340398E+03    0.33310E+00   -0.13323E+00 12760   0.721E+00    0.318E+00
DAV:   5    -0.190846964495E+03    0.14376E-01   -0.54460E-01 12000   0.479E+00    0.332E+00
DAV:   6    -0.190712239449E+03    0.13473E+00   -0.21740E-01 12200   0.330E+00    0.953E-01
DAV:   7    -0.190703450894E+03    0.87886E-02   -0.41591E-02 12480   0.980E-01    0.464E-01
DAV:   8    -0.190702559429E+03    0.89147E-03   -0.10928E-02 11360   0.632E-01    0.518E-01
DAV:   9    -0.190700208437E+03    0.23510E-02   -0.42403E-03 11320   0.473E-01    0.153E-01
DAV:  10    -0.190700459937E+03   -0.25150E-03   -0.11526E-03 10160   0.142E-01    0.121E-01
DAV:  11    -0.190700318636E+03    0.14130E-03   -0.86383E-04 10520   0.105E-01    0.513E-02
DAV:  12    -0.190700301380E+03    0.17256E-04   -0.15139E-04  7800   0.457E-02
   4 F= -.19070030E+03 E0= -.19059588E+03  d E =-.967171E+00
       N       E                     dE             d eps       ncg     rms          rms(c)
DAV:   1    -0.192024903344E+03   -0.13246E+01   -0.15257E+02  8160   0.276E+01    0.562E+00
DAV:   2    -0.191876035707E+03    0.14887E+00   -0.92845E+00 12320   0.922E+00    0.498E+00
DAV:   3    -0.192191290675E+03   -0.31525E+00   -0.23954E+00 11160   0.108E+01    0.925E+00
DAV:   4    -0.191580598391E+03    0.61069E+00   -0.27849E+00 12080   0.112E+01    0.405E+00
DAV:   5    -0.191520915322E+03    0.59683E-01   -0.83612E-01 12240   0.596E+00    0.374E+00
DAV:   6    -0.191333049717E+03    0.18787E+00   -0.29169E-01 12240   0.394E+00    0.906E-01
DAV:   7    -0.191327251108E+03    0.57986E-02   -0.54428E-02 12240   0.112E+00    0.571E-01
DAV:   8    -0.191325387391E+03    0.18637E-02   -0.18469E-02 11880   0.822E-01    0.614E-01
DAV:   9    -0.191321934718E+03    0.34527E-02   -0.63926E-03 11920   0.573E-01    0.179E-01
DAV:  10    -0.191322347267E+03   -0.41255E-03   -0.20028E-03 10960   0.173E-01    0.124E-01
DAV:  11    -0.191322115349E+03    0.23192E-03   -0.79136E-04 11240   0.106E-01    0.473E-02
DAV:  12    -0.191322117840E+03   -0.24912E-05   -0.11745E-04  6560   0.399E-02
   5 F= -.19132212E+03 E0= -.19122158E+03  d E =-.621816E+00
       N       E                     dE             d eps       ncg     rms          rms(c)
DAV:   1    -0.191361912337E+03   -0.39797E-01   -0.32983E+00  8160   0.382E+00    0.495E-01
DAV:   2    -0.191400560161E+03   -0.38648E-01   -0.18965E-01 12680   0.228E+00    0.176E+00
DAV:   3    -0.191372314645E+03    0.28246E-01   -0.64569E-02 12080   0.174E+00    0.425E-01
DAV:   4    -0.191372296267E+03    0.18378E-04   -0.87365E-03 11160   0.647E-01    0.441E-01
DAV:   5    -0.191370356446E+03    0.19398E-02   -0.48074E-03 10320   0.498E-01    0.193E-01
DAV:   6    -0.191370208387E+03    0.14806E-03   -0.15659E-03 10320   0.211E-01    0.152E-01
DAV:   7    -0.191370541241E+03   -0.33285E-03   -0.19886E-03 10280   0.316E-01    0.241E-01
DAV:   8    -0.191369943779E+03    0.59746E-03   -0.99504E-04  8800   0.219E-01    0.353E-02
DAV:   9    -0.191369951368E+03   -0.75896E-05   -0.88089E-05  5680   0.380E-02
   6 F= -.19136995E+03 E0= -.19126766E+03  d E =-.478335E-01
       N       E                     dE             d eps       ncg     rms          rms(c)
DAV:   1    -0.191419407771E+03   -0.49464E-01   -0.58876E+00  8160   0.510E+00    0.586E-01
DAV:   2    -0.191454322693E+03   -0.34915E-01   -0.19617E-01 12880   0.190E+00    0.172E+00
DAV:   3    -0.191429737580E+03    0.24585E-01   -0.78644E-02 12160   0.189E+00    0.638E-01
DAV:   4    -0.191427218814E+03    0.25188E-02   -0.12550E-02 11160   0.682E-01    0.447E-01
DAV:   5    -0.191425699175E+03    0.15196E-02   -0.71350E-03 10640   0.609E-01    0.309E-01
DAV:   6    -0.191425031505E+03    0.66767E-03   -0.34404E-03 10280   0.362E-01    0.207E-01
DAV:   7    -0.191425385370E+03   -0.35387E-03   -0.30932E-03 11600   0.391E-01    0.279E-01
DAV:   8    -0.191424603336E+03    0.78203E-03   -0.15191E-03  9640   0.269E-01    0.535E-02
DAV:   9    -0.191424582924E+03    0.20413E-04   -0.12280E-04  5600   0.502E-02
   7 F= -.19142458E+03 E0= -.19132089E+03  d E =-.546316E-01
       N       E                     dE             d eps       ncg     rms          rms(c)
DAV:   1    -0.191439702355E+03   -0.15099E-01   -0.40917E-01  8160   0.137E+00    0.199E-01
DAV:   2    -0.191442192874E+03   -0.24905E-02   -0.17164E-02 12120   0.619E-01    0.495E-01
DAV:   3    -0.191440035525E+03    0.21573E-02   -0.61581E-03 11480   0.552E-01    0.187E-01
DAV:   4    -0.191440066050E+03   -0.30525E-04   -0.16456E-03  9920   0.282E-01    0.204E-01
DAV:   5    -0.191439691843E+03    0.37421E-03   -0.12203E-03  9800   0.254E-01    0.107E-01
DAV:   6    -0.191439602549E+03    0.89294E-04   -0.44191E-04  7840   0.120E-01
   8 F= -.19143960E+03 E0= -.19133567E+03  d E =-.150196E-01
       N       E                     dE             d eps       ncg     rms          rms(c)
DAV:   1    -0.191472970608E+03   -0.33279E-01   -0.21068E+00  8160   0.306E+00    0.372E-01
DAV:   2    -0.191491868191E+03   -0.18898E-01   -0.84830E-02 13560   0.151E+00    0.132E+00
DAV:   3    -0.191476379911E+03    0.15488E-01   -0.36718E-02 10880   0.127E+00    0.329E-01
DAV:   4    -0.191476650847E+03   -0.27094E-03   -0.54819E-03 11000   0.513E-01    0.364E-01
DAV:   5    -0.191475263780E+03    0.13871E-02   -0.30664E-03 10560   0.397E-01    0.132E-01
DAV:   6    -0.191475214411E+03    0.49369E-04   -0.93267E-04 10040   0.150E-01
   9 F= -.19147521E+03 E0= -.19137103E+03  d E =-.356119E-01
       N       E                     dE             d eps       ncg     rms          rms(c)
DAV:   1    -0.191489764102E+03   -0.14500E-01   -0.35276E-01  8160   0.127E+00    0.179E-01
DAV:   2    -0.191495271736E+03   -0.55076E-02   -0.18616E-02 13600   0.760E-01    0.725E-01
DAV:   3    -0.191489983301E+03    0.52884E-02   -0.95798E-03 11440   0.673E-01    0.926E-02
DAV:   4    -0.191490166703E+03   -0.18340E-03   -0.67365E-04  9240   0.165E-01    0.141E-01
DAV:   5    -0.191489989083E+03    0.17762E-03   -0.53815E-04  9160   0.171E-01    0.667E-02
DAV:   6    -0.191490045720E+03   -0.56637E-04   -0.29282E-04  6920   0.113E-01
  10 F= -.19149005E+03 E0= -.19138588E+03  d E =-.148313E-01
       N       E                     dE             d eps       ncg     rms          rms(c)
DAV:   1    -0.191516839961E+03   -0.26851E-01   -0.12806E+00  8160   0.240E+00    0.307E-01
DAV:   2    -0.191529660764E+03   -0.12821E-01   -0.52770E-02 13360   0.117E+00    0.110E+00
DAV:   3    -0.191518469719E+03    0.11191E-01   -0.22917E-02 11440   0.107E+00    0.239E-01
DAV:   4    -0.191518291719E+03    0.17800E-03   -0.22940E-03 11120   0.268E-01    0.224E-01
DAV:   5    -0.191517997162E+03    0.29456E-03   -0.19253E-03 10680   0.298E-01    0.159E-01
DAV:   6    -0.191517850962E+03    0.14620E-03   -0.89765E-04  9760   0.178E-01    0.919E-02
DAV:   7    -0.191517840601E+03    0.10361E-04   -0.50770E-04  8920   0.161E-01
  11 F= -.19151784E+03 E0= -.19141459E+03  d E =-.277949E-01
       N       E                     dE             d eps       ncg     rms          rms(c)
DAV:   1    -0.191524609816E+03   -0.67589E-02   -0.23271E-01  8160   0.111E+00    0.224E-01
DAV:   2    -0.191525964461E+03   -0.13546E-02   -0.15003E-02 11520   0.513E-01    0.454E-01
DAV:   3    -0.191524572974E+03    0.13915E-02   -0.73199E-03 11600   0.592E-01    0.289E-01
DAV:   4    -0.191523761477E+03    0.81150E-03   -0.20640E-03 11160   0.275E-01    0.100E-01
DAV:   5    -0.191523709429E+03    0.52048E-04   -0.88701E-04 10440   0.159E-01
  12 F= -.19152371E+03 E0= -.19142006E+03  d E =-.586883E-02
       N       E                     dE             d eps       ncg     rms          rms(c)
DAV:   1    -0.191508543102E+03    0.15218E-01   -0.89383E-01  8160   0.210E+00    0.400E-01
DAV:   2    -0.191516735724E+03   -0.81926E-02   -0.55936E-02 12720   0.117E+00    0.100E+00
DAV:   3    -0.191507724935E+03    0.90108E-02   -0.26843E-02 11320   0.112E+00    0.389E-01
DAV:   4    -0.191506719963E+03    0.10050E-02   -0.62109E-03 10680   0.486E-01    0.299E-01
DAV:   5    -0.191506521499E+03    0.19846E-03   -0.45608E-03 10040   0.478E-01    0.307E-01
DAV:   6    -0.191505614354E+03    0.90715E-03   -0.24197E-03 10960   0.326E-01    0.133E-01
DAV:   7    -0.191505561197E+03    0.53157E-04   -0.85072E-04 10000   0.198E-01
  13 F= -.19150556E+03 E0= -.19140211E+03  d E =0.181482E-01
       N       E                     dE             d eps       ncg     rms          rms(c)
DAV:   1    -0.191567445596E+03   -0.61831E-01   -0.63182E+00  8160   0.531E+00    0.593E-01
DAV:   2    -0.191607078391E+03   -0.39633E-01   -0.20905E-01 12920   0.220E+00    0.186E+00
DAV:   3    -0.191577075363E+03    0.30003E-01   -0.72963E-02 12240   0.191E+00    0.506E-01
DAV:   4    -0.191577148804E+03   -0.73441E-04   -0.11559E-02 11480   0.722E-01    0.556E-01
DAV:   5    -0.191574290637E+03    0.28582E-02   -0.83676E-03 11680   0.662E-01    0.278E-01
DAV:   6    -0.191574519500E+03   -0.22886E-03   -0.45777E-03 11320   0.414E-01    0.303E-01
DAV:   7    -0.191574007556E+03    0.51194E-03   -0.37259E-03 11640   0.425E-01    0.200E-01
DAV:   8    -0.191573465933E+03    0.54162E-03   -0.88187E-04  9200   0.180E-01    0.322E-02
DAV:   9    -0.191573468109E+03   -0.21761E-05   -0.10608E-04  6800   0.363E-02
  14 F= -.19157347E+03 E0= -.19147165E+03  d E =-.679069E-01
       N       E                     dE             d eps       ncg     rms          rms(c)
DAV:   1    -0.191555922221E+03    0.17544E-01   -0.39822E-01  8160   0.134E+00    0.149E-01
DAV:   2    -0.191558559335E+03   -0.26371E-02   -0.13560E-02 13240   0.542E-01    0.470E-01
DAV:   3    -0.191556504618E+03    0.20547E-02   -0.46640E-03 11400   0.479E-01    0.125E-01
DAV:   4    -0.191556396888E+03    0.10773E-03   -0.43481E-04  8480   0.115E-01    0.740E-02
DAV:   5    -0.191556391588E+03    0.52998E-05   -0.33620E-04  9520   0.129E-01
  15 F= -.19155639E+03 E0= -.19145411E+03  d E =0.170765E-01
       N       E                     dE             d eps       ncg     rms          rms(c)
DAV:   1    -0.191513529037E+03    0.42868E-01   -0.25703E+00  8160   0.344E+00    0.419E-01
DAV:   2    -0.191533118289E+03   -0.19589E-01   -0.10017E-01 13600   0.149E+00    0.129E+00
DAV:   3    -0.191517840396E+03    0.15278E-01   -0.33917E-02 12200   0.130E+00    0.334E-01
DAV:   4    -0.191516723068E+03    0.11173E-02   -0.29096E-03 11480   0.282E-01    0.152E-01
DAV:   5    -0.191517043123E+03   -0.32006E-03   -0.23382E-03 11400   0.304E-01    0.267E-01
DAV:   6    -0.191516676837E+03    0.36629E-03   -0.25875E-03 10520   0.340E-01    0.166E-01
DAV:   7    -0.191516388851E+03    0.28799E-03   -0.70836E-04  8800   0.161E-01    0.681E-02
DAV:   8    -0.191516348368E+03    0.40483E-04   -0.18578E-04  7080   0.945E-02
  16 F= -.19151635E+03 E0= -.19141288E+03  d E =0.400432E-01
       N       E                     dE             d eps       ncg     rms          rms(c)
DAV:   1    -0.191471455172E+03    0.44934E-01   -0.38899E+00  8160   0.422E+00    0.503E-01
DAV:   2    -0.191501362907E+03   -0.29908E-01   -0.13630E-01 13600   0.180E+00    0.167E+00
DAV:   3    -0.191476707225E+03    0.24656E-01   -0.53882E-02 12240   0.164E+00    0.401E-01
DAV:   4    -0.191475424532E+03    0.12827E-02   -0.49430E-03 11480   0.373E-01    0.243E-01
DAV:   5    -0.191475541741E+03   -0.11721E-03   -0.40949E-03 11360   0.427E-01    0.345E-01
DAV:   6    -0.191474784741E+03    0.75700E-03   -0.35801E-03 11360   0.387E-01    0.171E-01
DAV:   7    -0.191474707275E+03    0.77466E-04   -0.13113E-03 10120   0.226E-01    0.151E-01
DAV:   8    -0.191474439284E+03    0.26799E-03   -0.48413E-04  8560   0.161E-01    0.365E-02
DAV:   9    -0.191474436120E+03    0.31637E-05   -0.66621E-05  6160   0.462E-02
  17 F= -.19147444E+03 E0= -.19137028E+03  d E =0.419122E-01
       N       E                     dE             d eps       ncg     rms          rms(c)
DAV:   1    -0.191471543953E+03    0.28953E-02   -0.27464E+00  8160   0.357E+00    0.435E-01
DAV:   2    -0.191489263145E+03   -0.17719E-01   -0.88331E-02 13360   0.144E+00    0.130E+00
DAV:   3    -0.191474328379E+03    0.14935E-01   -0.37413E-02 11600   0.134E+00    0.376E-01
DAV:   4    -0.191474259904E+03    0.68474E-04   -0.59849E-03 11440   0.508E-01    0.373E-01
DAV:   5    -0.191473065630E+03    0.11943E-02   -0.42444E-03 11160   0.489E-01    0.243E-01
DAV:   6    -0.191472633666E+03    0.43196E-03   -0.21290E-03 10320   0.288E-01    0.163E-01
DAV:   7    -0.191472846434E+03   -0.21277E-03   -0.17206E-03 10360   0.295E-01    0.222E-01
DAV:   8    -0.191472339937E+03    0.50650E-03   -0.77702E-04  8240   0.195E-01    0.301E-02
DAV:   9    -0.191472343428E+03   -0.34917E-05   -0.61654E-05  5560   0.333E-02
  18 F= -.19147234E+03 E0= -.19136879E+03  d E =0.209269E-02
       N       E                     dE             d eps       ncg     rms          rms(c)
DAV:   1    -0.191509416743E+03   -0.37077E-01   -0.31155E+00  8160   0.376E+00    0.430E-01
DAV:   2    -0.191526856504E+03   -0.17440E-01   -0.10481E-01 12280   0.150E+00    0.121E+00
DAV:   3    -0.191514400352E+03    0.12456E-01   -0.31578E-02 12240   0.127E+00    0.394E-01
DAV:   4    -0.191514819258E+03   -0.41891E-03   -0.70179E-03 11400   0.611E-01    0.459E-01
DAV:   5    -0.191512637394E+03    0.21819E-02   -0.48806E-03 10320   0.523E-01    0.178E-01
DAV:   6    -0.191512770006E+03   -0.13261E-03   -0.20089E-03 11320   0.254E-01    0.204E-01
DAV:   7    -0.191512542763E+03    0.22724E-03   -0.17385E-03  9920   0.292E-01    0.158E-01
DAV:   8    -0.191512261217E+03    0.28155E-03   -0.50427E-04  8320   0.140E-01    0.273E-02
DAV:   9    -0.191512261805E+03   -0.58768E-06   -0.59432E-05  6800   0.293E-02
  19 F= -.19151226E+03 E0= -.19141022E+03  d E =-.399184E-01
       N       E                     dE             d eps       ncg     rms          rms(c)
DAV:   1    -0.191538137254E+03   -0.25876E-01   -0.18187E+00  8160   0.289E+00    0.294E-01
DAV:   2    -0.191543158332E+03   -0.50211E-02   -0.45925E-02 12240   0.800E-01    0.567E-01
DAV:   3    -0.191541082285E+03    0.20760E-02   -0.10255E-02 11480   0.728E-01    0.343E-01
DAV:   4    -0.191540595965E+03    0.48632E-03   -0.29231E-03 10920   0.398E-01    0.270E-01
DAV:   5    -0.191539930889E+03    0.66508E-03   -0.20060E-03  9800   0.347E-01    0.141E-01
DAV:   6    -0.191539835306E+03    0.95584E-04   -0.85709E-04 10360   0.154E-01
  20 F= -.19153984E+03 E0= -.19144017E+03  d E =-.275735E-01
       N       E                     dE             d eps       ncg     rms          rms(c)
DAV:   1    -0.191556287575E+03   -0.16357E-01   -0.11178E+00  8160   0.225E+00    0.301E-01
DAV:   2    -0.191570436758E+03   -0.14149E-01   -0.49685E-02 13600   0.124E+00    0.114E+00
DAV:   3    -0.191557297378E+03    0.13139E-01   -0.23661E-02 12000   0.111E+00    0.185E-01
DAV:   4    -0.191557247270E+03    0.50108E-04   -0.15619E-03 11240   0.233E-01    0.174E-01
DAV:   5    -0.191557061134E+03    0.18614E-03   -0.11931E-03 11320   0.262E-01    0.148E-01
DAV:   6    -0.191556966384E+03    0.94750E-04   -0.67793E-04  8480   0.180E-01
  21 F= -.19155697E+03 E0= -.19145772E+03  d E =-.171311E-01
       N       E                     dE             d eps       ncg     rms          rms(c)
DAV:   1    -0.191575872359E+03   -0.18811E-01   -0.14835E+00  8160   0.266E+00    0.304E-01
DAV:   2    -0.191578075838E+03   -0.22035E-02   -0.38139E-02 11360   0.603E-01    0.348E-01
DAV:   3    -0.191578897181E+03   -0.82134E-03   -0.94605E-03 12000   0.678E-01    0.486E-01
DAV:   4    -0.191576894015E+03    0.20032E-02   -0.47068E-03 11120   0.503E-01    0.198E-01
DAV:   5    -0.191576598196E+03    0.29582E-03   -0.15849E-03  9720   0.273E-01    0.179E-01
DAV:   6    -0.191576435869E+03    0.16233E-03   -0.12855E-03  9600   0.264E-01    0.127E-01
DAV:   7    -0.191576355503E+03    0.80366E-04   -0.52041E-04  8280   0.166E-01
  22 F= -.19157636E+03 E0= -.19147927E+03  d E =-.193891E-01
       N       E                     dE             d eps       ncg     rms          rms(c)
DAV:   1    -0.191615620317E+03   -0.39184E-01   -0.33243E+00  8160   0.386E+00    0.413E-01
DAV:   2    -0.191633997133E+03   -0.18377E-01   -0.10260E-01 12760   0.148E+00    0.120E+00
DAV:   3    -0.191620483137E+03    0.13514E-01   -0.30443E-02 12360   0.129E+00    0.330E-01
DAV:   4    -0.191619526966E+03    0.95617E-03   -0.25462E-03 11480   0.306E-01    0.210E-01
DAV:   5    -0.191619853397E+03   -0.32643E-03   -0.26827E-03 11720   0.399E-01    0.296E-01
DAV:   6    -0.191619229328E+03    0.62407E-03   -0.19713E-03 10360   0.301E-01    0.113E-01
DAV:   7    -0.191619107650E+03    0.12168E-03   -0.61372E-04  9960   0.166E-01    0.904E-02
DAV:   8    -0.191619021544E+03    0.86107E-04   -0.18655E-04  7600   0.104E-01
  23 F= -.19161902E+03 E0= -.19152503E+03  d E =-.426660E-01
       N       E                     dE             d eps       ncg     rms          rms(c)
DAV:   1    -0.191621090812E+03   -0.19832E-02   -0.80436E-03  8160   0.191E-01    0.278E-02
DAV:   2    -0.191621160870E+03   -0.70058E-04   -0.34786E-04 10560   0.938E-02
  24 F= -.19162116E+03 E0= -.19152729E+03  d E =-.213933E-02
       N       E                     dE             d eps       ncg     rms          rms(c)
DAV:   1    -0.191658646896E+03   -0.37556E-01   -0.27720E+00  8160   0.355E+00    0.427E-01
DAV:   2    -0.191679043593E+03   -0.20397E-01   -0.10092E-01 13160   0.159E+00    0.132E+00
DAV:   3    -0.191662158340E+03    0.16885E-01   -0.33733E-02 12400   0.138E+00    0.293E-01
DAV:   4    -0.191661583393E+03    0.57495E-03   -0.30990E-03 11480   0.354E-01    0.257E-01
DAV:   5    -0.191661437360E+03    0.14603E-03   -0.27737E-03 11520   0.428E-01    0.260E-01
DAV:   6    -0.191661169164E+03    0.26820E-03   -0.20999E-03 10880   0.312E-01    0.183E-01
DAV:   7    -0.191660894387E+03    0.27478E-03   -0.10632E-03  9560   0.253E-01    0.109E-01
DAV:   8    -0.191660748762E+03    0.14563E-03   -0.24385E-04  7560   0.105E-01    0.194E-02
DAV:   9    -0.191660746779E+03    0.19827E-05   -0.36997E-05  6720   0.233E-02
  25 F= -.19166075E+03 E0= -.19156980E+03  d E =-.395859E-01
       N       E                     dE             d eps       ncg     rms          rms(c)
DAV:   1    -0.191719410883E+03   -0.58662E-01   -0.79495E+00  8160   0.601E+00    0.634E-01
DAV:   2    -0.191753115546E+03   -0.33705E-01   -0.23899E-01 12080   0.205E+00    0.153E+00
DAV:   3    -0.191731947219E+03    0.21168E-01   -0.60912E-02 12320   0.183E+00    0.544E-01
DAV:   4    -0.191728178244E+03    0.37690E-02   -0.61469E-03 12240   0.449E-01    0.215E-01
DAV:   5    -0.191730069767E+03   -0.18915E-02   -0.53639E-03 12560   0.559E-01    0.503E-01
DAV:   6    -0.191728173958E+03    0.18958E-02   -0.53253E-03 11480   0.577E-01    0.220E-01
DAV:   7    -0.191727490408E+03    0.68355E-03   -0.12644E-03 10080   0.221E-01    0.748E-02
DAV:   8    -0.191727474340E+03    0.16067E-04   -0.26253E-04  9200   0.115E-01
  26 F= -.19172747E+03 E0= -.19164089E+03  d E =-.667276E-01
       N       E                     dE             d eps       ncg     rms          rms(c)
DAV:   1    -0.191740070588E+03   -0.12580E-01   -0.35527E-01  8160   0.127E+00    0.177E-01
DAV:   2    -0.191744599267E+03   -0.45287E-02   -0.17809E-02 13240   0.757E-01    0.623E-01
DAV:   3    -0.191740503879E+03    0.40954E-02   -0.68277E-03 11480   0.641E-01    0.106E-01
DAV:   4    -0.191740487936E+03    0.15944E-04   -0.53006E-04  8560   0.152E-01
  27 F= -.19174049E+03 E0= -.19165504E+03  d E =-.130136E-01
       N       E                     dE             d eps       ncg     rms          rms(c)
DAV:   1    -0.191730089722E+03    0.10414E-01   -0.17977E-01  8160   0.923E-01    0.135E-01
DAV:   2    -0.191733572539E+03   -0.34828E-02   -0.10649E-02 13520   0.629E-01    0.547E-01
DAV:   3    -0.191730286270E+03    0.32863E-02   -0.51559E-03 11080   0.555E-01    0.619E-02
DAV:   4    -0.191730372054E+03   -0.85783E-04   -0.29883E-04  8520   0.115E-01
  28 F= -.19173037E+03 E0= -.19164458E+03  d E =0.101159E-01
       N       E                     dE             d eps       ncg     rms          rms(c)
DAV:   1    -0.191740614295E+03   -0.10328E-01   -0.59468E-01  8160   0.164E+00    0.214E-01
DAV:   2    -0.191742822425E+03   -0.22081E-02   -0.22446E-02 11440   0.569E-01    0.390E-01
DAV:   3    -0.191741767980E+03    0.10544E-02   -0.61262E-03 11600   0.585E-01    0.272E-01
DAV:   4    -0.191741031070E+03    0.73691E-03   -0.15629E-03 10360   0.269E-01    0.973E-02
DAV:   5    -0.191741011432E+03    0.19638E-04   -0.73930E-04 10080   0.166E-01
  29 F= -.19174101E+03 E0= -.19165594E+03  d E =-.106394E-01
       N       E                     dE             d eps       ncg     rms          rms(c)
DAV:   1    -0.191770209929E+03   -0.29179E-01   -0.15392E+00  8160   0.267E+00    0.366E-01
DAV:   2    -0.191781783034E+03   -0.11573E-01   -0.57817E-02 13560   0.123E+00    0.102E+00
DAV:   3    -0.191771271424E+03    0.10512E-01   -0.23661E-02 12160   0.115E+00    0.290E-01
DAV:   4    -0.191770659365E+03    0.61206E-03   -0.38179E-03 11160   0.323E-01    0.198E-01
DAV:   5    -0.191770354957E+03    0.30441E-03   -0.21632E-03 12680   0.305E-01    0.226E-01
DAV:   6    -0.191770070630E+03    0.28433E-03   -0.14266E-03 10160   0.310E-01    0.139E-01
DAV:   7    -0.191769856625E+03    0.21401E-03   -0.37723E-04  8400   0.129E-01    0.238E-02
DAV:   8    -0.191769851034E+03    0.55904E-05   -0.57781E-05  6600   0.313E-02
  30 F= -.19176985E+03 E0= -.19168654E+03  d E =-.288396E-01
       N       E                     dE             d eps       ncg     rms          rms(c)
DAV:   1    -0.191778092740E+03   -0.82361E-02   -0.12070E-01  8160   0.743E-01    0.878E-02
DAV:   2    -0.191778806244E+03   -0.71350E-03   -0.40737E-03 13520   0.297E-01    0.232E-01
DAV:   3    -0.191778248865E+03    0.55738E-03   -0.12213E-03 10440   0.270E-01    0.684E-02
DAV:   4    -0.191778238349E+03    0.10516E-04   -0.14219E-04  6000   0.843E-02
  31 F= -.19177824E+03 E0= -.19169533E+03  d E =-.838732E-02
       N       E                     dE             d eps       ncg     rms          rms(c)
DAV:   1    -0.191779330873E+03   -0.10820E-02   -0.21189E-01  8160   0.105E+00    0.185E-01
DAV:   2    -0.191779816187E+03   -0.48531E-03   -0.92834E-03 12040   0.408E-01    0.313E-01
DAV:   3    -0.191779291861E+03    0.52433E-03   -0.33878E-03 11320   0.469E-01    0.237E-01
DAV:   4    -0.191778668269E+03    0.62359E-03   -0.10731E-03  9680   0.233E-01    0.708E-02
DAV:   5    -0.191778708047E+03   -0.39778E-04   -0.57984E-04  9440   0.139E-01
  32 F= -.19177871E+03 E0= -.19169629E+03  d E =-.469697E-03
       N       E                     dE             d eps       ncg     rms          rms(c)
DAV:   1    -0.191822640598E+03   -0.43972E-01   -0.30792E+00  8160   0.383E+00    0.563E-01
DAV:   2    -0.191840404253E+03   -0.17764E-01   -0.12105E-01 13520   0.169E+00    0.132E+00
DAV:   3    -0.191823752771E+03    0.16651E-01   -0.43650E-02 12240   0.160E+00    0.459E-01
DAV:   4    -0.191821487711E+03    0.22651E-02   -0.83524E-03 12240   0.508E-01    0.253E-01
DAV:   5    -0.191820232482E+03    0.12552E-02   -0.39747E-03 10600   0.279E-01    0.145E-01
DAV:   6    -0.191820425326E+03   -0.19284E-03   -0.18385E-03 11600   0.309E-01    0.213E-01
DAV:   7    -0.191819935300E+03    0.49003E-03   -0.89600E-04  9840   0.247E-01    0.699E-02
DAV:   8    -0.191819922070E+03    0.13230E-04   -0.18431E-04  6880   0.107E-01
  33 F= -.19181992E+03 E0= -.19173921E+03  d E =-.412140E-01
       N       E                     dE             d eps       ncg     rms          rms(c)
DAV:   1    -0.191850430387E+03   -0.30495E-01   -0.19290E+00  8160   0.296E+00    0.329E-01
DAV:   2    -0.191859466923E+03   -0.90365E-02   -0.63715E-02 12880   0.108E+00    0.762E-01
DAV:   3    -0.191853944751E+03    0.55222E-02   -0.14703E-02 12120   0.953E-01    0.298E-01
DAV:   4    -0.191853352657E+03    0.59209E-03   -0.22372E-03 10040   0.350E-01    0.210E-01
DAV:   5    -0.191853127283E+03    0.22537E-03   -0.16626E-03 11240   0.348E-01    0.179E-01
DAV:   6    -0.191853020020E+03    0.10726E-03   -0.11837E-03 10280   0.249E-01    0.134E-01
DAV:   7    -0.191852939535E+03    0.80485E-04   -0.69425E-04  9840   0.205E-01
  34 F= -.19185294E+03 E0= -.19177406E+03  d E =-.330175E-01
       N       E                     dE             d eps       ncg     rms          rms(c)
DAV:   1    -0.191871811244E+03   -0.18791E-01   -0.64317E-01  8160   0.172E+00    0.209E-01
DAV:   2    -0.191874825100E+03   -0.30139E-02   -0.21306E-02 13480   0.631E-01    0.468E-01
DAV:   3    -0.191872708594E+03    0.21165E-02   -0.58482E-03 12240   0.595E-01    0.192E-01
DAV:   4    -0.191872462663E+03    0.24593E-03   -0.11106E-03  9840   0.214E-01    0.116E-01
DAV:   5    -0.191872346527E+03    0.11614E-03   -0.60303E-04 10000   0.177E-01    0.112E-01
DAV:   6    -0.191872313015E+03    0.33512E-04   -0.49836E-04  8880   0.181E-01
  35 F= -.19187231E+03 E0= -.19179451E+03  d E =-.193735E-01
       N       E                     dE             d eps       ncg     rms          rms(c)
DAV:   1    -0.191923149096E+03   -0.50803E-01   -0.59586E+00  8160   0.523E+00    0.598E-01
DAV:   2    -0.191954317692E+03   -0.31169E-01   -0.20073E-01 13200   0.199E+00    0.145E+00
DAV:   3    -0.191933114562E+03    0.21203E-01   -0.51874E-02 12200   0.178E+00    0.497E-01
DAV:   4    -0.191931833768E+03    0.12808E-02   -0.78822E-03 10240   0.638E-01    0.418E-01
DAV:   5    -0.191930298848E+03    0.15349E-02   -0.54370E-03 12680   0.628E-01    0.282E-01
DAV:   6    -0.191930176514E+03    0.12233E-03   -0.35558E-03 12240   0.430E-01    0.240E-01
DAV:   7    -0.191929906460E+03    0.27005E-03   -0.20756E-03 10840   0.364E-01    0.203E-01
DAV:   8    -0.191929390568E+03    0.51589E-03   -0.63326E-04  9280   0.210E-01    0.330E-02
DAV:   9    -0.191929390073E+03    0.49478E-06   -0.82331E-05  5960   0.384E-02
  36 F= -.19192939E+03 E0= -.19185419E+03  d E =-.570771E-01
       N       E                     dE             d eps       ncg     rms          rms(c)
DAV:   1    -0.192001205753E+03   -0.71815E-01   -0.28303E+01  8160   0.115E+01    0.128E+00
DAV:   2    -0.192126815461E+03   -0.12561E+00   -0.97851E-01 13120   0.390E+00    0.276E+00
DAV:   3    -0.192060288927E+03    0.66527E-01   -0.23302E-01 12200   0.365E+00    0.123E+00
DAV:   4    -0.192047346754E+03    0.12942E-01   -0.38513E-02 11200   0.143E+00    0.815E-01
DAV:   5    -0.192042107090E+03    0.52397E-02   -0.26720E-02 12720   0.135E+00    0.674E-01
DAV:   6    -0.192039959659E+03    0.21474E-02   -0.18357E-02 12720   0.103E+00    0.476E-01
DAV:   7    -0.192038242483E+03    0.17172E-02   -0.85313E-03 11920   0.694E-01    0.372E-01
DAV:   8    -0.192036520663E+03    0.17218E-02   -0.25700E-03 11880   0.437E-01    0.837E-02
DAV:   9    -0.192036450135E+03    0.70528E-04   -0.40519E-04  9720   0.915E-02
  37 F= -.19203645E+03 E0= -.19196446E+03  d E =-.107060E+00
       N       E                     dE             d eps       ncg     rms          rms(c)
DAV:   1    -0.192053693864E+03   -0.17173E-01   -0.13035E+00  8160   0.245E+00    0.293E-01
DAV:   2    -0.192058418102E+03   -0.47242E-02   -0.59496E-02 11120   0.774E-01    0.349E-01
DAV:   3    -0.192058693712E+03   -0.27561E-03   -0.83176E-03 12360   0.712E-01    0.394E-01
DAV:   4    -0.192056779731E+03    0.19140E-02   -0.27178E-03 11520   0.421E-01    0.983E-02
DAV:   5    -0.192056830065E+03   -0.50334E-04   -0.99312E-04 10480   0.153E-01
  38 F= -.19205683E+03 E0= -.19198504E+03  d E =-.203799E-01
       N       E                     dE             d eps       ncg     rms          rms(c)
DAV:   1    -0.192081886496E+03   -0.25107E-01   -0.26275E+00  8160   0.350E+00    0.404E-01
DAV:   2    -0.192090101118E+03   -0.82146E-02   -0.91618E-02 11800   0.108E+00    0.612E-01
DAV:   3    -0.192088130770E+03    0.19703E-02   -0.16446E-02 12040   0.103E+00    0.459E-01
DAV:   4    -0.192085696709E+03    0.24341E-02   -0.38503E-03 12200   0.480E-01    0.164E-01
DAV:   5    -0.192085900023E+03   -0.20331E-03   -0.21723E-03 10680   0.326E-01    0.244E-01
DAV:   6    -0.192085653084E+03    0.24694E-03   -0.18869E-03 10960   0.366E-01    0.172E-01
DAV:   7    -0.192085244746E+03    0.40834E-03   -0.65536E-04  9320   0.185E-01    0.533E-02
DAV:   8    -0.192085229815E+03    0.14931E-04   -0.11934E-04  7560   0.834E-02
  39 F= -.19208523E+03 E0= -.19201344E+03  d E =-.283998E-01
       N       E                     dE             d eps       ncg     rms          rms(c)
DAV:   1    -0.192106049505E+03   -0.20805E-01   -0.19914E+00  8160   0.303E+00    0.350E-01
DAV:   2    -0.192113075602E+03   -0.70261E-02   -0.69776E-02 11080   0.105E+00    0.565E-01
DAV:   3    -0.192110221670E+03    0.28539E-02   -0.14184E-02 12320   0.918E-01    0.348E-01
DAV:   4    -0.192109103802E+03    0.11179E-02   -0.31603E-03 11600   0.435E-01    0.192E-01
DAV:   5    -0.192108938932E+03    0.16487E-03   -0.17312E-03 10880   0.344E-01    0.190E-01
DAV:   6    -0.192108730695E+03    0.20824E-03   -0.10524E-03 10760   0.265E-01    0.117E-01
DAV:   7    -0.192108626559E+03    0.10414E-03   -0.50469E-04  8600   0.170E-01    0.946E-02
DAV:   8    -0.192108531570E+03    0.94989E-04   -0.18344E-04  7440   0.115E-01
  40 F= -.19210853E+03 E0= -.19203675E+03  d E =-.233018E-01
       N       E                     dE             d eps       ncg     rms          rms(c)
DAV:   1    -0.192113532007E+03   -0.49054E-02   -0.13614E-01  8160   0.823E-01    0.119E-01
DAV:   2    -0.192113774101E+03   -0.24209E-03   -0.53449E-03 12000   0.270E-01    0.155E-01
DAV:   3    -0.192113682421E+03    0.91680E-04   -0.11037E-03 10880   0.276E-01    0.132E-01
DAV:   4    -0.192113456832E+03    0.22559E-03   -0.43020E-04  8520   0.165E-01    0.585E-02
DAV:   5    -0.192113487333E+03   -0.30501E-04   -0.26173E-04  8200   0.129E-01
  41 F= -.19211349E+03 E0= -.19204142E+03  d E =-.495576E-02
       N       E                     dE             d eps       ncg     rms          rms(c)
DAV:   1    -0.192133861897E+03   -0.20405E-01   -0.21000E+00  8160   0.314E+00    0.381E-01
DAV:   2    -0.192142319344E+03   -0.84574E-02   -0.73634E-02 11880   0.111E+00    0.726E-01
DAV:   3    -0.192137362067E+03    0.49573E-02   -0.17410E-02 12400   0.106E+00    0.342E-01
DAV:   4    -0.192136041115E+03    0.13210E-02   -0.27432E-03 11520   0.365E-01    0.180E-01
DAV:   5    -0.192136104542E+03   -0.63428E-04   -0.20835E-03 12440   0.364E-01    0.225E-01
DAV:   6    -0.192135806733E+03    0.29781E-03   -0.14831E-03 10440   0.316E-01    0.135E-01
DAV:   7    -0.192135571410E+03    0.23532E-03   -0.56915E-04  8800   0.176E-01    0.695E-02
DAV:   8    -0.192135520934E+03    0.50477E-04   -0.13253E-04  7840   0.968E-02
  42 F= -.19213552E+03 E0= -.19206291E+03  d E =-.220336E-01
       N       E                     dE             d eps       ncg     rms          rms(c)
DAV:   1    -0.192140584375E+03   -0.50130E-02   -0.14603E-01  8160   0.844E-01    0.154E-01
DAV:   2    -0.192141364241E+03   -0.77987E-03   -0.78771E-03 11280   0.457E-01    0.292E-01
DAV:   3    -0.192140511558E+03    0.85268E-03   -0.22837E-03 12240   0.405E-01    0.127E-01
DAV:   4    -0.192140423943E+03    0.87615E-04   -0.63960E-04  8480   0.205E-01
  43 F= -.19214042E+03 E0= -.19206809E+03  d E =-.490301E-02
       N       E                     dE             d eps       ncg     rms          rms(c)
DAV:   1    -0.192151118373E+03   -0.10607E-01   -0.67166E-01  8160   0.177E+00    0.218E-01
DAV:   2    -0.192154443997E+03   -0.33256E-02   -0.22747E-02 12040   0.660E-01    0.477E-01
DAV:   3    -0.192152133494E+03    0.23105E-02   -0.53401E-03 12280   0.630E-01    0.183E-01
DAV:   4    -0.192151855272E+03    0.27822E-03   -0.94807E-04  9800   0.200E-01    0.106E-01
DAV:   5    -0.192151851815E+03    0.34564E-05   -0.67281E-04 10400   0.200E-01
  44 F= -.19215185E+03 E0= -.19207893E+03  d E =-.114279E-01
       N       E                     dE             d eps       ncg     rms          rms(c)
DAV:   1    -0.192155541512E+03   -0.36862E-02   -0.72688E-02  8160   0.601E-01    0.119E-01
DAV:   2    -0.192156691052E+03   -0.11495E-02   -0.46499E-03 12120   0.437E-01    0.320E-01
DAV:   3    -0.192155470169E+03    0.12209E-02   -0.21388E-03 10800   0.398E-01    0.745E-02
DAV:   4    -0.192155432266E+03    0.37902E-04   -0.30587E-04  8200   0.855E-02
  45 F= -.19215543E+03 E0= -.19208254E+03  d E =-.358045E-02
       N       E                     dE             d eps       ncg     rms          rms(c)
DAV:   1    -0.192168204055E+03   -0.12734E-01   -0.12392E+00  8160   0.239E+00    0.293E-01
DAV:   2    -0.192174709713E+03   -0.65057E-02   -0.44900E-02 11800   0.987E-01    0.661E-01
DAV:   3    -0.192170098574E+03    0.46111E-02   -0.11303E-02 12280   0.881E-01    0.217E-01
DAV:   4    -0.192169637502E+03    0.46107E-03   -0.12797E-03 11480   0.246E-01    0.146E-01
DAV:   5    -0.192169625190E+03    0.12312E-04   -0.11263E-03 11280   0.279E-01    0.156E-01
DAV:   6    -0.192169491789E+03    0.13340E-03   -0.74484E-04  9760   0.213E-01    0.904E-02
DAV:   7    -0.192169376544E+03    0.11525E-03   -0.28959E-04  9200   0.124E-01    0.450E-02
DAV:   8    -0.192169354177E+03    0.22367E-04   -0.55052E-05  6640   0.653E-02
  46 F= -.19216935E+03 E0= -.19209614E+03  d E =-.139219E-01
       N       E                     dE             d eps       ncg     rms          rms(c)
DAV:   1    -0.192183299583E+03   -0.13923E-01   -0.24087E+00  8160   0.332E+00    0.395E-01
DAV:   2    -0.192196000043E+03   -0.12700E-01   -0.87450E-02 12120   0.137E+00    0.890E-01
DAV:   3    -0.192187395575E+03    0.86045E-02   -0.21366E-02 12400   0.120E+00    0.298E-01
DAV:   4    -0.192186863422E+03    0.53215E-03   -0.28708E-03 11480   0.407E-01    0.243E-01
DAV:   5    -0.192186336303E+03    0.52712E-03   -0.20313E-03 11600   0.385E-01    0.161E-01
DAV:   6    -0.192186281037E+03    0.55267E-04   -0.11556E-03 10560   0.240E-01    0.125E-01
DAV:   7    -0.192186141651E+03    0.13939E-03   -0.63698E-04  9240   0.207E-01    0.958E-02
DAV:   8    -0.192186029468E+03    0.11218E-03   -0.18772E-04  7600   0.112E-01    0.193E-02
DAV:   9    -0.192186028352E+03    0.11156E-05   -0.34023E-05  6480   0.259E-02
  47 F= -.19218603E+03 E0= -.19211246E+03  d E =-.166742E-01
       N       E                     dE             d eps       ncg     rms          rms(c)
DAV:   1    -0.192191751215E+03   -0.57217E-02   -0.48028E-01  8160   0.150E+00    0.205E-01
DAV:   2    -0.192194203907E+03   -0.24527E-02   -0.21421E-02 10920   0.654E-01    0.406E-01
DAV:   3    -0.192192618635E+03    0.15853E-02   -0.44952E-03 12280   0.571E-01    0.170E-01
DAV:   4    -0.192192225164E+03    0.39347E-03   -0.73790E-04 10000   0.198E-01    0.862E-02
DAV:   5    -0.192192350516E+03   -0.12535E-03   -0.59239E-04 10360   0.212E-01    0.142E-01
DAV:   6    -0.192192129672E+03    0.22084E-03   -0.46306E-04  9120   0.175E-01    0.392E-02
DAV:   7    -0.192192125149E+03    0.45231E-05   -0.10795E-04  6240   0.760E-02
  48 F= -.19219213E+03 E0= -.19211824E+03  d E =-.609680E-02
       N       E                     dE             d eps       ncg     rms          rms(c)
DAV:   1    -0.192194331714E+03   -0.22020E-02   -0.81173E-02  8160   0.612E-01    0.959E-02
DAV:   2    -0.192194916960E+03   -0.58525E-03   -0.43048E-03 11680   0.361E-01    0.210E-01
DAV:   3    -0.192194395320E+03    0.52164E-03   -0.10981E-03 10880   0.277E-01    0.621E-02
DAV:   4    -0.192194386913E+03    0.84070E-05   -0.17120E-04  6320   0.110E-01
  49 F= -.19219439E+03 E0= -.19212067E+03  d E =-.226176E-02
       N       E                     dE             d eps       ncg     rms          rms(c)
DAV:   1    -0.192198164409E+03   -0.37691E-02   -0.29473E-01  8160   0.116E+00    0.146E-01
DAV:   2    -0.192199695233E+03   -0.15308E-02   -0.11264E-02 12000   0.451E-01    0.308E-01
DAV:   3    -0.192198728546E+03    0.96669E-03   -0.23929E-03 12360   0.423E-01    0.122E-01
DAV:   4    -0.192198574497E+03    0.15405E-03   -0.33416E-04  8360   0.124E-01    0.572E-02
DAV:   5    -0.192198607143E+03   -0.32646E-04   -0.29509E-04  8680   0.128E-01
  50 F= -.19219861E+03 E0= -.19212469E+03  d E =-.422023E-02
       N       E                     dE             d eps       ncg     rms          rms(c)
DAV:   1    -0.192201445968E+03   -0.28715E-02   -0.18439E-01  8160   0.931E-01    0.141E-01
DAV:   2    -0.192203040791E+03   -0.15948E-02   -0.90917E-03 11960   0.519E-01    0.350E-01
DAV:   3    -0.192201653274E+03    0.13875E-02   -0.27281E-03 12160   0.449E-01    0.926E-02
DAV:   4    -0.192201584635E+03    0.68639E-04   -0.34943E-04  8520   0.115E-01
  51 F= -.19220158E+03 E0= -.19212769E+03  d E =-.297749E-02
       N       E                     dE             d eps       ncg     rms          rms(c)
DAV:   1    -0.192205292399E+03   -0.36391E-02   -0.57313E-01  8160   0.163E+00    0.216E-01
DAV:   2    -0.192208539369E+03   -0.32470E-02   -0.23106E-02 12240   0.723E-01    0.475E-01
DAV:   3    -0.192206214417E+03    0.23250E-02   -0.52018E-03 12320   0.628E-01    0.165E-01
DAV:   4    -0.192205844698E+03    0.36972E-03   -0.61887E-04  9920   0.160E-01    0.689E-02
DAV:   5    -0.192206043498E+03   -0.19880E-03   -0.64886E-04 10200   0.205E-01    0.146E-01
DAV:   6    -0.192205806071E+03    0.23743E-03   -0.48145E-04  8800   0.188E-01    0.365E-02
DAV:   7    -0.192205793676E+03    0.12395E-04   -0.74826E-05  6600   0.510E-02
  52 F= -.19220579E+03 E0= -.19213169E+03  d E =-.420904E-02
       N       E                     dE             d eps       ncg     rms          rms(c)
DAV:   1    -0.192207872747E+03   -0.20667E-02   -0.26196E-01  8160   0.109E+00    0.128E-01
DAV:   2    -0.192209158513E+03   -0.12858E-02   -0.10474E-02 11440   0.443E-01    0.260E-01
DAV:   3    -0.192208458555E+03    0.69996E-03   -0.19958E-03 12520   0.373E-01    0.105E-01
DAV:   4    -0.192208373092E+03    0.85463E-04   -0.27616E-04  7840   0.139E-01
  53 F= -.19220837E+03 E0= -.19213440E+03  d E =-.257942E-02
       N       E                     dE             d eps       ncg     rms          rms(c)
DAV:   1    -0.192209676670E+03   -0.12181E-02   -0.12609E-01  8160   0.765E-01    0.115E-01
DAV:   2    -0.192210710650E+03   -0.10340E-02   -0.56363E-03 12440   0.379E-01    0.277E-01
DAV:   3    -0.192209864396E+03    0.84625E-03   -0.14370E-03 11320   0.345E-01    0.792E-02
DAV:   4    -0.192209838846E+03    0.25550E-04   -0.19908E-04  7400   0.106E-01
  54 F= -.19220984E+03 E0= -.19213585E+03  d E =-.146575E-02
       N       E                     dE             d eps       ncg     rms          rms(c)
DAV:   1    -0.192210420814E+03   -0.55642E-03   -0.27302E-02  8160   0.363E-01    0.794E-02
DAV:   2    -0.192211062623E+03   -0.64181E-03   -0.21920E-03 12160   0.327E-01    0.227E-01
DAV:   3    -0.192210387132E+03    0.67549E-03   -0.94618E-04 10880   0.272E-01    0.390E-02
DAV:   4    -0.192210423473E+03   -0.36341E-04   -0.89244E-05  5640   0.923E-02
  55 F= -.19221042E+03 E0= -.19213654E+03  d E =-.584627E-03
