<?xml version="1.0" encoding="ISO-8859-1"?>
<modeling>
 <generator>
  <i name="program" type="string">vasp </i>
  <i name="version" type="string">5.4.1  </i>
  <i name="subversion" type="string">05Feb16 (build Jul 05 2020 17:13:04) complex                          parallel </i>
  <i name="platform" type="string">IFC91_ompi </i>
  <i name="date" type="string">2024 04 25 </i>
  <i name="time" type="string">19:47:20 </i>
 </generator>
 <incar>
  <i type="int" name="ISTART">     0</i>
  <i type="string" name="PREC">normal</i>
  <i type="string" name="ALGO"> Normal</i>
  <i type="int" name="ISPIN">     1</i>
  <i type="int" name="ICHARG">     2</i>
  <i type="int" name="IBRION">     1</i>
  <i type="int" name="NSW">   100</i>
  <i type="int" name="ISIF">     3</i>
  <i type="int" name="ISYM">     0</i>
  <i name="SYMPREC">      0.00000001</i>
  <i name="POTIM">      0.50000000</i>
  <i type="logical" name="LREAL"> F  </i>
  <i type="logical" name="LPLANE"> F  </i>
  <i type="int" name="ISMEAR">     0</i>
  <i type="logical" name="LWAVE"> F  </i>
  <i type="logical" name="LCHARG"> F  </i>
  <v type="int" name="KPOINT_BSE">    -1     0     0     0</v>
 </incar>
 <kpoints>
  <generation param="Gamma">
   <v type="int" name="divisions">       8        8        1 </v>
   <v name="usershift">      0.00000000       0.00000000       0.00000000 </v>
   <v name="genvec1">      0.12500000       0.00000000       0.00000000 </v>
   <v name="genvec2">     -0.00000000       0.12500000       0.00000000 </v>
   <v name="genvec3">      0.00000000       0.00000000       1.00000000 </v>
   <v name="shift">      0.00000000       0.00000000       0.00000000 </v>
  </generation>
  <varray name="kpointlist" >
   <v>       0.00000000       0.00000000       0.00000000 </v>
   <v>       0.12500000       0.00000000       0.00000000 </v>
   <v>       0.25000000       0.00000000       0.00000000 </v>
   <v>       0.37500000       0.00000000       0.00000000 </v>
   <v>       0.50000000       0.00000000       0.00000000 </v>
   <v>       0.00000000       0.12500000       0.00000000 </v>
   <v>       0.12500000       0.12500000       0.00000000 </v>
   <v>       0.25000000       0.12500000       0.00000000 </v>
   <v>       0.37500000       0.12500000       0.00000000 </v>
   <v>       0.50000000       0.12500000       0.00000000 </v>
   <v>      -0.37500000       0.12500000       0.00000000 </v>
   <v>      -0.25000000       0.12500000       0.00000000 </v>
   <v>      -0.12500000       0.12500000       0.00000000 </v>
   <v>       0.00000000       0.25000000       0.00000000 </v>
   <v>       0.12500000       0.25000000       0.00000000 </v>
   <v>       0.25000000       0.25000000       0.00000000 </v>
   <v>       0.37500000       0.25000000       0.00000000 </v>
   <v>       0.50000000       0.25000000       0.00000000 </v>
   <v>      -0.37500000       0.25000000       0.00000000 </v>
   <v>      -0.25000000       0.25000000       0.00000000 </v>
   <v>      -0.12500000       0.25000000       0.00000000 </v>
   <v>      -0.00000000       0.37500000       0.00000000 </v>
   <v>       0.12500000       0.37500000       0.00000000 </v>
   <v>       0.25000000       0.37500000       0.00000000 </v>
   <v>       0.37500000       0.37500000       0.00000000 </v>
   <v>       0.50000000       0.37500000       0.00000000 </v>
   <v>      -0.37500000       0.37500000       0.00000000 </v>
   <v>      -0.25000000       0.37500000       0.00000000 </v>
   <v>      -0.12500000       0.37500000       0.00000000 </v>
   <v>       0.00000000       0.50000000       0.00000000 </v>
   <v>       0.12500000       0.50000000       0.00000000 </v>
   <v>       0.25000000       0.50000000       0.00000000 </v>
   <v>       0.37500000       0.50000000       0.00000000 </v>
   <v>       0.50000000       0.50000000       0.00000000 </v>
  </varray>
  <varray name="weights" >
   <v>       0.01562500 </v>
   <v>       0.03125000 </v>
   <v>       0.03125000 </v>
   <v>       0.03125000 </v>
   <v>       0.01562500 </v>
   <v>       0.03125000 </v>
   <v>       0.03125000 </v>
   <v>       0.03125000 </v>
   <v>       0.03125000 </v>
   <v>       0.03125000 </v>
   <v>       0.03125000 </v>
   <v>       0.03125000 </v>
   <v>       0.03125000 </v>
   <v>       0.03125000 </v>
   <v>       0.03125000 </v>
   <v>       0.03125000 </v>
   <v>       0.03125000 </v>
   <v>       0.03125000 </v>
   <v>       0.03125000 </v>
   <v>       0.03125000 </v>
   <v>       0.03125000 </v>
   <v>       0.03125000 </v>
   <v>       0.03125000 </v>
   <v>       0.03125000 </v>
   <v>       0.03125000 </v>
   <v>       0.03125000 </v>
   <v>       0.03125000 </v>
   <v>       0.03125000 </v>
   <v>       0.03125000 </v>
   <v>       0.01562500 </v>
   <v>       0.03125000 </v>
   <v>       0.03125000 </v>
   <v>       0.03125000 </v>
   <v>       0.01562500 </v>
  </varray>
 </kpoints>
 <parameters>
  <separator name="general" >
   <i type="string" name="SYSTEM">unknown system</i>
   <i type="logical" name="LCOMPAT"> F  </i>
  </separator>
  <separator name="electronic" >
   <i type="string" name="PREC">normal</i>
   <i name="ENMAX">    280.00000000</i>
   <i name="ENAUG">    373.43800000</i>
   <i name="EDIFF">      0.00010000</i>
   <i type="int" name="IALGO">    38</i>
   <i type="int" name="IWAVPR">    11</i>
   <i type="int" name="NBANDS">   120</i>
   <i name="NELECT">    159.00000000</i>
   <i type="int" name="TURBO">     0</i>
   <i type="int" name="IRESTART">     0</i>
   <i type="int" name="NREBOOT">     0</i>
   <i type="int" name="NMIN">     0</i>
   <i name="EREF">      0.00000000</i>
   <separator name="electronic smearing" >
    <i type="int" name="ISMEAR">     0</i>
    <i name="SIGMA">      0.20000000</i>
    <i name="KSPACING">      0.50000000</i>
    <i type="logical" name="KGAMMA"> T  </i>
   </separator>
   <separator name="electronic projectors" >
    <i type="logical" name="LREAL"> F  </i>
    <v name="ROPT">      0.00000000      0.00000000      0.00000000      0.00000000</v>
    <i type="int" name="LMAXPAW">  -100</i>
    <i type="int" name="LMAXMIX">     2</i>
    <i type="logical" name="NLSPLINE"> F  </i>
   </separator>
   <separator name="electronic startup" >
    <i type="int" name="ISTART">     0</i>
    <i type="int" name="ICHARG">     2</i>
    <i type="int" name="INIWAV">     1</i>
   </separator>
   <separator name="electronic spin" >
    <i type="int" name="ISPIN">     1</i>
    <i type="logical" name="LNONCOLLINEAR"> F  </i>
    <v name="MAGMOM">      1.00000000      1.00000000      1.00000000      1.00000000      1.00000000      1.00000000      1.00000000      1.00000000      1.00000000      1.00000000      1.00000000      1.00000000      1.00000000      1.00000000      1.00000000      1.00000000      1.00000000      1.00000000      1.00000000      1.00000000
      1.00000000      1.00000000      1.00000000      1.00000000      1.00000000      1.00000000      1.00000000</v>
    <i name="NUPDOWN">     -1.00000000</i>
    <i type="logical" name="LSORBIT"> F  </i>
    <v name="SAXIS">      0.00000000      0.00000000      1.00000000</v>
    <i type="logical" name="LSPIRAL"> F  </i>
    <v name="QSPIRAL">      0.00000000      0.00000000      0.00000000</v>
    <i type="logical" name="LZEROZ"> F  </i>
   </separator>
   <separator name="electronic exchange-correlation" >
    <i type="logical" name="LASPH"> F  </i>
    <i type="logical" name="LMETAGGA"> F  </i>
   </separator>
   <separator name="electronic convergence" >
    <i type="int" name="NELM">    60</i>
    <i type="int" name="NELMDL">    -5</i>
    <i type="int" name="NELMIN">     2</i>
    <i name="ENINI">    280.00000000</i>
    <separator name="electronic convergence detail" >
     <i type="logical" name="LDIAG"> T  </i>
     <i type="logical" name="LSUBROT"> F  </i>
     <i name="WEIMIN">      0.00100000</i>
     <i name="EBREAK">      0.00000021</i>
     <i name="DEPER">      0.30000000</i>
     <i type="int" name="NRMM">     4</i>
     <i name="TIME">      0.40000000</i>
    </separator>
   </separator>
   <separator name="electronic mixer" >
    <i name="AMIX">      0.40000000</i>
    <i name="BMIX">      1.00000000</i>
    <i name="AMIN">      0.10000000</i>
    <i name="AMIX_MAG">      1.60000000</i>
    <i name="BMIX_MAG">      1.00000000</i>
    <separator name="electronic mixer details" >
     <i type="int" name="IMIX">     4</i>
     <i type="logical" name="MIXFIRST"> F  </i>
     <i type="int" name="MAXMIX">   -45</i>
     <i name="WC">    100.00000000</i>
     <i type="int" name="INIMIX">     1</i>
     <i type="int" name="MIXPRE">     1</i>
     <i type="int" name="MREMOVE">     5</i>
    </separator>
   </separator>
   <separator name="electronic dipolcorrection" >
    <i type="logical" name="LDIPOL"> F  </i>
    <i type="logical" name="LMONO"> F  </i>
    <i type="int" name="IDIPOL">     0</i>
    <i name="EPSILON">      1.00000000</i>
    <v name="DIPOL">   -100.00000000   -100.00000000   -100.00000000</v>
    <i name="EFIELD">      0.00000000</i>
   </separator>
  </separator>
  <separator name="grids" >
   <i type="int" name="NGX">    42</i>
   <i type="int" name="NGY">    42</i>
   <i type="int" name="NGZ">   126</i>
   <i type="int" name="NGXF">    84</i>
   <i type="int" name="NGYF">    84</i>
   <i type="int" name="NGZF">   252</i>
   <i type="logical" name="ADDGRID"> F  </i>
  </separator>
  <separator name="ionic" >
   <i type="int" name="NSW">   100</i>
   <i type="int" name="IBRION">     1</i>
   <i type="int" name="ISIF">     3</i>
   <i name="PSTRESS">      0.00000000</i>
   <i name="EDIFFG">      0.00100000</i>
   <i type="int" name="NFREE">     0</i>
   <i name="POTIM">      0.50000000</i>
   <i name="SMASS">     -3.00000000</i>
   <i name="SCALEE">      1.00000000</i>
  </separator>
  <separator name="ionic md" >
   <i name="TEBEG">      0.00010000</i>
   <i name="TEEND">      0.00010000</i>
   <i type="int" name="NBLOCK">     1</i>
   <i type="int" name="KBLOCK">   100</i>
   <i type="int" name="NPACO">   256</i>
   <i name="APACO">     16.00000000</i>
  </separator>
  <separator name="symmetry" >
   <i type="int" name="ISYM">     0</i>
   <i name="SYMPREC">      0.00000001</i>
  </separator>
  <separator name="dos" >
   <i type="logical" name="LORBIT"> F  </i>
   <v name="RWIGS">     -1.00000000     -1.00000000     -1.00000000     -1.00000000</v>
   <i type="int" name="NEDOS">   301</i>
   <i name="EMIN">     10.00000000</i>
   <i name="EMAX">    -10.00000000</i>
   <i name="EFERMI">      0.00000000</i>
  </separator>
  <separator name="writing" >
   <i type="int" name="NWRITE">     2</i>
   <i type="logical" name="LWAVE"> F  </i>
   <i type="logical" name="LCHARG"> F  </i>
   <i type="logical" name="LPARD"> F  </i>
   <i type="logical" name="LVTOT"> F  </i>
   <i type="logical" name="LVHAR"> F  </i>
   <i type="logical" name="LELF"> F  </i>
   <i type="logical" name="LOPTICS"> F  </i>
   <v name="STM">      0.00000000      0.00000000      0.00000000      0.00000000      0.00000000      0.00000000      0.00000000</v>
  </separator>
  <separator name="performance" >
   <i type="int" name="NPAR">    40</i>
   <i type="int" name="NSIM">     4</i>
   <i type="int" name="NBLK">    -1</i>
   <i type="logical" name="LPLANE"> F  </i>
   <i type="logical" name="LSCALAPACK"> T  </i>
   <i type="logical" name="LSCAAWARE"> F  </i>
   <i type="logical" name="LSCALU"> F  </i>
   <i type="logical" name="LASYNC"> F  </i>
   <i type="logical" name="LORBITALREAL"> F  </i>
  </separator>
  <separator name="miscellaneous" >
   <i type="int" name="IDIOT">     3</i>
   <i type="logical" name="LMUSIC"> F  </i>
   <v name="POMASS">     50.94100000     95.94000000    183.85000000     32.06600000</v>
   <v name="DARWINR">      0.00000000      0.00000000      0.00000000      0.00000000</v>
   <v name="DARWINV">      1.00000000      1.00000000      1.00000000      1.00000000</v>
   <i type="logical" name="LCORR"> T  </i>
  </separator>
  <i type="logical" name="GGA_COMPAT"> T  </i>
  <i type="logical" name="LBERRY"> F  </i>
  <i type="int" name="ICORELEVEL">     0</i>
  <i type="logical" name="LDAU"> F  </i>
  <i type="int" name="I_CONSTRAINED_M">     0</i>
  <separator name="electronic exchange-correlation" >
   <i type="string" name="GGA">--</i>
   <i type="int" name="VOSKOWN">     0</i>
   <i type="logical" name="LHFCALC"> F  </i>
   <i type="string" name="PRECFOCK"></i>
   <i type="logical" name="LSYMGRAD"> F  </i>
   <i type="logical" name="LHFONE"> F  </i>
   <i type="logical" name="LRHFCALC"> F  </i>
   <i type="logical" name="LTHOMAS"> F  </i>
   <i type="logical" name="LMODELHF"> F  </i>
   <i name="ENCUT4O">     -1.00000000</i>
   <i type="int" name="EXXOEP">     0</i>
   <i type="int" name="FOURORBIT">     0</i>
   <i name="AEXX">      0.00000000</i>
   <i name="HFALPHA">      0.00000000</i>
   <i name="MCALPHA">      0.00000000</i>
   <i name="ALDAX">      1.00000000</i>
   <i name="AGGAX">      1.00000000</i>
   <i name="ALDAC">      1.00000000</i>
   <i name="AGGAC">      1.00000000</i>
   <i type="int" name="NKREDX">     1</i>
   <i type="int" name="NKREDY">     1</i>
   <i type="int" name="NKREDZ">     1</i>
   <i type="logical" name="SHIFTRED"> F  </i>
   <i type="logical" name="ODDONLY"> F  </i>
   <i type="logical" name="EVENONLY"> F  </i>
   <i type="int" name="LMAXFOCK">     0</i>
   <i type="int" name="NMAXFOCKAE">     0</i>
   <i type="logical" name="LFOCKAEDFT"> F  </i>
   <i name="HFSCREEN">      0.00000000</i>
   <i name="HFSCREENC">      0.00000000</i>
   <i type="int" name="NBANDSGWLOW">     0</i>
  </separator>
  <separator name="vdW DFT" >
   <i type="logical" name="LUSE_VDW"> F  </i>
   <i name="Zab_VDW">     -0.84910000</i>
   <i name="PARAM1">      0.12340000</i>
   <i name="PARAM2">      1.00000000</i>
   <i name="PARAM3">      0.00000000</i>
  </separator>
  <separator name="model GW" >
   <i type="int" name="MODEL_GW">     0</i>
   <i name="MODEL_EPS0">     58.26239943</i>
   <i name="MODEL_ALPHA">      1.00000000</i>
  </separator>
  <separator name="linear response parameters" >
   <i type="logical" name="LEPSILON"> F  </i>
   <i type="logical" name="LRPA"> F  </i>
   <i type="logical" name="LNABLA"> F  </i>
   <i type="logical" name="LVEL"> F  </i>
   <i type="int" name="KINTER">     0</i>
   <i name="CSHIFT">      0.10000000</i>
   <i name="OMEGAMAX">     -1.00000000</i>
   <i name="DEG_THRESHOLD">      0.00200000</i>
  </separator>
  <separator name="orbital magnetization" >
   <i type="logical" name="NUCIND"> F  </i>
   <v name="MAGPOS">      0.00000000      0.00000000      0.00000000</v>
   <i type="logical" name="LNICSALL"> T  </i>
   <i type="logical" name="ORBITALMAG"> F  </i>
   <i type="logical" name="LMAGBLOCH"> F  </i>
   <i type="logical" name="LCHIMAG"> F  </i>
   <i type="logical" name="LGAUGE"> T  </i>
   <i type="int" name="MAGATOM">     0</i>
   <v name="MAGDIPOL">      0.00000000      0.00000000      0.00000000</v>
   <v name="AVECCONST">      0.00000000      0.00000000      0.00000000</v>
  </separator>
  <separator name="response functions" >
   <i type="logical" name="LADDER"> F  </i>
   <i type="logical" name="LFXC"> F  </i>
   <i type="logical" name="LHARTREE"> T  </i>
   <i type="int" name="IBSE">     0</i>
   <v type="int" name="KPOINT">    -1     0     0     0</v>
   <i type="logical" name="LTCTE"> F  </i>
   <i type="logical" name="LTETE"> F  </i>
   <i type="logical" name="LTRIPLET"> F  </i>
   <i type="logical" name="LFXCEPS"> F  </i>
   <i type="logical" name="LFXHEG"> F  </i>
   <i type="int" name="NATURALO">     0</i>
   <i type="logical" name="L2ORDER"> F  </i>
   <i type="logical" name="LUSEW"> F  </i>
   <i name="ENCUTGW">     -2.00000000</i>
   <i name="ENCUTGWSOFT">     -2.00000000</i>
   <i name="ENCUTLF">     -1.00000000</i>
   <i type="int" name="LMAXMP2">    -1</i>
   <i name="SCISSOR">      0.00000000</i>
   <i type="int" name="NOMEGA">     0</i>
   <i type="int" name="NOMEGAR">     0</i>
   <i type="int" name="NBANDSGW">    -1</i>
   <i type="int" name="NBANDSO">    -1</i>
   <i type="int" name="NBANDSV">    -1</i>
   <i type="int" name="NELM">     1</i>
   <i type="int" name="NELMHF">     1</i>
   <i type="int" name="DIM">     3</i>
   <i type="int" name="ANTIRES">     0</i>
   <i name="OMEGAMAX">    -30.00000000</i>
   <i name="OMEGAMIN">    -30.00000000</i>
   <i name="OMEGATL">   -200.00000000</i>
   <i type="int" name="OMEGAGRID">     0</i>
   <i name="CSHIFT">     -0.10000000</i>
   <i type="logical" name="SELFENERGY"> F  </i>
   <i type="logical" name="LSPECTRAL"> F  </i>
   <i type="logical" name="LSPECTRALGW"> F  </i>
   <i type="logical" name="LSINGLES"> F  </i>
   <i type="logical" name="LFERMIGW"> F  </i>
   <i type="logical" name="ODDONLYGW"> F  </i>
   <i type="logical" name="EVENONLYGW"> F  </i>
   <i type="int" name="NKREDLFX">     1</i>
   <i type="int" name="NKREDLFY">     1</i>
   <i type="int" name="NKREDLFZ">     1</i>
   <i type="int" name="MAXMEM">  1800</i>
   <i type="int" name="TELESCOPE">     0</i>
   <i type="int" name="TAUPAR">     1</i>
   <i type="int" name="OMEGAPAR">    -1</i>
   <i name="LAMBDA">      1.00000000</i>
  </separator>
  <separator name="External order field" >
   <i name="OFIELD_KAPPA">      0.00000000</i>
   <v name="OFIELD_K">      0.00000000      0.00000000      0.00000000</v>
   <i name="OFIELD_Q6_NEAR">      0.00000000</i>
   <i name="OFIELD_Q6_FAR">      0.00000000</i>
   <i name="OFIELD_A">      0.00000000</i>
  </separator>
 </parameters>
 <atominfo>
  <atoms>      27 </atoms>
  <types>       4 </types>
  <array name="atoms" >
   <dimension dim="1">ion</dimension>
   <field type="string">element</field>
   <field type="int">atomtype</field>
   <set>
    <rc><c>V </c><c>   1</c></rc>
    <rc><c>V </c><c>   1</c></rc>
    <rc><c>V </c><c>   1</c></rc>
    <rc><c>Mo</c><c>   2</c></rc>
    <rc><c>Mo</c><c>   2</c></rc>
    <rc><c>Mo</c><c>   2</c></rc>
    <rc><c>W </c><c>   3</c></rc>
    <rc><c>W </c><c>   3</c></rc>
    <rc><c>W </c><c>   3</c></rc>
    <rc><c>S </c><c>   4</c></rc>
    <rc><c>S </c><c>   4</c></rc>
    <rc><c>S </c><c>   4</c></rc>
    <rc><c>S </c><c>   4</c></rc>
    <rc><c>S </c><c>   4</c></rc>
    <rc><c>S </c><c>   4</c></rc>
    <rc><c>S </c><c>   4</c></rc>
    <rc><c>S </c><c>   4</c></rc>
    <rc><c>S </c><c>   4</c></rc>
    <rc><c>S </c><c>   4</c></rc>
    <rc><c>S </c><c>   4</c></rc>
    <rc><c>S </c><c>   4</c></rc>
    <rc><c>S </c><c>   4</c></rc>
    <rc><c>S </c><c>   4</c></rc>
    <rc><c>S </c><c>   4</c></rc>
    <rc><c>S </c><c>   4</c></rc>
    <rc><c>S </c><c>   4</c></rc>
    <rc><c>S </c><c>   4</c></rc>
   </set>
  </array>
  <array name="atomtypes" >
   <dimension dim="1">type</dimension>
   <field type="int">atomspertype</field>
   <field type="string">element</field>
   <field>mass</field>
   <field>valence</field>
   <field type="string">pseudopotential</field>
   <set>
    <rc><c>   3</c><c>V </c><c>     50.94100000</c><c>      5.00000000</c><c> PAW_PBE V 08Apr2002                    </c></rc>
    <rc><c>   3</c><c>Mo</c><c>     95.94000000</c><c>      6.00000000</c><c> PAW_PBE Mo 08Apr2002                   </c></rc>
    <rc><c>   3</c><c>W </c><c>    183.85000000</c><c>      6.00000000</c><c> PAW_PBE W 08Apr2002                    </c></rc>
    <rc><c>  18</c><c>S </c><c>     32.06600000</c><c>      6.00000000</c><c>  PAW_PBE S 17Jan2003                   </c></rc>
   </set>
  </array>
 </atominfo>
 <structure name="initialpos" >
  <crystal>
   <varray name="basis" >
    <v>       8.66999996       5.03999989       0.00000000 </v>
    <v>      -8.66999982       5.04000013       0.00000000 </v>
    <v>       0.00000000       0.00000000      30.00000000 </v>
   </varray>
   <i name="volume">   2621.80797419 </i>
   <varray name="rec_basis" >
    <v>       0.05767013       0.09920635       0.00000000 </v>
    <v>      -0.05767013       0.09920635       0.00000000 </v>
    <v>       0.00000000       0.00000000       0.03333333 </v>
   </varray>
  </crystal>
  <varray name="positions" >
   <v>       1.00000000       0.33333334       0.00000000 </v>
   <v>       0.33333334       0.66666669       0.00000000 </v>
   <v>       0.66666669       0.33333334       0.00000000 </v>
   <v>       0.00000000       0.66666669       0.00000000 </v>
   <v>       0.33333334       0.00000000       0.00000000 </v>
   <v>       0.33333334       0.33333334       0.00000000 </v>
   <v>       0.00000000       0.00000000       0.00000000 </v>
   <v>       0.66666669       0.00000000       0.00000000 </v>
   <v>       0.66666669       0.66666669       0.00000000 </v>
   <v>       0.11068511       0.22244981       0.95539999 </v>
   <v>       0.22244981       0.11068511       0.04460000 </v>
   <v>       0.11068511       0.55578315       0.95539999 </v>
   <v>       0.22244981       0.44401845       0.04460000 </v>
   <v>       0.11068511       0.88911647       0.95539999 </v>
   <v>       0.22244981       0.77735180       0.04460000 </v>
   <v>       0.44401845       0.22244981       0.95539999 </v>
   <v>       0.55578315       0.11068511       0.04460000 </v>
   <v>       0.44401845       0.55578315       0.95539999 </v>
   <v>       0.55578315       0.44401845       0.04460000 </v>
   <v>       0.44401845       0.88911647       0.95539999 </v>
   <v>       0.55578315       0.77735180       0.04460000 </v>
   <v>       0.77735180       0.22244981       0.95539999 </v>
   <v>       0.88911647       0.11068511       0.04460000 </v>
   <v>       0.77735180       0.55578315       0.95539999 </v>
   <v>       0.88911647       0.44401845       0.04460000 </v>
   <v>       0.77735180       0.88911647       0.95539999 </v>
   <v>       0.88911647       0.77735180       0.04460000 </v>
  </varray>
 </structure>
 <calculation>
  <scstep>
   <time name="dav">   21.55   21.61</time>
   <time name="total">   21.60   21.66</time>
   <energy>
    <i name="alphaZ">     81.65567618 </i>
    <i name="ewald">  41890.23011113 </i>
    <i name="hartreedc"> -47722.87377924 </i>
    <i name="XCdc">   -242.92719027 </i>
    <i name="pawpsdc">   3467.42045192 </i>
    <i name="pawaedc">  -2871.19716117 </i>
    <i name="eentropy">     -0.53396173 </i>
    <i name="bandstr">   -238.93942226 </i>
    <i name="atom">   6761.44252427 </i>
    <i name="e_fr_energy">   1124.27724883 </i>
    <i name="e_wo_entrp">   1124.81121055 </i>
    <i name="e_0_energy">   1124.54422969 </i>
   </energy>
  </scstep>
  <scstep>
   <time name="dav">   27.73   27.80</time>
   <time name="total">   27.74   27.81</time>
   <energy>
    <i name="e_fr_energy">     -1.96114334 </i>
    <i name="e_wo_entrp">     -1.77312323 </i>
    <i name="e_0_energy">     -1.86713328 </i>
   </energy>
  </scstep>
  <scstep>
   <time name="dav">   27.42   27.49</time>
   <time name="total">   27.42   27.50</time>
   <energy>
    <i name="e_fr_energy">   -199.81899260 </i>
    <i name="e_wo_entrp">   -199.54561408 </i>
    <i name="e_0_energy">   -199.68230334 </i>
   </energy>
  </scstep>
  <scstep>
   <time name="dav">   29.56   29.63</time>
   <time name="total">   29.56   29.64</time>
   <energy>
    <i name="e_fr_energy">   -208.95851521 </i>
    <i name="e_wo_entrp">   -208.64939604 </i>
    <i name="e_0_energy">   -208.80395563 </i>
   </energy>
  </scstep>
  <scstep>
   <time name="dav">   28.55   28.62</time>
   <time name="total">   29.01   29.09</time>
   <energy>
    <i name="e_fr_energy">   -209.30752976 </i>
    <i name="e_wo_entrp">   -209.00160226 </i>
    <i name="e_0_energy">   -209.15456601 </i>
   </energy>
  </scstep>
  <scstep>
   <time name="dav">   30.72   30.79</time>
   <time name="total">   31.22   31.30</time>
   <energy>
    <i name="e_fr_energy">   -236.79409934 </i>
    <i name="e_wo_entrp">   -236.51135032 </i>
    <i name="e_0_energy">   -236.65272483 </i>
   </energy>
  </scstep>
  <scstep>
   <time name="dav">   32.40   32.48</time>
   <time name="total">   32.91   33.00</time>
   <energy>
    <i name="e_fr_energy">   -196.50405232 </i>
    <i name="e_wo_entrp">   -196.19178993 </i>
    <i name="e_0_energy">   -196.34792113 </i>
   </energy>
  </scstep>
  <scstep>
   <time name="dav">   29.48   29.56</time>
   <time name="total">   29.99   30.07</time>
   <energy>
    <i name="e_fr_energy">   -189.48262457 </i>
    <i name="e_wo_entrp">   -189.19291566 </i>
    <i name="e_0_energy">   -189.33777012 </i>
   </energy>
  </scstep>
  <scstep>
   <time name="dav">   30.67   30.74</time>
   <time name="total">   31.19   31.27</time>
   <energy>
    <i name="e_fr_energy">   -188.17097209 </i>
    <i name="e_wo_entrp">   -187.83235695 </i>
    <i name="e_0_energy">   -188.00166452 </i>
   </energy>
  </scstep>
  <scstep>
   <time name="dav">   32.50   32.58</time>
   <time name="total">   33.03   33.12</time>
   <energy>
    <i name="e_fr_energy">   -187.03027290 </i>
    <i name="e_wo_entrp">   -186.68384192 </i>
    <i name="e_0_energy">   -186.85705741 </i>
   </energy>
  </scstep>
  <scstep>
   <time name="dav">   30.19   30.26</time>
   <time name="total">   30.73   30.81</time>
   <energy>
    <i name="e_fr_energy">   -186.94330215 </i>
    <i name="e_wo_entrp">   -186.59246726 </i>
    <i name="e_0_energy">   -186.76788470 </i>
   </energy>
  </scstep>
  <scstep>
   <time name="dav">   30.24   30.31</time>
   <time name="total">   30.77   30.85</time>
   <energy>
    <i name="e_fr_energy">   -187.05262624 </i>
    <i name="e_wo_entrp">   -186.71547378 </i>
    <i name="e_0_energy">   -186.88405001 </i>
   </energy>
  </scstep>
  <scstep>
   <time name="dav">   30.96   31.04</time>
   <time name="total">   31.50   31.58</time>
   <energy>
    <i name="e_fr_energy">   -186.87853639 </i>
    <i name="e_wo_entrp">   -186.54043471 </i>
    <i name="e_0_energy">   -186.70948555 </i>
   </energy>
  </scstep>
  <scstep>
   <time name="dav">   31.46   31.53</time>
   <time name="total">   31.99   32.08</time>
   <energy>
    <i name="e_fr_energy">   -186.84341798 </i>
    <i name="e_wo_entrp">   -186.49839935 </i>
    <i name="e_0_energy">   -186.67090866 </i>
   </energy>
  </scstep>
  <scstep>
   <time name="dav">   29.61   29.68</time>
   <time name="total">   30.15   30.23</time>
   <energy>
    <i name="e_fr_energy">   -186.83880623 </i>
    <i name="e_wo_entrp">   -186.49185011 </i>
    <i name="e_0_energy">   -186.66532817 </i>
   </energy>
  </scstep>
  <scstep>
   <time name="dav">   31.06   31.13</time>
   <time name="total">   31.59   31.68</time>
   <energy>
    <i name="e_fr_energy">   -186.82872818 </i>
    <i name="e_wo_entrp">   -186.48175782 </i>
    <i name="e_0_energy">   -186.65524300 </i>
   </energy>
  </scstep>
  <scstep>
   <time name="dav">   30.80   30.87</time>
   <time name="total">   31.34   31.42</time>
   <energy>
    <i name="e_fr_energy">   -186.82665046 </i>
    <i name="e_wo_entrp">   -186.48165496 </i>
    <i name="e_0_energy">   -186.65415271 </i>
   </energy>
  </scstep>
  <scstep>
   <time name="dav">   28.87   28.94</time>
   <time name="total">   29.41   29.49</time>
   <energy>
    <i name="e_fr_energy">   -186.82627005 </i>
    <i name="e_wo_entrp">   -186.48119986 </i>
    <i name="e_0_energy">   -186.65373495 </i>
   </energy>
  </scstep>
  <scstep>
   <time name="dav">   25.71   25.77</time>
   <time name="total">   26.25   26.32</time>
   <energy>
    <i name="e_fr_energy">   -186.82585899 </i>
    <i name="e_wo_entrp">   -186.48036596 </i>
    <i name="e_0_energy">   -186.65311248 </i>
   </energy>
  </scstep>
  <scstep>
   <time name="dav">   23.77   23.83</time>
   <time name="total">   24.30   24.37</time>
   <energy>
    <i name="e_fr_energy">   -186.82655173 </i>
    <i name="e_wo_entrp">   -186.48115548 </i>
    <i name="e_0_energy">   -186.65385360 </i>
   </energy>
  </scstep>
  <scstep>
   <time name="dav">   21.42   21.48</time>
   <time name="total">   21.96   22.02</time>
   <energy>
    <i name="e_fr_energy">   -186.82715369 </i>
    <i name="e_wo_entrp">   -186.48198604 </i>
    <i name="e_0_energy">   -186.65456987 </i>
   </energy>
  </scstep>
  <scstep>
   <time name="dav">   20.41   20.46</time>
   <time name="total">   20.94   21.00</time>
   <energy>
    <i name="e_fr_energy">   -186.82830509 </i>
    <i name="e_wo_entrp">   -186.48298186 </i>
    <i name="e_0_energy">   -186.65564348 </i>
   </energy>
  </scstep>
  <scstep>
   <time name="dav">   20.11   20.16</time>
   <time name="total">   20.66   21.07</time>
   <energy>
    <i name="e_fr_energy">   -186.82957333 </i>
    <i name="e_wo_entrp">   -186.48435333 </i>
    <i name="e_0_energy">   -186.65696333 </i>
   </energy>
  </scstep>
  <scstep>
   <time name="dav">   18.71   18.76</time>
   <time name="total">   19.25   19.31</time>
   <energy>
    <i name="e_fr_energy">   -186.83016443 </i>
    <i name="e_wo_entrp">   -186.48493845 </i>
    <i name="e_0_energy">   -186.65755144 </i>
   </energy>
  </scstep>
  <scstep>
   <time name="dav">   16.34   16.38</time>
   <time name="total">   16.88   16.93</time>
   <energy>
    <i name="e_fr_energy">   -186.83055398 </i>
    <i name="e_wo_entrp">   -186.48527951 </i>
    <i name="e_0_energy">   -186.65791675 </i>
   </energy>
  </scstep>
  <scstep>
   <time name="dav">   18.98   19.03</time>
   <time name="total">   19.52   19.57</time>
   <energy>
    <i name="e_fr_energy">   -186.83076690 </i>
    <i name="e_wo_entrp">   -186.48550896 </i>
    <i name="e_0_energy">   -186.65813793 </i>
   </energy>
  </scstep>
  <scstep>
   <time name="dav">   19.13   19.18</time>
   <time name="total">   19.67   19.73</time>
   <energy>
    <i name="e_fr_energy">   -186.83087275 </i>
    <i name="e_wo_entrp">   -186.48561712 </i>
    <i name="e_0_energy">   -186.65824493 </i>
   </energy>
  </scstep>
  <scstep>
   <time name="dav">   19.75   19.80</time>
   <time name="total">   19.79   19.84</time>
   <energy>
    <i name="alphaZ">     81.65567618 </i>
    <i name="ewald">  41890.23011113 </i>
    <i name="hartreedc"> -47832.87337389 </i>
    <i name="XCdc">   -231.61161009 </i>
    <i name="pawpsdc">   4192.03045993 </i>
    <i name="pawaedc">  -3610.03286377 </i>
    <i name="eentropy">     -0.34525434 </i>
    <i name="bandstr">  -1437.32658739 </i>
    <i name="atom">   6761.44252427 </i>
    <i name="e_fr_energy">   -186.83091798 </i>
    <i name="e_wo_entrp">   -186.48566365 </i>
    <i name="e_0_energy">   -186.65829081 </i>
   </energy>
  </scstep>
  <structure>
   <crystal>
    <varray name="basis" >
     <v>       8.66999996       5.03999989       0.00000000 </v>
     <v>      -8.66999982       5.04000013       0.00000000 </v>
     <v>       0.00000000       0.00000000      30.00000000 </v>
    </varray>
    <i name="volume">   2621.80797419 </i>
    <varray name="rec_basis" >
     <v>       0.05767013       0.09920635       0.00000000 </v>
     <v>      -0.05767013       0.09920635       0.00000000 </v>
     <v>       0.00000000       0.00000000       0.03333333 </v>
    </varray>
   </crystal>
   <varray name="positions" >
    <v>       1.00000000       0.33333334       0.00000000 </v>
    <v>       0.33333334       0.66666669       0.00000000 </v>
    <v>       0.66666669       0.33333334       0.00000000 </v>
    <v>       0.00000000       0.66666669       0.00000000 </v>
    <v>       0.33333334       0.00000000       0.00000000 </v>
    <v>       0.33333334       0.33333334       0.00000000 </v>
    <v>       0.00000000       0.00000000       0.00000000 </v>
    <v>       0.66666669       0.00000000       0.00000000 </v>
    <v>       0.66666669       0.66666669       0.00000000 </v>
    <v>       0.11068511       0.22244981       0.95539999 </v>
    <v>       0.22244981       0.11068511       0.04460000 </v>
    <v>       0.11068511       0.55578315       0.95539999 </v>
    <v>       0.22244981       0.44401845       0.04460000 </v>
    <v>       0.11068511       0.88911647       0.95539999 </v>
    <v>       0.22244981       0.77735180       0.04460000 </v>
    <v>       0.44401845       0.22244981       0.95539999 </v>
    <v>       0.55578315       0.11068511       0.04460000 </v>
    <v>       0.44401845       0.55578315       0.95539999 </v>
    <v>       0.55578315       0.44401845       0.04460000 </v>
    <v>       0.44401845       0.88911647       0.95539999 </v>
    <v>       0.55578315       0.77735180       0.04460000 </v>
    <v>       0.77735180       0.22244981       0.95539999 </v>
    <v>       0.88911647       0.11068511       0.04460000 </v>
    <v>       0.77735180       0.55578315       0.95539999 </v>
    <v>       0.88911647       0.44401845       0.04460000 </v>
    <v>       0.77735180       0.88911647       0.95539999 </v>
    <v>       0.88911647       0.77735180       0.04460000 </v>
   </varray>
  </structure>
  <varray name="forces" >
   <v>      -0.08639294       0.28675089       0.04295928 </v>
   <v>      -0.21584914      -0.18917875       0.10087728 </v>
   <v>      -0.13298631      -0.07591061      -0.08298268 </v>
   <v>       0.05859964       0.23849986       0.05660551 </v>
   <v>      -0.25031782      -0.13919088      -0.12519167 </v>
   <v>       0.23270585      -0.14562829      -0.01546055 </v>
   <v>       0.54952131       0.34721258      -0.01413658 </v>
   <v>      -0.35743942      -0.12278524      -0.03251419 </v>
   <v>       0.28946412      -0.21308092       0.07898238 </v>
   <v>      -0.66679337      -0.16045600      -2.10803399 </v>
   <v>      -0.23512833      -0.15511358       2.92980769 </v>
   <v>       0.89538404      -0.00308478      -1.47841611 </v>
   <v>      -0.91226716       0.01409029       1.46714645 </v>
   <v>      -0.04676190       0.01695344      -2.95726105 </v>
   <v>       0.77628758      -0.01148015       2.11739775 </v>
   <v>       0.53490621       0.70694097      -2.17049803 </v>
   <v>      -0.35877306       0.70455744       2.14417475 </v>
   <v>      -0.66579585       0.14769369      -2.07511121 </v>
   <v>       0.64363780       0.16511888       2.12702297 </v>
   <v>       0.60543533      -0.53981582      -2.14336450 </v>
   <v>      -0.46861836      -0.59040122       2.19654335 </v>
   <v>      -0.25905277       0.51367749      -1.44233623 </v>
   <v>      -0.45690378       0.55431397       2.12934395 </v>
   <v>       0.38665481      -0.71932390      -2.17792488 </v>
   <v>       0.32189429      -0.65792497       1.39016090 </v>
   <v>       0.12944310       0.03321500      -2.86512870 </v>
   <v>      -0.31085388      -0.00564941       2.90733812 </v>
  </varray>
  <varray name="stress" >
   <v>       7.37211188      -0.00714648      -1.56208122 </v>
   <v>      -0.00714648       4.36556058       0.01779688 </v>
   <v>      -1.56208120       0.01779682      30.33019535 </v>
  </varray>
  <energy>
   <i name="e_fr_energy">   -186.83091798 </i>
   <i name="e_wo_entrp">   -186.65829081 </i>
   <i name="e_0_energy">     -0.34525434 </i>
  </energy>
  <time name="totalsc">  792.43  794.92</time>
 </calculation>
 <calculation>
  <scstep>
   <time name="dav">   21.50   21.55</time>
   <time name="total">   22.04   22.10</time>
   <energy>
    <i name="alphaZ">     78.92529214 </i>
    <i name="ewald">  39381.21402679 </i>
    <i name="hartreedc"> -45338.66832611 </i>
    <i name="XCdc">   -239.06969746 </i>
    <i name="pawpsdc">   4192.03111140 </i>
    <i name="pawaedc">  -3610.03350896 </i>
    <i name="eentropy">     -0.28613371 </i>
    <i name="bandstr">  -1413.02071487 </i>
    <i name="atom">   6761.44252427 </i>
    <i name="e_fr_energy">   -187.46542650 </i>
    <i name="e_wo_entrp">   -187.17929279 </i>
    <i name="e_0_energy">   -187.32235964 </i>
   </energy>
  </scstep>
  <scstep>
   <time name="dav">   30.07   30.14</time>
   <time name="total">   30.60   30.68</time>
   <energy>
    <i name="e_fr_energy">   -189.36646839 </i>
    <i name="e_wo_entrp">   -189.04499887 </i>
    <i name="e_0_energy">   -189.20573363 </i>
   </energy>
  </scstep>
  <scstep>
   <time name="dav">   30.40   30.47</time>
   <time name="total">   30.95   31.03</time>
   <energy>
    <i name="e_fr_energy">   -189.35186845 </i>
    <i name="e_wo_entrp">   -189.07151328 </i>
    <i name="e_0_energy">   -189.21169087 </i>
   </energy>
  </scstep>
  <scstep>
   <time name="dav">   30.85   30.93</time>
   <time name="total">   31.39   31.48</time>
   <energy>
    <i name="e_fr_energy">   -188.73561334 </i>
    <i name="e_wo_entrp">   -188.45062377 </i>
    <i name="e_0_energy">   -188.59311856 </i>
   </energy>
  </scstep>
  <scstep>
   <time name="dav">   29.86   29.93</time>
   <time name="total">   30.40   30.49</time>
   <energy>
    <i name="e_fr_energy">   -188.76018095 </i>
    <i name="e_wo_entrp">   -188.46957692 </i>
    <i name="e_0_energy">   -188.61487894 </i>
   </energy>
  </scstep>
  <scstep>
   <time name="dav">   31.01   31.09</time>
   <time name="total">   31.56   31.64</time>
   <energy>
    <i name="e_fr_energy">   -188.74791789 </i>
    <i name="e_wo_entrp">   -188.45733189 </i>
    <i name="e_0_energy">   -188.60262489 </i>
   </energy>
  </scstep>
  <scstep>
   <time name="dav">   31.37   31.45</time>
   <time name="total">   31.92   32.00</time>
   <energy>
    <i name="e_fr_energy">   -188.66578145 </i>
    <i name="e_wo_entrp">   -188.38090879 </i>
    <i name="e_0_energy">   -188.52334512 </i>
   </energy>
  </scstep>
  <scstep>
   <time name="dav">   26.82   26.88</time>
   <time name="total">   27.36   27.44</time>
   <energy>
    <i name="e_fr_energy">   -188.64932952 </i>
    <i name="e_wo_entrp">   -188.36395358 </i>
    <i name="e_0_energy">   -188.50664155 </i>
   </energy>
  </scstep>
  <scstep>
   <time name="dav">   29.62   29.69</time>
   <time name="total">   30.17   30.24</time>
   <energy>
    <i name="e_fr_energy">   -188.64517014 </i>
    <i name="e_wo_entrp">   -188.35988380 </i>
    <i name="e_0_energy">   -188.50252697 </i>
   </energy>
  </scstep>
  <scstep>
   <time name="dav">   31.74   31.81</time>
   <time name="total">   32.28   32.37</time>
   <energy>
    <i name="e_fr_energy">   -188.64659360 </i>
    <i name="e_wo_entrp">   -188.36099426 </i>
    <i name="e_0_energy">   -188.50379393 </i>
   </energy>
  </scstep>
  <scstep>
   <time name="dav">   31.98   32.06</time>
   <time name="total">   32.53   32.61</time>
   <energy>
    <i name="e_fr_energy">   -188.64463707 </i>
    <i name="e_wo_entrp">   -188.36008188 </i>
    <i name="e_0_energy">   -188.50235948 </i>
   </energy>
  </scstep>
  <scstep>
   <time name="dav">   29.15   29.22</time>
   <time name="total">   29.19   29.27</time>
   <energy>
    <i name="alphaZ">     78.92529214 </i>
    <i name="ewald">  39381.21402679 </i>
    <i name="hartreedc"> -45349.61536908 </i>
    <i name="XCdc">   -237.97695945 </i>
    <i name="pawpsdc">   3951.58902581 </i>
    <i name="pawaedc">  -3366.10653550 </i>
    <i name="eentropy">     -0.28471286 </i>
    <i name="bandstr">  -1407.83202711 </i>
    <i name="atom">   6761.44252427 </i>
    <i name="e_fr_energy">   -188.64473498 </i>
    <i name="e_wo_entrp">   -188.36002212 </i>
    <i name="e_0_energy">   -188.50237855 </i>
   </energy>
  </scstep>
  <structure>
   <crystal>
    <varray name="basis" >
     <v>       8.85677720       5.10415091       0.00000000 </v>
     <v>      -8.85698768       5.10451348       0.00000000 </v>
     <v>       0.00000000       0.00000000      30.00000000 </v>
    </varray>
    <i name="volume">   2712.50821030 </i>
    <varray name="rec_basis" >
     <v>       0.05645528       0.09795717       0.00000000 </v>
     <v>      -0.05645127       0.09795484       0.00000000 </v>
     <v>       0.00000000       0.00000000       0.03333333 </v>
    </varray>
   </crystal>
   <varray name="positions" >
    <v>       1.00113202       0.33494609       0.00006908 </v>
    <v>       0.33182741       0.66636181       0.00016222 </v>
    <v>       0.66593339       0.33334003      -0.00013344 </v>
    <v>       0.00130449       0.66764511       0.00009103 </v>
    <v>       0.33197075       0.00003026      -0.00020132 </v>
    <v>       0.33328379       0.33198894      -0.00002486 </v>
    <v>       0.00319061       0.00013290      -0.00002273 </v>
    <v>       0.66508459       0.00040681      -0.00005229 </v>
    <v>       0.66645222       0.66484155       0.00012701 </v>
    <v>       0.10806205       0.22353700       0.95201008 </v>
    <v>       0.22105327       0.11059690       0.04931139 </v>
    <v>       0.11316145       0.55327729       0.95302257 </v>
    <v>       0.21997917       0.44662396       0.04695930 </v>
    <v>       0.11063615       0.88932770       0.95064445 </v>
    <v>       0.22455462       0.77513710       0.04800496 </v>
    <v>       0.44889005       0.22434502       0.95190964 </v>
    <v>       0.55815698       0.11505527       0.04804802 </v>
    <v>       0.44287296       0.55834236       0.95206303 </v>
    <v>       0.55836411       0.44301801       0.04802044 </v>
    <v>       0.44311932       0.88484850       0.95195327 </v>
    <v>       0.55165373       0.77582992       0.04813223 </v>
    <v>       0.77908952       0.22562898       0.95308059 </v>
    <v>       0.89049822       0.11460922       0.04802417 </v>
    <v>       0.77498486       0.55126475       0.95189769 </v>
    <v>       0.88686321       0.43997408       0.04683550 </v>
    <v>       0.77787089       0.88891530       0.95079261 </v>
    <v>       0.88822458       0.77818960       0.04927526 </v>
   </varray>
  </structure>
  <varray name="forces" >
   <v>      -0.04913655       0.20054911       0.10380392 </v>
   <v>      -0.14553859      -0.08732132       0.04593241 </v>
   <v>      -0.13668325      -0.07649716      -0.02790960 </v>
   <v>      -0.27184769       0.36989975       0.08936383 </v>
   <v>      -0.41729190      -0.23513927      -0.02874166 </v>
   <v>       0.30798821      -0.23205333      -0.08876918 </v>
   <v>       0.65153906       0.29973179      -0.01305971 </v>
   <v>      -0.20324326      -0.16943471       0.00644816 </v>
   <v>       0.19854913      -0.07171631      -0.07648647 </v>
   <v>       0.01299497      -0.10819680       0.01874772 </v>
   <v>      -0.03790190      -0.10606718       0.24136227 </v>
   <v>       0.03417820      -0.00365102       0.01992612 </v>
   <v>      -0.03919468      -0.00031011      -0.06587792 </v>
   <v>      -0.12583944       0.00982299      -0.28031535 </v>
   <v>       0.05881718       0.00659603       0.10311556 </v>
   <v>       0.03905022       0.07362596      -0.12567930 </v>
   <v>       0.10274888       0.05409851      -0.06121183 </v>
   <v>       0.01882835       0.10583412       0.13228976 </v>
   <v>       0.00423134       0.10517325       0.07785056 </v>
   <v>       0.07532070       0.05052320       0.00878633 </v>
   <v>       0.04252333       0.04211523      -0.09904868 </v>
   <v>       0.03925090      -0.07255071       0.10045674 </v>
   <v>       0.05530650      -0.07691622      -0.26272904 </v>
   <v>      -0.08613720      -0.06213711       0.02549418 </v>
   <v>       0.00871516      -0.03658556      -0.14679154 </v>
   <v>      -0.00734756       0.01292911       0.25587774 </v>
   <v>      -0.12988011       0.00767776       0.04716497 </v>
  </varray>
  <varray name="stress" >
   <v>     -19.95265651       0.00269323       0.06413556 </v>
   <v>       0.00269317     -19.49860577      -0.00791517 </v>
   <v>       0.06413540      -0.00791527      -1.79385609 </v>
  </varray>
  <energy>
   <i name="e_fr_energy">   -188.64473498 </i>
   <i name="e_wo_entrp">   -188.50237855 </i>
   <i name="e_0_energy">     -0.28471286 </i>
  </energy>
  <time name="totalsc">  402.51  403.57</time>
 </calculation>
 <calculation>
  <scstep>
   <time name="dav">   23.68   23.74</time>
   <time name="total">   24.22   24.28</time>
   <energy>
    <i name="alphaZ">     82.35760944 </i>
    <i name="ewald">  41308.72829697 </i>
    <i name="hartreedc"> -47307.79648989 </i>
    <i name="XCdc">   -233.84662254 </i>
    <i name="pawpsdc">   3950.49867161 </i>
    <i name="pawaedc">  -3365.00395641 </i>
    <i name="eentropy">     -0.23750391 </i>
    <i name="bandstr">  -1386.71257067 </i>
    <i name="atom">   6761.44252427 </i>
    <i name="e_fr_energy">   -190.57004112 </i>
    <i name="e_wo_entrp">   -190.33253722 </i>
    <i name="e_0_energy">   -190.45128917 </i>
   </energy>
  </scstep>
  <scstep>
   <time name="dav">   28.11   28.18</time>
   <time name="total">   28.63   28.71</time>
   <energy>
    <i name="e_fr_energy">   -190.55456909 </i>
    <i name="e_wo_entrp">   -190.31213990 </i>
    <i name="e_0_energy">   -190.43335450 </i>
   </energy>
  </scstep>
  <scstep>
   <time name="dav">   30.14   30.21</time>
   <time name="total">   30.67   30.75</time>
   <energy>
    <i name="e_fr_energy">   -190.04269131 </i>
    <i name="e_wo_entrp">   -189.79396270 </i>
    <i name="e_0_energy">   -189.91832700 </i>
   </energy>
  </scstep>
  <scstep>
   <time name="dav">   31.13   31.20</time>
   <time name="total">   31.66   31.74</time>
   <energy>
    <i name="e_fr_energy">   -189.83598012 </i>
    <i name="e_wo_entrp">   -189.59618276 </i>
    <i name="e_0_energy">   -189.71608144 </i>
   </energy>
  </scstep>
  <scstep>
   <time name="dav">   28.82   28.89</time>
   <time name="total">   29.35   29.43</time>
   <energy>
    <i name="e_fr_energy">   -189.74826172 </i>
    <i name="e_wo_entrp">   -189.50637615 </i>
    <i name="e_0_energy">   -189.62731893 </i>
   </energy>
  </scstep>
  <scstep>
   <time name="dav">   26.51   26.58</time>
   <time name="total">   27.04   27.12</time>
   <energy>
    <i name="e_fr_energy">   -189.73283175 </i>
    <i name="e_wo_entrp">   -189.49190349 </i>
    <i name="e_0_energy">   -189.61236762 </i>
   </energy>
  </scstep>
  <scstep>
   <time name="dav">   30.21   30.29</time>
   <time name="total">   30.75   30.83</time>
   <energy>
    <i name="e_fr_energy">   -189.73428933 </i>
    <i name="e_wo_entrp">   -189.49304529 </i>
    <i name="e_0_energy">   -189.61366731 </i>
   </energy>
  </scstep>
  <scstep>
   <time name="dav">   29.40   29.48</time>
   <time name="total">   29.94   30.02</time>
   <energy>
    <i name="e_fr_energy">   -189.73299004 </i>
    <i name="e_wo_entrp">   -189.49209227 </i>
    <i name="e_0_energy">   -189.61254115 </i>
   </energy>
  </scstep>
  <scstep>
   <time name="dav">   26.25   26.32</time>
   <time name="total">   26.79   26.87</time>
   <energy>
    <i name="e_fr_energy">   -189.73304295 </i>
    <i name="e_wo_entrp">   -189.49197844 </i>
    <i name="e_0_energy">   -189.61251069 </i>
   </energy>
  </scstep>
  <scstep>
   <time name="dav">   25.86   25.93</time>
   <time name="total">   25.90   25.97</time>
   <energy>
    <i name="alphaZ">     82.35760944 </i>
    <i name="ewald">  41308.72829697 </i>
    <i name="hartreedc"> -47280.72284262 </i>
    <i name="XCdc">   -235.23967490 </i>
    <i name="pawpsdc">   4037.21166536 </i>
    <i name="pawaedc">  -3452.90179388 </i>
    <i name="eentropy">     -0.24088880 </i>
    <i name="bandstr">  -1410.36802668 </i>
    <i name="atom">   6761.44252427 </i>
    <i name="e_fr_energy">   -189.73313083 </i>
    <i name="e_wo_entrp">   -189.49224203 </i>
    <i name="e_0_energy">   -189.61268643 </i>
   </energy>
  </scstep>
  <structure>
   <crystal>
    <varray name="basis" >
     <v>       8.66812489       4.99792207       0.00000000 </v>
     <v>      -8.66830154       4.99822616       0.00000000 </v>
     <v>       0.00000000       0.00000000      30.00000000 </v>
    </varray>
    <i name="volume">   2599.46232519 </i>
    <varray name="rec_basis" >
     <v>       0.05768377       0.10003955       0.00000000 </v>
     <v>      -0.05768026       0.10003751       0.00000000 </v>
     <v>       0.00000000       0.00000000       0.03333333 </v>
    </varray>
   </crystal>
   <varray name="positions" >
    <v>       1.00141928       0.33532779       0.00012800 </v>
    <v>       0.33154188       0.66635606       0.00018829 </v>
    <v>       0.66567442       0.33334382      -0.00014928 </v>
    <v>       0.00166012       0.66852332       0.00014174 </v>
    <v>       0.33117746       0.00003918      -0.00021763 </v>
    <v>       0.33319281       0.33130590      -0.00007524 </v>
    <v>       0.00431680       0.00000656      -0.00003014 </v>
    <v>       0.66460663       0.00031957      -0.00004863 </v>
    <v>       0.66652346       0.66453110       0.00008360 </v>
    <v>       0.10789408       0.22334405       0.95202073 </v>
    <v>       0.22083994       0.11045643       0.04944837 </v>
    <v>       0.11318821       0.55323835       0.95303388 </v>
    <v>       0.21994098       0.44666112       0.04692191 </v>
    <v>       0.11053157       0.88946504       0.95048536 </v>
    <v>       0.22462216       0.77509156       0.04806348 </v>
    <v>       0.44905039       0.22443028       0.95183831 </v>
    <v>       0.55834598       0.11504674       0.04801328 </v>
    <v>       0.44306758       0.55850078       0.95213811 </v>
    <v>       0.55854359       0.44318935       0.04806462 </v>
    <v>       0.44327599       0.88486037       0.95195826 </v>
    <v>       0.55176485       0.77585929       0.04807602 </v>
    <v>       0.77900624       0.22547026       0.95313760 </v>
    <v>       0.89042310       0.11442778       0.04787506 </v>
    <v>       0.77479843       0.55124391       0.95191216 </v>
    <v>       0.88681057       0.43990468       0.04675219 </v>
    <v>       0.77788540       0.88894393       0.95093783 </v>
    <v>       0.88811254       0.77832724       0.04930202 </v>
   </varray>
  </structure>
  <varray name="forces" >
   <v>      -0.02905652       0.16052761       0.09379803 </v>
   <v>      -0.11192009      -0.01771025       0.02132339 </v>
   <v>      -0.17104527      -0.08995843      -0.00661355 </v>
   <v>      -0.37204367       0.39657535       0.06982005 </v>
   <v>      -0.45949415      -0.25589376      -0.00041113 </v>
   <v>       0.34534597      -0.23533075      -0.07763330 </v>
   <v>       0.68065636       0.26296692      -0.00646626 </v>
   <v>      -0.15923192      -0.20042419       0.01655257 </v>
   <v>       0.17422996      -0.03598939      -0.08946355 </v>
   <v>      -0.09816496      -0.03855670      -0.47776870 </v>
   <v>       0.01005840      -0.01915290       0.81540897 </v>
   <v>       0.09425461       0.00224639      -0.42386042 </v>
   <v>      -0.08810668       0.00696366       0.37673201 </v>
   <v>      -0.02746712       0.00682181      -0.87318501 </v>
   <v>       0.12486709       0.02384287       0.59528021 </v>
   <v>       0.08764879       0.13364061      -0.62825139 </v>
   <v>      -0.03497650       0.10306021       0.43350477 </v>
   <v>      -0.09349726       0.02534305      -0.34655017 </v>
   <v>       0.12068385       0.02307079       0.58160004 </v>
   <v>       0.05412708      -0.09836609      -0.49277352 </v>
   <v>      -0.01943967      -0.09328006       0.40908091 </v>
   <v>      -0.04292537       0.07217331      -0.36284476 </v>
   <v>       0.00267202       0.04359755       0.21740809 </v>
   <v>       0.04898882      -0.11197147      -0.47258923 </v>
   <v>       0.02924915      -0.09649386       0.28818782 </v>
   <v>       0.00184387       0.02406308      -0.27150233 </v>
   <v>      -0.06725679       0.00823464       0.61121645 </v>
  </varray>
  <varray name="stress" >
   <v>     -10.14403518       0.00266587       0.04736519 </v>
   <v>       0.00266611      -9.81168164      -0.00763505 </v>
   <v>       0.04736508      -0.00763526       6.58933837 </v>
  </varray>
  <energy>
   <i name="e_fr_energy">   -189.73313083 </i>
   <i name="e_wo_entrp">   -189.61268643 </i>
   <i name="e_0_energy">     -0.24088880 </i>
  </energy>
  <time name="totalsc">  326.64  327.51</time>
 </calculation>
 <calculation>
  <scstep>
   <time name="dav">   21.51   21.56</time>
   <time name="total">   22.03   22.09</time>
   <energy>
    <i name="alphaZ">     85.82295959 </i>
    <i name="ewald">  42833.25830751 </i>
    <i name="hartreedc"> -48849.55146067 </i>
    <i name="XCdc">   -232.96637691 </i>
    <i name="pawpsdc">   4038.02813297 </i>
    <i name="pawaedc">  -3453.72533407 </i>
    <i name="eentropy">     -0.20236037 </i>
    <i name="bandstr">  -1373.39217714 </i>
    <i name="atom">   6761.44252427 </i>
    <i name="e_fr_energy">   -191.28578481 </i>
    <i name="e_wo_entrp">   -191.08342444 </i>
    <i name="e_0_energy">   -191.18460463 </i>
   </energy>
  </scstep>
  <scstep>
   <time name="dav">   31.80   31.88</time>
   <time name="total">   32.32   32.40</time>
   <energy>
    <i name="e_fr_energy">   -191.18620479 </i>
    <i name="e_wo_entrp">   -190.97585764 </i>
    <i name="e_0_energy">   -191.08103122 </i>
   </energy>
  </scstep>
  <scstep>
   <time name="dav">   29.74   29.81</time>
   <time name="total">   30.25   30.33</time>
   <energy>
    <i name="e_fr_energy">   -191.19444125 </i>
    <i name="e_wo_entrp">   -190.97686215 </i>
    <i name="e_0_energy">   -191.08565170 </i>
   </energy>
  </scstep>
  <scstep>
   <time name="dav">   31.02   31.10</time>
   <time name="total">   31.54   31.62</time>
   <energy>
    <i name="e_fr_energy">   -190.86134040 </i>
    <i name="e_wo_entrp">   -190.64969333 </i>
    <i name="e_0_energy">   -190.75551686 </i>
   </energy>
  </scstep>
  <scstep>
   <time name="dav">   29.42   29.49</time>
   <time name="total">   29.94   30.02</time>
   <energy>
    <i name="e_fr_energy">   -190.84696449 </i>
    <i name="e_wo_entrp">   -190.64236697 </i>
    <i name="e_0_energy">   -190.74466573 </i>
   </energy>
  </scstep>
  <scstep>
   <time name="dav">   29.80   29.87</time>
   <time name="total">   30.32   30.40</time>
   <energy>
    <i name="e_fr_energy">   -190.71223945 </i>
    <i name="e_wo_entrp">   -190.50180387 </i>
    <i name="e_0_energy">   -190.60702166 </i>
   </energy>
  </scstep>
  <scstep>
   <time name="dav">   30.44   30.51</time>
   <time name="total">   30.96   31.04</time>
   <energy>
    <i name="e_fr_energy">   -190.70345089 </i>
    <i name="e_wo_entrp">   -190.49478006 </i>
    <i name="e_0_energy">   -190.59911548 </i>
   </energy>
  </scstep>
  <scstep>
   <time name="dav">   28.08   28.15</time>
   <time name="total">   28.60   28.67</time>
   <energy>
    <i name="e_fr_energy">   -190.70255943 </i>
    <i name="e_wo_entrp">   -190.49370684 </i>
    <i name="e_0_energy">   -190.59813314 </i>
   </energy>
  </scstep>
  <scstep>
   <time name="dav">   28.07   28.14</time>
   <time name="total">   28.59   28.67</time>
   <energy>
    <i name="e_fr_energy">   -190.70020844 </i>
    <i name="e_wo_entrp">   -190.49137074 </i>
    <i name="e_0_energy">   -190.59578959 </i>
   </energy>
  </scstep>
  <scstep>
   <time name="dav">   25.62   25.69</time>
   <time name="total">   26.14   26.21</time>
   <energy>
    <i name="e_fr_energy">   -190.70045994 </i>
    <i name="e_wo_entrp">   -190.49150975 </i>
    <i name="e_0_energy">   -190.59598484 </i>
   </energy>
  </scstep>
  <scstep>
   <time name="dav">   26.40   26.46</time>
   <time name="total">   26.92   26.99</time>
   <energy>
    <i name="e_fr_energy">   -190.70031864 </i>
    <i name="e_wo_entrp">   -190.49151167 </i>
    <i name="e_0_energy">   -190.59591515 </i>
   </energy>
  </scstep>
  <scstep>
   <time name="dav">   21.04   21.09</time>
   <time name="total">   21.07   21.13</time>
   <energy>
    <i name="alphaZ">     85.82295959 </i>
    <i name="ewald">  42833.25830751 </i>
    <i name="hartreedc"> -48821.42818347 </i>
    <i name="XCdc">   -234.29106260 </i>
    <i name="pawpsdc">   4063.63293992 </i>
    <i name="pawaedc">  -3479.51347083 </i>
    <i name="eentropy">     -0.20883438 </i>
    <i name="bandstr">  -1399.41548139 </i>
    <i name="atom">   6761.44252427 </i>
    <i name="e_fr_energy">   -190.70030138 </i>
    <i name="e_wo_entrp">   -190.49146700 </i>
    <i name="e_0_energy">   -190.59588419 </i>
   </energy>
  </scstep>
  <structure>
   <crystal>
    <varray name="basis" >
     <v>       8.48706766       4.89854370       0.00000000 </v>
     <v>      -8.48714530       4.89867644       0.00000000 </v>
     <v>       0.00000000       0.00000000      30.00000000 </v>
    </varray>
    <i name="volume">   2494.50151740 </i>
    <varray name="rec_basis" >
     <v>       0.05891369       0.10207024       0.00000000 </v>
     <v>      -0.05891210       0.10206930       0.00000000 </v>
     <v>       0.00000000       0.00000000       0.03333333 </v>
    </varray>
   </crystal>
   <varray name="positions" >
    <v>       1.00224877       0.33630967       0.00031356 </v>
    <v>       0.33124760       0.66677382       0.00021163 </v>
    <v>       0.66441122       0.33341390      -0.00014499 </v>
    <v>       0.00272250       0.67255843       0.00026967 </v>
    <v>       0.32780475       0.00010497      -0.00019457 </v>
    <v>       0.33301169       0.32852441      -0.00022642 </v>
    <v>       0.00837093      -0.00093733      -0.00003796 </v>
    <v>       0.66276308      -0.00049999      -0.00000586 </v>
    <v>       0.66698104       0.66380015      -0.00011239 </v>
    <v>       0.10731212       0.22378863       0.95061354 </v>
    <v>       0.22104043       0.11044721       0.05161935 </v>
    <v>       0.11364306       0.55284090       0.95178269 </v>
    <v>       0.21961460       0.44711073       0.04807463 </v>
    <v>       0.11060826       0.88945888       0.94817900 </v>
    <v>       0.22535941       0.77473840       0.04971005 </v>
    <v>       0.45042174       0.22502983       0.95011476 </v>
    <v>       0.55878946       0.11613642       0.04932740 </v>
    <v>       0.44252852       0.55895790       0.95101724 </v>
    <v>       0.55908657       0.44252806       0.04969267 </v>
    <v>       0.44245610       0.88371025       0.95051578 </v>
    <v>       0.55068639       0.77509832       0.04935094 </v>
    <v>       0.77954454       0.22655337       0.95199615 </v>
    <v>       0.89092931       0.11506513       0.04872991 </v>
    <v>       0.77434387       0.55004940       0.95051437 </v>
    <v>       0.88619288       0.43901712       0.04771533 </v>
    <v>       0.77808344       0.88910238       0.94993123 </v>
    <v>       0.88801215       0.77853349       0.05104222 </v>
   </varray>
  </structure>
  <varray name="forces" >
   <v>      -0.03338015       0.11497370       0.04861533 </v>
   <v>      -0.07580097       0.05568809      -0.03507824 </v>
   <v>      -0.15176108      -0.07614472       0.03379980 </v>
   <v>      -0.41521328       0.41372457       0.01320182 </v>
   <v>      -0.46039736      -0.28630067       0.02034466 </v>
   <v>       0.33382135      -0.25344412      -0.03754501 </v>
   <v>       0.69735199       0.24910576       0.00543661 </v>
   <v>      -0.21095199      -0.22000106       0.01434964 </v>
   <v>       0.16807565      -0.01618278      -0.06278611 </v>
   <v>       0.01030976      -0.01952751      -0.29583522 </v>
   <v>       0.02701422       0.02233424       0.62144085 </v>
   <v>      -0.02393869       0.01249561      -0.27144998 </v>
   <v>       0.02522611       0.01046856       0.28600563 </v>
   <v>       0.04304572       0.02579068      -0.71445516 </v>
   <v>      -0.01510137       0.02413563       0.42807866 </v>
   <v>       0.06551471      -0.00146983      -0.49337890 </v>
   <v>      -0.06810202      -0.02213602       0.27119812 </v>
   <v>      -0.00563892      -0.05833697      -0.18942528 </v>
   <v>       0.04781784      -0.02359128       0.37198865 </v>
   <v>      -0.05580472      -0.07259582      -0.32210770 </v>
   <v>       0.00348563      -0.09015683       0.29495523 </v>
   <v>      -0.02134472       0.03931285      -0.25434595 </v>
   <v>       0.07357506       0.01667617       0.05234234 </v>
   <v>       0.08599105       0.00241929      -0.32639854 </v>
   <v>      -0.04637799       0.03776861       0.18649281 </v>
   <v>       0.04117523       0.07931372      -0.09566771 </v>
   <v>      -0.03859103       0.03568014       0.45022363 </v>
  </varray>
  <varray name="stress" >
   <v>      -5.63655893       0.00808416      -0.13085272 </v>
   <v>       0.00808400      -5.80680041       0.00704268 </v>
   <v>      -0.13085256       0.00704246       4.48654629 </v>
  </varray>
  <energy>
   <i name="e_fr_energy">   -190.70030138 </i>
   <i name="e_wo_entrp">   -190.59588419 </i>
   <i name="e_0_energy">     -0.20883438 </i>
  </energy>
  <time name="totalsc">  380.28  381.29</time>
 </calculation>
 <calculation>
  <scstep>
   <time name="dav">   21.48   21.53</time>
   <time name="total">   21.99   22.05</time>
   <energy>
    <i name="alphaZ">     90.10752991 </i>
    <i name="ewald">  44639.71295948 </i>
    <i name="hartreedc"> -50682.24074296 </i>
    <i name="XCdc">   -231.85894157 </i>
    <i name="pawpsdc">   4063.58221225 </i>
    <i name="pawaedc">  -3479.45744371 </i>
    <i name="eentropy">     -0.19267654 </i>
    <i name="bandstr">  -1353.12032447 </i>
    <i name="atom">   6761.44252427 </i>
    <i name="e_fr_energy">   -192.02490334 </i>
    <i name="e_wo_entrp">   -191.83222680 </i>
    <i name="e_0_energy">   -191.92856507 </i>
   </energy>
  </scstep>
  <scstep>
   <time name="dav">   30.04   30.11</time>
   <time name="total">   30.55   30.63</time>
   <energy>
    <i name="e_fr_energy">   -191.87603571 </i>
    <i name="e_wo_entrp">   -191.67154733 </i>
    <i name="e_0_energy">   -191.77379152 </i>
   </energy>
  </scstep>
  <scstep>
   <time name="dav">   27.67   27.74</time>
   <time name="total">   28.18   28.26</time>
   <energy>
    <i name="e_fr_energy">   -192.19129067 </i>
    <i name="e_wo_entrp">   -191.98389525 </i>
    <i name="e_0_energy">   -192.08759296 </i>
   </energy>
  </scstep>
  <scstep>
   <time name="dav">   29.54   29.61</time>
   <time name="total">   30.04   30.12</time>
   <energy>
    <i name="e_fr_energy">   -191.58059839 </i>
    <i name="e_wo_entrp">   -191.37631255 </i>
    <i name="e_0_energy">   -191.47845547 </i>
   </energy>
  </scstep>
  <scstep>
   <time name="dav">   29.87   29.94</time>
   <time name="total">   30.38   30.46</time>
   <energy>
    <i name="e_fr_energy">   -191.52091532 </i>
    <i name="e_wo_entrp">   -191.32557202 </i>
    <i name="e_0_energy">   -191.42324367 </i>
   </energy>
  </scstep>
  <scstep>
   <time name="dav">   29.88   29.95</time>
   <time name="total">   30.38   30.46</time>
   <energy>
    <i name="e_fr_energy">   -191.33304972 </i>
    <i name="e_wo_entrp">   -191.13099339 </i>
    <i name="e_0_energy">   -191.23202156 </i>
   </energy>
  </scstep>
  <scstep>
   <time name="dav">   29.88   29.95</time>
   <time name="total">   30.39   30.47</time>
   <energy>
    <i name="e_fr_energy">   -191.32725111 </i>
    <i name="e_wo_entrp">   -191.12617937 </i>
    <i name="e_0_energy">   -191.22671524 </i>
   </energy>
  </scstep>
  <scstep>
   <time name="dav">   29.23   29.30</time>
   <time name="total">   29.74   29.81</time>
   <energy>
    <i name="e_fr_energy">   -191.32538739 </i>
    <i name="e_wo_entrp">   -191.12455206 </i>
    <i name="e_0_energy">   -191.22496973 </i>
   </energy>
  </scstep>
  <scstep>
   <time name="dav">   29.31   29.38</time>
   <time name="total">   29.82   29.90</time>
   <energy>
    <i name="e_fr_energy">   -191.32193472 </i>
    <i name="e_wo_entrp">   -191.12077459 </i>
    <i name="e_0_energy">   -191.22135465 </i>
   </energy>
  </scstep>
  <scstep>
   <time name="dav">   27.27   27.34</time>
   <time name="total">   27.78   27.85</time>
   <energy>
    <i name="e_fr_energy">   -191.32234727 </i>
    <i name="e_wo_entrp">   -191.12133064 </i>
    <i name="e_0_energy">   -191.22183895 </i>
   </energy>
  </scstep>
  <scstep>
   <time name="dav">   27.93   28.00</time>
   <time name="total">   28.44   28.52</time>
   <energy>
    <i name="e_fr_energy">   -191.32211535 </i>
    <i name="e_wo_entrp">   -191.12107682 </i>
    <i name="e_0_energy">   -191.22159608 </i>
   </energy>
  </scstep>
  <scstep>
   <time name="dav">   18.41   18.45</time>
   <time name="total">   18.45   18.50</time>
   <energy>
    <i name="alphaZ">     90.10752991 </i>
    <i name="ewald">  44639.71295948 </i>
    <i name="hartreedc"> -50649.05738034 </i>
    <i name="XCdc">   -233.35940493 </i>
    <i name="pawpsdc">   4085.46503371 </i>
    <i name="pawaedc">  -3501.44161377 </i>
    <i name="eentropy">     -0.20108003 </i>
    <i name="bandstr">  -1383.99068615 </i>
    <i name="atom">   6761.44252427 </i>
    <i name="e_fr_energy">   -191.32211784 </i>
    <i name="e_wo_entrp">   -191.12103781 </i>
    <i name="e_0_energy">   -191.22157783 </i>
   </energy>
  </scstep>
  <structure>
   <crystal>
    <varray name="basis" >
     <v>       8.28725709       4.77867537       0.00000000 </v>
     <v>      -8.28684417       4.77795808       0.00000000 </v>
     <v>       0.00000000       0.00000000      30.00000000 </v>
    </varray>
    <i name="volume">   2375.88915327 </i>
    <varray name="rec_basis" >
     <v>       0.06033057       0.10463675       0.00000000 </v>
     <v>      -0.06033963       0.10464197       0.00000000 </v>
     <v>       0.00000000       0.00000000       0.03333333 </v>
    </varray>
   </crystal>
   <varray name="positions" >
    <v>       1.00340570       0.33786020       0.00051930 </v>
    <v>       0.33148876       0.66803337       0.00007911 </v>
    <v>       0.66229513       0.33356591      -0.00001237 </v>
    <v>       0.00475564       0.68063750       0.00033255 </v>
    <v>       0.32104478      -0.00008574      -0.00009810 </v>
    <v>       0.33236717       0.32307215      -0.00038476 </v>
    <v>       0.01621113      -0.00290635      -0.00001641 </v>
    <v>       0.65868953      -0.00186404       0.00006152 </v>
    <v>       0.66799415       0.66253121      -0.00038632 </v>
    <v>       0.10703109       0.22392534       0.94887851 </v>
    <v>       0.22173751       0.11064355       0.05471903 </v>
    <v>       0.11383450       0.55295188       0.95020948 </v>
    <v>       0.21974739       0.44726084       0.04967206 </v>
    <v>       0.11127511       0.88933829       0.94471276 </v>
    <v>       0.22583148       0.77494649       0.05195496 </v>
    <v>       0.45134800       0.22484210       0.94761914 </v>
    <v>       0.55819414       0.11687572       0.05095331 </v>
    <v>       0.44142933       0.55846456       0.94973175 </v>
    <v>       0.55923684       0.44149770       0.05174941 </v>
    <v>       0.44079683       0.88269380       0.94867816 </v>
    <v>       0.54911327       0.77371948       0.05105830 </v>
    <v>       0.78017721       0.22779007       0.95049464 </v>
    <v>       0.89187536       0.11528543       0.04947999 </v>
    <v>       0.77483272       0.54896925       0.94867586 </v>
    <v>       0.88604456       0.43930925       0.04891861 </v>
    <v>       0.77925123       0.88973855       0.94895960 </v>
    <v>       0.88820588       0.77911795       0.05343979 </v>
   </varray>
  </structure>
  <varray name="forces" >
   <v>      -0.06212072       0.10875596       0.03197748 </v>
   <v>      -0.04133283       0.09140549       0.00804007 </v>
   <v>      -0.09464579      -0.06607512      -0.03241676 </v>
   <v>      -0.18975081       0.14330769      -0.05538198 </v>
   <v>      -0.01433238      -0.04531297      -0.03606132 </v>
   <v>       0.18700880      -0.09435220       0.01369857 </v>
   <v>       0.23318827       0.07842503       0.03162884 </v>
   <v>      -0.32836583      -0.20304144       0.00935438 </v>
   <v>       0.19154976      -0.00866005       0.00287533 </v>
   <v>       0.15849742      -0.06352533      -0.00324505 </v>
   <v>       0.02182797       0.03570496       0.29329259 </v>
   <v>      -0.12852675       0.03520962      -0.00738846 </v>
   <v>       0.12010269       0.03916944      -0.00892234 </v>
   <v>       0.06177603       0.04633272      -0.35068417 </v>
   <v>      -0.16465008       0.01127196       0.07547082 </v>
   <v>       0.03778844      -0.12794434      -0.12837484 </v>
   <v>      -0.08838204      -0.14508610       0.05440392 </v>
   <v>       0.12323525      -0.12012964       0.06029000 </v>
   <v>      -0.01483000      -0.03551459       0.06288707 </v>
   <v>      -0.15749890      -0.03911778      -0.08192450 </v>
   <v>       0.04828285      -0.05745532       0.01082834 </v>
   <v>      -0.02313881      -0.02821432       0.01251766 </v>
   <v>       0.21577048      -0.07500990      -0.24132132 </v>
   <v>       0.06297213       0.09734021      -0.03554274 </v>
   <v>      -0.15409879       0.18538421      -0.04882193 </v>
   <v>       0.06514433       0.16192446       0.20906365 </v>
   <v>      -0.06547069       0.07520735       0.15375668 </v>
  </varray>
  <varray name="stress" >
   <v>       0.34009393       0.01818199      -0.31733710 </v>
   <v>       0.01818215      -0.08603993       0.07691289 </v>
   <v>      -0.31733691       0.07691277      -0.39446024 </v>
  </varray>
  <energy>
   <i name="e_fr_energy">   -191.32211784 </i>
   <i name="e_wo_entrp">   -191.22157783 </i>
   <i name="e_0_energy">     -0.20108003 </i>
  </energy>
  <time name="totalsc">  378.02  379.02</time>
 </calculation>
 <calculation>
  <scstep>
   <time name="dav">   21.49   21.55</time>
   <time name="total">   22.01   22.06</time>
   <energy>
    <i name="alphaZ">     90.00864704 </i>
    <i name="ewald">  44577.07930365 </i>
    <i name="hartreedc"> -50586.07065541 </i>
    <i name="XCdc">   -233.50023350 </i>
    <i name="pawpsdc">   4085.38460887 </i>
    <i name="pawaedc">  -3501.35734748 </i>
    <i name="eentropy">     -0.20415988 </i>
    <i name="bandstr">  -1384.14459990 </i>
    <i name="atom">   6761.44252427 </i>
    <i name="e_fr_energy">   -191.36191234 </i>
    <i name="e_wo_entrp">   -191.15775245 </i>
    <i name="e_0_energy">   -191.25983239 </i>
   </energy>
  </scstep>
  <scstep>
   <time name="dav">   30.89   30.96</time>
   <time name="total">   31.39   31.47</time>
   <energy>
    <i name="e_fr_energy">   -191.40056016 </i>
    <i name="e_wo_entrp">   -191.19375413 </i>
    <i name="e_0_energy">   -191.29715715 </i>
   </energy>
  </scstep>
  <scstep>
   <time name="dav">   29.55   29.62</time>
   <time name="total">   30.06   30.14</time>
   <energy>
    <i name="e_fr_energy">   -191.37231465 </i>
    <i name="e_wo_entrp">   -191.16853872 </i>
    <i name="e_0_energy">   -191.27042669 </i>
   </energy>
  </scstep>
  <scstep>
   <time name="dav">   27.69   27.75</time>
   <time name="total">   28.19   28.27</time>
   <energy>
    <i name="e_fr_energy">   -191.37229627 </i>
    <i name="e_wo_entrp">   -191.16746386 </i>
    <i name="e_0_energy">   -191.26988006 </i>
   </energy>
  </scstep>
  <scstep>
   <time name="dav">   25.98   26.04</time>
   <time name="total">   26.49   26.56</time>
   <energy>
    <i name="e_fr_energy">   -191.37035645 </i>
    <i name="e_wo_entrp">   -191.16580582 </i>
    <i name="e_0_energy">   -191.26808113 </i>
   </energy>
  </scstep>
  <scstep>
   <time name="dav">   25.99   26.05</time>
   <time name="total">   26.50   26.57</time>
   <energy>
    <i name="e_fr_energy">   -191.37020839 </i>
    <i name="e_wo_entrp">   -191.16559572 </i>
    <i name="e_0_energy">   -191.26790205 </i>
   </energy>
  </scstep>
  <scstep>
   <time name="dav">   25.87   25.93</time>
   <time name="total">   26.38   26.45</time>
   <energy>
    <i name="e_fr_energy">   -191.37054124 </i>
    <i name="e_wo_entrp">   -191.16608070 </i>
    <i name="e_0_energy">   -191.26831097 </i>
   </energy>
  </scstep>
  <scstep>
   <time name="dav">   22.89   22.94</time>
   <time name="total">   23.40   23.46</time>
   <energy>
    <i name="e_fr_energy">   -191.36994378 </i>
    <i name="e_wo_entrp">   -191.16540684 </i>
    <i name="e_0_energy">   -191.26767531 </i>
   </energy>
  </scstep>
  <scstep>
   <time name="dav">   16.60   16.64</time>
   <time name="total">   16.63   16.68</time>
   <energy>
    <i name="alphaZ">     90.00864704 </i>
    <i name="ewald">  44577.07930365 </i>
    <i name="hartreedc"> -50587.77887358 </i>
    <i name="XCdc">   -233.44903683 </i>
    <i name="pawpsdc">   4081.81865592 </i>
    <i name="pawaedc">  -3497.74383941 </i>
    <i name="eentropy">     -0.20458509 </i>
    <i name="bandstr">  -1382.54274735 </i>
    <i name="atom">   6761.44252427 </i>
    <i name="e_fr_energy">   -191.36995137 </i>
    <i name="e_wo_entrp">   -191.16536628 </i>
    <i name="e_0_energy">   -191.26765882 </i>
   </energy>
  </scstep>
  <structure>
   <crystal>
    <varray name="basis" >
     <v>       8.29652546       4.77909026       0.00000000 </v>
     <v>      -8.29567115       4.77760824       0.00000000 </v>
     <v>       0.00000000       0.00000000      30.00000000 </v>
    </varray>
    <i name="volume">   2378.49928830 </i>
    <varray name="rec_basis" >
     <v>       0.06025995       0.10463326       0.00000000 </v>
     <v>      -0.06027864       0.10464404       0.00000000 </v>
     <v>       0.00000000       0.00000000       0.03333333 </v>
    </varray>
   </crystal>
   <varray name="positions" >
    <v>       1.00374591       0.33854705       0.00056597 </v>
    <v>       0.33181597       0.66857923       0.00009372 </v>
    <v>       0.66173707       0.33350686      -0.00006519 </v>
    <v>       0.00489101       0.68175034       0.00024475 </v>
    <v>       0.32088882      -0.00026543      -0.00015624 </v>
    <v>       0.33244253       0.32216501      -0.00036072 </v>
    <v>       0.01713420      -0.00314950       0.00003276 </v>
    <v>       0.65682494      -0.00190798       0.00007499 </v>
    <v>       0.66847797       0.66196476      -0.00037723 </v>
    <v>       0.10717368       0.22315708       0.94890687 </v>
    <v>       0.22196125       0.11075283       0.05512238 </v>
    <v>       0.11363812       0.55348960       0.95022810 </v>
    <v>       0.22027989       0.44710847       0.04962789 </v>
    <v>       0.11166673       0.88939425       0.94422533 </v>
    <v>       0.22540986       0.77546721       0.05203177 </v>
    <v>       0.45080651       0.22410613       0.94746338 </v>
    <v>       0.55723857       0.11639581       0.05100688 </v>
    <v>       0.44120931       0.55753091       0.94985217 </v>
    <v>       0.55901684       0.44138586       0.05180912 </v>
    <v>       0.44018873       0.88296957       0.94858496 </v>
    <v>       0.54899798       0.77332488       0.05104251 </v>
    <v>       0.77995974       0.22769091       0.95054325 </v>
    <v>       0.89210071       0.11429618       0.04908454 </v>
    <v>       0.77548329       0.54929167       0.94865510 </v>
    <v>       0.88652430       0.44065761       0.04881820 </v>
    <v>       0.78021395       0.89034005       0.94930858 </v>
    <v>       0.88838656       0.77966511       0.05363605 </v>
   </varray>
  </structure>
  <varray name="forces" >
   <v>      -0.05962513       0.14490748       0.04190822 </v>
   <v>      -0.07904190       0.07103299       0.02294271 </v>
   <v>      -0.08210685      -0.08060303      -0.03360784 </v>
   <v>      -0.22003838       0.15838103      -0.03195579 </v>
   <v>      -0.04627615      -0.04951078       0.00048971 </v>
   <v>       0.19521768      -0.12981225       0.01559762 </v>
   <v>       0.35621449       0.14171397       0.00843425 </v>
   <v>      -0.39691998      -0.21185465       0.01583720 </v>
   <v>       0.22721990      -0.00695008      -0.00724480 </v>
   <v>       0.09807360      -0.03550717       0.02087814 </v>
   <v>       0.04461006       0.01384466       0.16384887 </v>
   <v>      -0.07094832       0.02730448       0.00346585 </v>
   <v>       0.08188661       0.03656248      -0.04040770 </v>
   <v>       0.01713930       0.04330241      -0.20893413 </v>
   <v>      -0.09417933      -0.00482452       0.04063796 </v>
   <v>       0.02707629      -0.06375348      -0.10225443 </v>
   <v>      -0.06314011      -0.07227083       0.08115258 </v>
   <v>       0.08547071      -0.06714867       0.08907414 </v>
   <v>       0.01432964      -0.01656252       0.05717484 </v>
   <v>      -0.07938815      -0.05099278      -0.11736237 </v>
   <v>       0.03253968      -0.04015955      -0.02801261 </v>
   <v>      -0.02604071      -0.02591832       0.03088319 </v>
   <v>       0.12785315      -0.07693306      -0.24435745 </v>
   <v>       0.04512780       0.04747559      -0.03770977 </v>
   <v>      -0.10153426       0.11483691      -0.07705681 </v>
   <v>       0.00788792       0.09558378       0.23812279 </v>
   <v>      -0.04140757       0.03785591       0.09845566 </v>
  </varray>
  <varray name="stress" >
   <v>      -0.20806096      -0.04625641      -0.11417334 </v>
   <v>      -0.04625632      -0.21662495       0.02254726 </v>
   <v>      -0.11417327       0.02254727      -1.07836969 </v>
  </varray>
  <energy>
   <i name="e_fr_energy">   -191.36995137 </i>
   <i name="e_wo_entrp">   -191.26765882 </i>
   <i name="e_0_energy">     -0.20458509 </i>
  </energy>
  <time name="totalsc">  272.75  273.47</time>
 </calculation>
 <calculation>
  <scstep>
   <time name="dav">   21.52   21.57</time>
   <time name="total">   22.02   22.08</time>
   <energy>
    <i name="alphaZ">     90.17828454 </i>
    <i name="ewald">  44648.14659343 </i>
    <i name="hartreedc"> -50660.90656957 </i>
    <i name="XCdc">   -233.35783261 </i>
    <i name="pawpsdc">   4081.66902462 </i>
    <i name="pawaedc">  -3497.59225049 </i>
    <i name="eentropy">     -0.20639352 </i>
    <i name="bandstr">  -1380.79278844 </i>
    <i name="atom">   6761.44252427 </i>
    <i name="e_fr_energy">   -191.41940777 </i>
    <i name="e_wo_entrp">   -191.21301425 </i>
    <i name="e_0_energy">   -191.31621101 </i>
   </energy>
  </scstep>
  <scstep>
   <time name="dav">   31.32   31.39</time>
   <time name="total">   31.83   31.91</time>
   <energy>
    <i name="e_fr_energy">   -191.45432269 </i>
    <i name="e_wo_entrp">   -191.24408835 </i>
    <i name="e_0_energy">   -191.34920552 </i>
   </energy>
  </scstep>
  <scstep>
   <time name="dav">   29.75   29.82</time>
   <time name="total">   30.26   30.34</time>
   <energy>
    <i name="e_fr_energy">   -191.42973758 </i>
    <i name="e_wo_entrp">   -191.22369960 </i>
    <i name="e_0_energy">   -191.32671859 </i>
   </energy>
  </scstep>
  <scstep>
   <time name="dav">   27.67   27.74</time>
   <time name="total">   28.18   28.26</time>
   <energy>
    <i name="e_fr_energy">   -191.42721881 </i>
    <i name="e_wo_entrp">   -191.22031223 </i>
    <i name="e_0_energy">   -191.32376552 </i>
   </energy>
  </scstep>
  <scstep>
   <time name="dav">   26.67   26.74</time>
   <time name="total">   27.18   27.25</time>
   <energy>
    <i name="e_fr_energy">   -191.42569918 </i>
    <i name="e_wo_entrp">   -191.21838307 </i>
    <i name="e_0_energy">   -191.32204112 </i>
   </energy>
  </scstep>
  <scstep>
   <time name="dav">   25.87   25.93</time>
   <time name="total">   26.38   26.45</time>
   <energy>
    <i name="e_fr_energy">   -191.42503150 </i>
    <i name="e_wo_entrp">   -191.21769814 </i>
    <i name="e_0_energy">   -191.32136482 </i>
   </energy>
  </scstep>
  <scstep>
   <time name="dav">   28.63   28.69</time>
   <time name="total">   29.13   29.21</time>
   <energy>
    <i name="e_fr_energy">   -191.42538537 </i>
    <i name="e_wo_entrp">   -191.21818584 </i>
    <i name="e_0_energy">   -191.32178561 </i>
   </energy>
  </scstep>
  <scstep>
   <time name="dav">   24.55   24.61</time>
   <time name="total">   25.07   25.14</time>
   <energy>
    <i name="e_fr_energy">   -191.42460334 </i>
    <i name="e_wo_entrp">   -191.21725487 </i>
    <i name="e_0_energy">   -191.32092910 </i>
   </energy>
  </scstep>
  <scstep>
   <time name="dav">   16.44   16.48</time>
   <time name="total">   16.47   16.52</time>
   <energy>
    <i name="alphaZ">     90.17828454 </i>
    <i name="ewald">  44648.14659343 </i>
    <i name="hartreedc"> -50660.03981841 </i>
    <i name="XCdc">   -233.39550625 </i>
[...]
      <set comment="kpoint 31">
       <r>  -17.4799    1.0000 </r>
       <r>  -17.2943    1.0000 </r>
       <r>  -16.9220    1.0000 </r>
       <r>  -16.6220    1.0000 </r>
       <r>  -16.5031    1.0000 </r>
       <r>  -16.3678    1.0000 </r>
       <r>  -16.2637    1.0000 </r>
       <r>  -16.1509    1.0000 </r>
       <r>  -16.0684    1.0000 </r>
       <r>  -16.0290    1.0000 </r>
       <r>  -15.9597    1.0000 </r>
       <r>  -15.8636    1.0000 </r>
       <r>  -15.7636    1.0000 </r>
       <r>  -15.7306    1.0000 </r>
       <r>  -15.6592    1.0000 </r>
       <r>  -15.5606    1.0000 </r>
       <r>  -15.4523    1.0000 </r>
       <r>  -15.3742    1.0000 </r>
       <r>   -9.7488    1.0000 </r>
       <r>   -9.3861    1.0000 </r>
       <r>   -9.2895    1.0000 </r>
       <r>   -8.9099    1.0000 </r>
       <r>   -8.7897    1.0000 </r>
       <r>   -8.7170    1.0000 </r>
       <r>   -8.5963    1.0000 </r>
       <r>   -8.5565    1.0000 </r>
       <r>   -8.3851    1.0000 </r>
       <r>   -8.3430    1.0000 </r>
       <r>   -8.2830    1.0000 </r>
       <r>   -8.2292    1.0000 </r>
       <r>   -8.1604    1.0000 </r>
       <r>   -8.0572    1.0000 </r>
       <r>   -7.9887    1.0000 </r>
       <r>   -7.9118    1.0000 </r>
       <r>   -7.7349    1.0000 </r>
       <r>   -7.6138    1.0000 </r>
       <r>   -7.5534    1.0000 </r>
       <r>   -7.4379    1.0000 </r>
       <r>   -7.3254    1.0000 </r>
       <r>   -7.2143    1.0000 </r>
       <r>   -7.1728    1.0000 </r>
       <r>   -7.0451    1.0000 </r>
       <r>   -6.9983    1.0000 </r>
       <r>   -6.9545    1.0000 </r>
       <r>   -6.9273    1.0000 </r>
       <r>   -6.7719    1.0000 </r>
       <r>   -6.6798    1.0000 </r>
       <r>   -6.6136    1.0000 </r>
       <r>   -6.5575    1.0000 </r>
       <r>   -6.4858    1.0000 </r>
       <r>   -6.4185    1.0000 </r>
       <r>   -6.3712    1.0000 </r>
       <r>   -6.2811    1.0000 </r>
       <r>   -6.2169    1.0000 </r>
       <r>   -6.1243    1.0000 </r>
       <r>   -6.0311    1.0000 </r>
       <r>   -5.9816    1.0000 </r>
       <r>   -5.9241    1.0000 </r>
       <r>   -5.8612    1.0000 </r>
       <r>   -5.8247    1.0000 </r>
       <r>   -5.7105    1.0000 </r>
       <r>   -5.6144    1.0000 </r>
       <r>   -5.5436    1.0000 </r>
       <r>   -5.3666    1.0000 </r>
       <r>   -5.2682    1.0000 </r>
       <r>   -5.1927    1.0000 </r>
       <r>   -5.0795    1.0000 </r>
       <r>   -4.9144    1.0000 </r>
       <r>   -4.7790    1.0000 </r>
       <r>   -4.7360    1.0000 </r>
       <r>   -4.5521    1.0000 </r>
       <r>   -4.5133    1.0000 </r>
       <r>   -4.3403    1.0000 </r>
       <r>   -4.2754    1.0000 </r>
       <r>   -4.0091    1.0000 </r>
       <r>   -3.9263    1.0000 </r>
       <r>   -3.8099    0.9999 </r>
       <r>   -3.7313    0.9989 </r>
       <r>   -3.6560    0.9943 </r>
       <r>   -3.2386    0.3371 </r>
       <r>   -3.0150    0.0226 </r>
       <r>   -2.7864    0.0001 </r>
       <r>   -2.6354    0.0000 </r>
       <r>   -2.5314    0.0000 </r>
       <r>   -2.4470    0.0000 </r>
       <r>   -2.3360    0.0000 </r>
       <r>   -2.2583    0.0000 </r>
       <r>   -2.1240    0.0000 </r>
       <r>   -2.0044    0.0000 </r>
       <r>   -1.8909    0.0000 </r>
       <r>   -1.7490    0.0000 </r>
       <r>   -1.6646    0.0000 </r>
       <r>   -1.4700    0.0000 </r>
       <r>   -1.3344    0.0000 </r>
       <r>   -1.2269    0.0000 </r>
       <r>   -1.1841    0.0000 </r>
       <r>   -1.1147    0.0000 </r>
       <r>   -1.0401    0.0000 </r>
       <r>   -0.9826    0.0000 </r>
       <r>   -0.9475    0.0000 </r>
       <r>   -0.8429    0.0000 </r>
       <r>   -0.7741    0.0000 </r>
       <r>   -0.6560    0.0000 </r>
       <r>   -0.5555    0.0000 </r>
       <r>   -0.4648    0.0000 </r>
       <r>   -0.4287    0.0000 </r>
       <r>   -0.2744    0.0000 </r>
       <r>   -0.1893    0.0000 </r>
       <r>    0.0939    0.0000 </r>
       <r>    0.2748    0.0000 </r>
       <r>    0.4109    0.0000 </r>
       <r>    0.6727    0.0000 </r>
       <r>    0.7696    0.0000 </r>
       <r>    0.8528    0.0000 </r>
       <r>    0.9065    0.0000 </r>
       <r>    1.3467    0.0000 </r>
       <r>    1.5161    0.0000 </r>
       <r>    2.1293    0.0000 </r>
       <r>    2.2861    0.0000 </r>
       <r>    2.3980    0.0000 </r>
      </set>
      <set comment="kpoint 32">
       <r>  -17.5040    1.0000 </r>
       <r>  -17.2176    1.0000 </r>
       <r>  -17.0270    1.0000 </r>
       <r>  -16.6193    1.0000 </r>
       <r>  -16.4028    1.0000 </r>
       <r>  -16.3143    1.0000 </r>
       <r>  -16.2848    1.0000 </r>
       <r>  -16.1832    1.0000 </r>
       <r>  -16.0914    1.0000 </r>
       <r>  -16.0305    1.0000 </r>
       <r>  -15.9621    1.0000 </r>
       <r>  -15.8990    1.0000 </r>
       <r>  -15.8016    1.0000 </r>
       <r>  -15.7189    1.0000 </r>
       <r>  -15.6428    1.0000 </r>
       <r>  -15.5552    1.0000 </r>
       <r>  -15.4242    1.0000 </r>
       <r>  -15.3879    1.0000 </r>
       <r>   -9.6967    1.0000 </r>
       <r>   -9.4847    1.0000 </r>
       <r>   -9.3370    1.0000 </r>
       <r>   -8.8909    1.0000 </r>
       <r>   -8.7485    1.0000 </r>
       <r>   -8.6059    1.0000 </r>
       <r>   -8.5488    1.0000 </r>
       <r>   -8.4774    1.0000 </r>
       <r>   -8.4260    1.0000 </r>
       <r>   -8.3796    1.0000 </r>
       <r>   -8.3124    1.0000 </r>
       <r>   -8.2219    1.0000 </r>
       <r>   -8.1645    1.0000 </r>
       <r>   -8.0632    1.0000 </r>
       <r>   -8.0265    1.0000 </r>
       <r>   -7.9597    1.0000 </r>
       <r>   -7.7814    1.0000 </r>
       <r>   -7.5827    1.0000 </r>
       <r>   -7.5015    1.0000 </r>
       <r>   -7.3763    1.0000 </r>
       <r>   -7.3601    1.0000 </r>
       <r>   -7.2722    1.0000 </r>
       <r>   -7.1554    1.0000 </r>
       <r>   -7.0869    1.0000 </r>
       <r>   -7.0587    1.0000 </r>
       <r>   -6.9740    1.0000 </r>
       <r>   -6.8838    1.0000 </r>
       <r>   -6.7833    1.0000 </r>
       <r>   -6.7376    1.0000 </r>
       <r>   -6.5722    1.0000 </r>
       <r>   -6.5104    1.0000 </r>
       <r>   -6.4935    1.0000 </r>
       <r>   -6.4134    1.0000 </r>
       <r>   -6.3465    1.0000 </r>
       <r>   -6.2626    1.0000 </r>
       <r>   -6.2186    1.0000 </r>
       <r>   -6.1521    1.0000 </r>
       <r>   -6.0732    1.0000 </r>
       <r>   -5.9947    1.0000 </r>
       <r>   -5.9304    1.0000 </r>
       <r>   -5.8408    1.0000 </r>
       <r>   -5.7245    1.0000 </r>
       <r>   -5.6914    1.0000 </r>
       <r>   -5.5936    1.0000 </r>
       <r>   -5.5070    1.0000 </r>
       <r>   -5.4231    1.0000 </r>
       <r>   -5.3083    1.0000 </r>
       <r>   -5.1713    1.0000 </r>
       <r>   -5.1112    1.0000 </r>
       <r>   -5.0251    1.0000 </r>
       <r>   -4.7221    1.0000 </r>
       <r>   -4.6817    1.0000 </r>
       <r>   -4.5562    1.0000 </r>
       <r>   -4.4748    1.0000 </r>
       <r>   -4.3380    1.0000 </r>
       <r>   -4.2764    1.0000 </r>
       <r>   -4.0887    1.0000 </r>
       <r>   -3.9785    1.0000 </r>
       <r>   -3.8579    1.0000 </r>
       <r>   -3.7692    0.9996 </r>
       <r>   -3.5476    0.9611 </r>
       <r>   -3.2685    0.4171 </r>
       <r>   -3.0670    0.0511 </r>
       <r>   -2.7219    0.0000 </r>
       <r>   -2.5984    0.0000 </r>
       <r>   -2.4811    0.0000 </r>
       <r>   -2.4141    0.0000 </r>
       <r>   -2.2972    0.0000 </r>
       <r>   -2.2380    0.0000 </r>
       <r>   -2.0887    0.0000 </r>
       <r>   -2.0068    0.0000 </r>
       <r>   -1.8752    0.0000 </r>
       <r>   -1.7570    0.0000 </r>
       <r>   -1.6922    0.0000 </r>
       <r>   -1.4885    0.0000 </r>
       <r>   -1.3747    0.0000 </r>
       <r>   -1.2868    0.0000 </r>
       <r>   -1.1790    0.0000 </r>
       <r>   -1.1310    0.0000 </r>
       <r>   -1.0481    0.0000 </r>
       <r>   -0.9746    0.0000 </r>
       <r>   -0.9144    0.0000 </r>
       <r>   -0.8800    0.0000 </r>
       <r>   -0.7898    0.0000 </r>
       <r>   -0.6147    0.0000 </r>
       <r>   -0.5661    0.0000 </r>
       <r>   -0.4751    0.0000 </r>
       <r>   -0.4197    0.0000 </r>
       <r>   -0.2106    0.0000 </r>
       <r>   -0.1678    0.0000 </r>
       <r>    0.0598    0.0000 </r>
       <r>    0.2410    0.0000 </r>
       <r>    0.5524    0.0000 </r>
       <r>    0.6507    0.0000 </r>
       <r>    0.7461    0.0000 </r>
       <r>    0.8667    0.0000 </r>
       <r>    0.9607    0.0000 </r>
       <r>    1.2478    0.0000 </r>
       <r>    1.3887    0.0000 </r>
       <r>    2.0926    0.0000 </r>
       <r>    2.2558    0.0000 </r>
       <r>    2.5560    0.0000 </r>
      </set>
      <set comment="kpoint 33">
       <r>  -17.4859    1.0000 </r>
       <r>  -17.3033    1.0000 </r>
       <r>  -16.9059    1.0000 </r>
       <r>  -16.6257    1.0000 </r>
       <r>  -16.4867    1.0000 </r>
       <r>  -16.3292    1.0000 </r>
       <r>  -16.2690    1.0000 </r>
       <r>  -16.1477    1.0000 </r>
       <r>  -16.0962    1.0000 </r>
       <r>  -16.0137    1.0000 </r>
       <r>  -15.9711    1.0000 </r>
       <r>  -15.9149    1.0000 </r>
       <r>  -15.8033    1.0000 </r>
       <r>  -15.6968    1.0000 </r>
       <r>  -15.6246    1.0000 </r>
       <r>  -15.5460    1.0000 </r>
       <r>  -15.4365    1.0000 </r>
       <r>  -15.4126    1.0000 </r>
       <r>   -9.7309    1.0000 </r>
       <r>   -9.4117    1.0000 </r>
       <r>   -9.2405    1.0000 </r>
       <r>   -8.9775    1.0000 </r>
       <r>   -8.8474    1.0000 </r>
       <r>   -8.7353    1.0000 </r>
       <r>   -8.5193    1.0000 </r>
       <r>   -8.4971    1.0000 </r>
       <r>   -8.3896    1.0000 </r>
       <r>   -8.3325    1.0000 </r>
       <r>   -8.3002    1.0000 </r>
       <r>   -8.2208    1.0000 </r>
       <r>   -8.1511    1.0000 </r>
       <r>   -8.0287    1.0000 </r>
       <r>   -7.9768    1.0000 </r>
       <r>   -7.9023    1.0000 </r>
       <r>   -7.7833    1.0000 </r>
       <r>   -7.6064    1.0000 </r>
       <r>   -7.5532    1.0000 </r>
       <r>   -7.3930    1.0000 </r>
       <r>   -7.3159    1.0000 </r>
       <r>   -7.2476    1.0000 </r>
       <r>   -7.1626    1.0000 </r>
       <r>   -7.1032    1.0000 </r>
       <r>   -7.0222    1.0000 </r>
       <r>   -6.9845    1.0000 </r>
       <r>   -6.8618    1.0000 </r>
       <r>   -6.7622    1.0000 </r>
       <r>   -6.6872    1.0000 </r>
       <r>   -6.6023    1.0000 </r>
       <r>   -6.5257    1.0000 </r>
       <r>   -6.4615    1.0000 </r>
       <r>   -6.4493    1.0000 </r>
       <r>   -6.3648    1.0000 </r>
       <r>   -6.2644    1.0000 </r>
       <r>   -6.2317    1.0000 </r>
       <r>   -6.1406    1.0000 </r>
       <r>   -6.0715    1.0000 </r>
       <r>   -5.9964    1.0000 </r>
       <r>   -5.9622    1.0000 </r>
       <r>   -5.8812    1.0000 </r>
       <r>   -5.8062    1.0000 </r>
       <r>   -5.7496    1.0000 </r>
       <r>   -5.6619    1.0000 </r>
       <r>   -5.6211    1.0000 </r>
       <r>   -5.3904    1.0000 </r>
       <r>   -5.2721    1.0000 </r>
       <r>   -5.0914    1.0000 </r>
       <r>   -5.0793    1.0000 </r>
       <r>   -4.8463    1.0000 </r>
       <r>   -4.7184    1.0000 </r>
       <r>   -4.6350    1.0000 </r>
       <r>   -4.5114    1.0000 </r>
       <r>   -4.4628    1.0000 </r>
       <r>   -4.3393    1.0000 </r>
       <r>   -4.2722    1.0000 </r>
       <r>   -4.1848    1.0000 </r>
       <r>   -4.0694    1.0000 </r>
       <r>   -3.8777    1.0000 </r>
       <r>   -3.8000    0.9998 </r>
       <r>   -3.5454    0.9598 </r>
       <r>   -3.2692    0.4191 </r>
       <r>   -3.1273    0.1135 </r>
       <r>   -2.6445    0.0000 </r>
       <r>   -2.5600    0.0000 </r>
       <r>   -2.4615    0.0000 </r>
       <r>   -2.3720    0.0000 </r>
       <r>   -2.2733    0.0000 </r>
       <r>   -2.2133    0.0000 </r>
       <r>   -2.0353    0.0000 </r>
       <r>   -2.0094    0.0000 </r>
       <r>   -1.8531    0.0000 </r>
       <r>   -1.7656    0.0000 </r>
       <r>   -1.7028    0.0000 </r>
       <r>   -1.4932    0.0000 </r>
       <r>   -1.3909    0.0000 </r>
       <r>   -1.3323    0.0000 </r>
       <r>   -1.1891    0.0000 </r>
       <r>   -1.1474    0.0000 </r>
       <r>   -1.0747    0.0000 </r>
       <r>   -0.9977    0.0000 </r>
       <r>   -0.9317    0.0000 </r>
       <r>   -0.8502    0.0000 </r>
       <r>   -0.7626    0.0000 </r>
       <r>   -0.6595    0.0000 </r>
       <r>   -0.5837    0.0000 </r>
       <r>   -0.5370    0.0000 </r>
       <r>   -0.3655    0.0000 </r>
       <r>   -0.2246    0.0000 </r>
       <r>   -0.0791    0.0000 </r>
       <r>    0.0513    0.0000 </r>
       <r>    0.2584    0.0000 </r>
       <r>    0.5674    0.0000 </r>
       <r>    0.6322    0.0000 </r>
       <r>    0.7828    0.0000 </r>
       <r>    0.9089    0.0000 </r>
       <r>    1.0512    0.0000 </r>
       <r>    1.1632    0.0000 </r>
       <r>    1.2743    0.0000 </r>
       <r>    2.1173    0.0000 </r>
       <r>    2.2846    0.0000 </r>
       <r>    2.3714    0.0000 </r>
      </set>
      <set comment="kpoint 34">
       <r>  -17.4490    1.0000 </r>
       <r>  -17.3771    1.0000 </r>
       <r>  -16.7543    1.0000 </r>
       <r>  -16.6773    1.0000 </r>
       <r>  -16.5861    1.0000 </r>
       <r>  -16.3263    1.0000 </r>
       <r>  -16.2707    1.0000 </r>
       <r>  -16.1497    1.0000 </r>
       <r>  -16.0666    1.0000 </r>
       <r>  -15.9978    1.0000 </r>
       <r>  -15.9878    1.0000 </r>
       <r>  -15.9118    1.0000 </r>
       <r>  -15.7991    1.0000 </r>
       <r>  -15.6762    1.0000 </r>
       <r>  -15.6170    1.0000 </r>
       <r>  -15.5431    1.0000 </r>
       <r>  -15.4449    1.0000 </r>
       <r>  -15.4358    1.0000 </r>
       <r>   -9.7593    1.0000 </r>
       <r>   -9.2626    1.0000 </r>
       <r>   -9.2072    1.0000 </r>
       <r>   -9.0575    1.0000 </r>
       <r>   -8.8977    1.0000 </r>
       <r>   -8.8503    1.0000 </r>
       <r>   -8.5382    1.0000 </r>
       <r>   -8.5105    1.0000 </r>
       <r>   -8.4010    1.0000 </r>
       <r>   -8.3104    1.0000 </r>
       <r>   -8.2753    1.0000 </r>
       <r>   -8.1907    1.0000 </r>
       <r>   -8.1734    1.0000 </r>
       <r>   -8.0030    1.0000 </r>
       <r>   -7.8888    1.0000 </r>
       <r>   -7.8510    1.0000 </r>
       <r>   -7.7988    1.0000 </r>
       <r>   -7.7027    1.0000 </r>
       <r>   -7.4770    1.0000 </r>
       <r>   -7.4484    1.0000 </r>
       <r>   -7.2893    1.0000 </r>
       <r>   -7.2097    1.0000 </r>
       <r>   -7.1900    1.0000 </r>
       <r>   -7.0705    1.0000 </r>
       <r>   -7.0211    1.0000 </r>
       <r>   -6.9697    1.0000 </r>
       <r>   -6.8444    1.0000 </r>
       <r>   -6.7445    1.0000 </r>
       <r>   -6.6977    1.0000 </r>
       <r>   -6.6008    1.0000 </r>
       <r>   -6.5639    1.0000 </r>
       <r>   -6.4618    1.0000 </r>
       <r>   -6.4267    1.0000 </r>
       <r>   -6.3440    1.0000 </r>
       <r>   -6.3001    1.0000 </r>
       <r>   -6.2596    1.0000 </r>
       <r>   -6.1438    1.0000 </r>
       <r>   -6.0844    1.0000 </r>
       <r>   -6.0182    1.0000 </r>
       <r>   -5.9518    1.0000 </r>
       <r>   -5.8846    1.0000 </r>
       <r>   -5.8443    1.0000 </r>
       <r>   -5.8147    1.0000 </r>
       <r>   -5.6990    1.0000 </r>
       <r>   -5.6304    1.0000 </r>
       <r>   -5.4527    1.0000 </r>
       <r>   -5.2154    1.0000 </r>
       <r>   -5.1591    1.0000 </r>
       <r>   -4.9176    1.0000 </r>
       <r>   -4.7191    1.0000 </r>
       <r>   -4.6535    1.0000 </r>
       <r>   -4.6276    1.0000 </r>
       <r>   -4.5724    1.0000 </r>
       <r>   -4.4809    1.0000 </r>
       <r>   -4.3438    1.0000 </r>
       <r>   -4.2849    1.0000 </r>
       <r>   -4.1834    1.0000 </r>
       <r>   -4.1136    1.0000 </r>
       <r>   -3.8753    1.0000 </r>
       <r>   -3.8182    0.9999 </r>
       <r>   -3.5899    0.9805 </r>
       <r>   -3.2658    0.4095 </r>
       <r>   -3.1425    0.1356 </r>
       <r>   -2.6110    0.0000 </r>
       <r>   -2.5477    0.0000 </r>
       <r>   -2.4451    0.0000 </r>
       <r>   -2.3632    0.0000 </r>
       <r>   -2.2685    0.0000 </r>
       <r>   -2.1961    0.0000 </r>
       <r>   -2.0489    0.0000 </r>
       <r>   -1.9717    0.0000 </r>
       <r>   -1.8417    0.0000 </r>
       <r>   -1.7783    0.0000 </r>
       <r>   -1.7014    0.0000 </r>
       <r>   -1.4848    0.0000 </r>
       <r>   -1.3866    0.0000 </r>
       <r>   -1.3457    0.0000 </r>
       <r>   -1.2195    0.0000 </r>
       <r>   -1.1523    0.0000 </r>
       <r>   -1.0647    0.0000 </r>
       <r>   -1.0308    0.0000 </r>
       <r>   -0.9342    0.0000 </r>
       <r>   -0.8295    0.0000 </r>
       <r>   -0.7364    0.0000 </r>
       <r>   -0.6989    0.0000 </r>
       <r>   -0.6223    0.0000 </r>
       <r>   -0.5369    0.0000 </r>
       <r>   -0.3516    0.0000 </r>
       <r>   -0.2436    0.0000 </r>
       <r>   -0.0464    0.0000 </r>
       <r>    0.0478    0.0000 </r>
       <r>    0.3059    0.0000 </r>
       <r>    0.5532    0.0000 </r>
       <r>    0.6077    0.0000 </r>
       <r>    0.7884    0.0000 </r>
       <r>    0.9837    0.0000 </r>
       <r>    1.0684    0.0000 </r>
       <r>    1.1151    0.0000 </r>
       <r>    1.2519    0.0000 </r>
       <r>    2.1814    0.0000 </r>
       <r>    2.2358    0.0000 </r>
       <r>    2.3557    0.0000 </r>
      </set>
     </set>
    </set>
   </array>
  </eigenvalues>
  <separator name="orbital magnetization" >
   <v name="MAGDIPOLOUT">      0.00000000      0.00000000      0.00000000</v>
  </separator>
 </calculation>
 <structure name="finalpos" >
  <crystal>
   <varray name="basis" >
    <v>       8.39779302       4.81569065       0.00000000 </v>
    <v>      -8.39324263       4.80767462       0.00000000 </v>
    <v>       0.00000000       0.00000000      30.00000000 </v>
   </varray>
   <i name="volume">   2423.79349171 </i>
   <varray name="rec_basis" >
    <v>       0.05950599       0.10388562       0.00000000 </v>
    <v>      -0.05960521       0.10394194       0.00000000 </v>
    <v>       0.00000000       0.00000000       0.03333333 </v>
   </varray>
  </crystal>
  <varray name="positions" >
   <v>       0.98247730       0.35614048      -0.00157829 </v>
   <v>       0.35150048       0.64139001       0.00272609 </v>
   <v>       0.64896066       0.32339070      -0.00040763 </v>
   <v>      -0.00164717       0.69267233      -0.00176962 </v>
   <v>       0.32535172       0.01393822      -0.00069660 </v>
   <v>       0.34929776       0.32216399       0.00085629 </v>
   <v>       0.02892246      -0.00223020       0.00145751 </v>
   <v>       0.64680061       0.02153689      -0.00164406 </v>
   <v>       0.66330632       0.63326414       0.00099856 </v>
   <v>       0.10800846       0.22529998       0.95409525 </v>
   <v>       0.22343875       0.11126851       0.05748520 </v>
   <v>       0.12072882       0.56127370       0.95160265 </v>
   <v>       0.21387337       0.43566664       0.04819643 </v>
   <v>       0.11619920       0.89749507       0.94256940 </v>
   <v>       0.22874782       0.77097051       0.04452845 </v>
   <v>       0.45119640       0.22230823       0.94462946 </v>
   <v>       0.55109736       0.11899596       0.05388281 </v>
   <v>       0.44779364       0.54808073       0.94816315 </v>
   <v>       0.55718489       0.43477517       0.05627318 </v>
   <v>       0.43436252       0.87637935       0.95080559 </v>
   <v>       0.55992245       0.77754488       0.04839809 </v>
   <v>       0.77506079       0.23186891       0.94741588 </v>
   <v>       0.89080210       0.11749596       0.04332876 </v>
   <v>       0.77799172       0.54703229       0.94718658 </v>
   <v>       0.88413247       0.45038706       0.04880417 </v>
   <v>       0.77558811       0.88867511       0.95851381 </v>
   <v>       0.88711545       0.78042983       0.05417880 </v>
  </varray>
 </structure>
</modeling>
