unknown system                          
           1
     8.856777    5.104151    0.000000
    -8.856988    5.104513    0.000000
     0.000000    0.000000   30.000000
   V    Mo   W    S 
   3   3   3  18
Direct configuration=     1
   1.00000000  0.33333334  0.00000000
   0.33333334  0.66666669  0.00000000
   0.66666669  0.33333334  0.00000000
   0.00000000  0.66666669  0.00000000
   0.33333334  0.00000000  0.00000000
   0.33333334  0.33333334  0.00000000
   0.00000000  0.00000000  0.00000000
   0.66666669  0.00000000  0.00000000
   0.66666669  0.66666669  0.00000000
   0.11068511  0.22244981  0.95539999
   0.22244981  0.11068511  0.04460000
   0.11068511  0.55578315  0.95539999
   0.22244981  0.44401845  0.04460000
   0.11068511  0.88911647  0.95539999
   0.22244981  0.77735180  0.04460000
   0.44401845  0.22244981  0.95539999
   0.55578315  0.11068511  0.04460000
   0.44401845  0.55578315  0.95539999
   0.55578315  0.44401845  0.04460000
   0.44401845  0.88911647  0.95539999
   0.55578315  0.77735180  0.04460000
   0.77735180  0.22244981  0.95539999
   0.88911647  0.11068511  0.04460000
   0.77735180  0.55578315  0.95539999
   0.88911647  0.44401845  0.04460000
   0.77735180  0.88911647  0.95539999
   0.88911647  0.77735180  0.04460000
unknown system                          
           1
     8.668125    4.997922    0.000000
    -8.668302    4.998226    0.000000
     0.000000    0.000000   30.000000
   V    Mo   W    S 
   3   3   3  18
Direct configuration=     2
   1.00113202  0.33494609  0.00006908
   0.33182741  0.66636181  0.00016222
   0.66593339  0.33334003 -0.00013344
   0.00130449  0.66764511  0.00009103
   0.33197075  0.00003026 -0.00020132
   0.33328379  0.33198894 -0.00002486
   0.00319061  0.00013290 -0.00002273
   0.66508459  0.00040681 -0.00005229
   0.66645222  0.66484155  0.00012701
   0.10806205  0.22353700  0.95201008
   0.22105327  0.11059690  0.04931139
   0.11316145  0.55327729  0.95302257
   0.21997917  0.44662396  0.04695930
   0.11063615  0.88932770  0.95064445
   0.22455462  0.77513710  0.04800496
   0.44889005  0.22434502  0.95190964
   0.55815698  0.11505527  0.04804802
   0.44287296  0.55834236  0.95206303
   0.55836411  0.44301801  0.04802044
   0.44311932  0.88484850  0.95195327
   0.55165373  0.77582992  0.04813223
   0.77908952  0.22562898  0.95308059
   0.89049822  0.11460922  0.04802417
   0.77498486  0.55126475  0.95189769
   0.88686321  0.43997408  0.04683550
   0.77787089  0.88891530  0.95079261
   0.88822458  0.77818960  0.04927526
unknown system                          
           1
     8.487068    4.898544    0.000000
    -8.487145    4.898676    0.000000
     0.000000    0.000000   30.000000
   V    Mo   W    S 
   3   3   3  18
Direct configuration=     3
   1.00141928  0.33532779  0.00012800
   0.33154188  0.66635606  0.00018829
   0.66567442  0.33334382 -0.00014928
   0.00166012  0.66852332  0.00014174
   0.33117746  0.00003918 -0.00021763
   0.33319281  0.33130590 -0.00007524
   0.00431680  0.00000656 -0.00003014
   0.66460663  0.00031957 -0.00004863
   0.66652346  0.66453110  0.00008360
   0.10789408  0.22334405  0.95202073
   0.22083994  0.11045643  0.04944837
   0.11318821  0.55323835  0.95303388
   0.21994098  0.44666112  0.04692191
   0.11053157  0.88946504  0.95048536
   0.22462216  0.77509156  0.04806348
   0.44905039  0.22443028  0.95183831
   0.55834598  0.11504674  0.04801328
   0.44306758  0.55850078  0.95213811
   0.55854359  0.44318935  0.04806462
   0.44327599  0.88486037  0.95195826
   0.55176485  0.77585929  0.04807602
   0.77900624  0.22547026  0.95313760
   0.89042310  0.11442778  0.04787506
   0.77479843  0.55124391  0.95191216
   0.88681057  0.43990468  0.04675219
   0.77788540  0.88894393  0.95093783
   0.88811254  0.77832724  0.04930202
unknown system                          
           1
     8.287257    4.778675    0.000000
    -8.286844    4.777958    0.000000
     0.000000    0.000000   30.000000
   V    Mo   W    S 
   3   3   3  18
Direct configuration=     4
   1.00224877  0.33630967  0.00031356
   0.33124760  0.66677382  0.00021163
   0.66441122  0.33341390 -0.00014499
   0.00272250  0.67255843  0.00026967
   0.32780475  0.00010497 -0.00019457
   0.33301169  0.32852441 -0.00022642
   0.00837093 -0.00093733 -0.00003796
   0.66276308 -0.00049999 -0.00000586
   0.66698104  0.66380015 -0.00011239
   0.10731212  0.22378863  0.95061354
   0.22104043  0.11044721  0.05161935
   0.11364306  0.55284090  0.95178269
   0.21961460  0.44711073  0.04807463
   0.11060826  0.88945888  0.94817900
   0.22535941  0.77473840  0.04971005
   0.45042174  0.22502983  0.95011476
   0.55878946  0.11613642  0.04932740
   0.44252852  0.55895790  0.95101724
   0.55908657  0.44252806  0.04969267
   0.44245610  0.88371025  0.95051578
   0.55068639  0.77509832  0.04935094
   0.77954454  0.22655337  0.95199615
   0.89092931  0.11506513  0.04872991
   0.77434387  0.55004940  0.95051437
   0.88619288  0.43901712  0.04771533
   0.77808344  0.88910238  0.94993123
   0.88801215  0.77853349  0.05104222
unknown system                          
           1
     8.296525    4.779090    0.000000
    -8.295671    4.777608    0.000000
     0.000000    0.000000   30.000000
   V    Mo   W    S 
   3   3   3  18
Direct configuration=     5
   1.00340570  0.33786020  0.00051930
   0.33148876  0.66803337  0.00007911
   0.66229513  0.33356591 -0.00001237
   0.00475564  0.68063750  0.00033255
   0.32104478 -0.00008574 -0.00009810
   0.33236717  0.32307215 -0.00038476
   0.01621113 -0.00290635 -0.00001641
   0.65868953 -0.00186404  0.00006152
   0.66799415  0.66253121 -0.00038632
   0.10703109  0.22392534  0.94887851
   0.22173751  0.11064355  0.05471903
   0.11383450  0.55295188  0.95020948
   0.21974739  0.44726084  0.04967206
   0.11127511  0.88933829  0.94471276
   0.22583148  0.77494649  0.05195496
   0.45134800  0.22484210  0.94761914
   0.55819414  0.11687572  0.05095331
   0.44142933  0.55846456  0.94973175
   0.55923684  0.44149770  0.05174941
   0.44079683  0.88269380  0.94867816
   0.54911327  0.77371948  0.05105830
   0.78017721  0.22779007  0.95049464
   0.89187536  0.11528543  0.04947999
   0.77483272  0.54896925  0.94867586
   0.88604456  0.43930925  0.04891861
   0.77925123  0.88973855  0.94895960
   0.88820588  0.77911795  0.05343979
unknown system                          
           1
     8.288491    4.773297    0.000000
    -8.288872    4.773959    0.000000
     0.000000    0.000000   30.000000
   V    Mo   W    S 
   3   3   3  18
Direct configuration=     6
   1.00374591  0.33854705  0.00056597
   0.33181597  0.66857923  0.00009372
   0.66173707  0.33350686 -0.00006519
   0.00489101  0.68175034  0.00024475
   0.32088882 -0.00026543 -0.00015624
   0.33244253  0.32216501 -0.00036072
   0.01713420 -0.00314950  0.00003276
   0.65682494 -0.00190798  0.00007499
   0.66847797  0.66196476 -0.00037723
   0.10717368  0.22315708  0.94890687
   0.22196125  0.11075283  0.05512238
   0.11363812  0.55348960  0.95022810
   0.22027989  0.44710847  0.04962789
   0.11166673  0.88939425  0.94422533
   0.22540986  0.77546721  0.05203177
   0.45080651  0.22410613  0.94746338
   0.55723857  0.11639581  0.05100688
   0.44120931  0.55753091  0.94985217
   0.55901684  0.44138586  0.05180912
   0.44018873  0.88296957  0.94858496
   0.54899798  0.77332488  0.05104251
   0.77995974  0.22769091  0.95054325
   0.89210071  0.11429618  0.04908454
   0.77548329  0.54929167  0.94865510
   0.88652430  0.44065761  0.04881820
   0.78021395  0.89034005  0.94930858
   0.88838656  0.77966511  0.05363605
unknown system                          
           1
     8.294440    4.775884    0.000000
    -8.294944    4.776760    0.000000
     0.000000    0.000000   30.000000
   V    Mo   W    S 
   3   3   3  18
Direct configuration=     7
   1.00439184  0.33959062  0.00064612
   0.33197668  0.66927027  0.00013089
   0.66096081  0.33332705 -0.00012240
   0.00511948  0.68355860  0.00018735
   0.32029457 -0.00040139 -0.00015515
   0.33233634  0.32066768 -0.00033682
   0.01926048 -0.00355749  0.00005004
   0.65424468 -0.00185610  0.00010493
   0.66919966  0.66115950 -0.00039681
   0.10728483  0.22263443  0.94889043
   0.22220793  0.11069994  0.05551370
   0.11356437  0.55388305  0.95018628
   0.22075895  0.44705148  0.04960456
   0.11199087  0.88957333  0.94374293
   0.22508717  0.77576062  0.05217213
   0.45055309  0.22364278  0.94720653
   0.55659365  0.11620779  0.05120084
   0.44106825  0.55684771  0.94996988
   0.55896777  0.44121264  0.05197325
   0.43958721  0.88291774  0.94832094
   0.54882770  0.77294767  0.05104599
   0.77974903  0.22766923  0.95055217
   0.89212038  0.11344872  0.04867224
   0.77592108  0.54938617  0.94853261
   0.88684305  0.44165804  0.04871888
   0.78082856  0.89087706  0.94970158
   0.88847603  0.78003734  0.05388681
unknown system                          
           1
     8.299224    4.776803    0.000000
    -8.300016    4.778179    0.000000
     0.000000    0.000000   30.000000
   V    Mo   W    S 
   3   3   3  18
Direct configuration=     8
   1.00464048  0.33996085  0.00067368
   0.33193234  0.66945654  0.00013723
   0.66078031  0.33321924 -0.00014595
   0.00507732  0.68371049  0.00016718
   0.32051937 -0.00042869 -0.00017233
   0.33233695  0.32041924 -0.00033739
   0.01957923 -0.00356133  0.00006654
   0.65347955 -0.00169581  0.00011008
   0.66941373  0.66085101 -0.00039977
   0.10730810  0.22250936  0.94894640
   0.22226517  0.11066524  0.05553353
   0.11356099  0.55394641  0.95022004
   0.22088359  0.44705451  0.04954482
   0.11208880  0.88962025  0.94371642
   0.22499099  0.77578191  0.05214811
   0.45049903  0.22356438  0.94721306
   0.55649630  0.11622886  0.05124433
   0.44108721  0.55672346  0.95006824
   0.55897984  0.44119860  0.05196299
   0.43947242  0.88285231  0.94827809
   0.54884846  0.77293234  0.05097452
   0.77966437  0.22761642  0.95060572
   0.89203365  0.11321136  0.04849890
   0.77600191  0.54938957  0.94854356
   0.88689674  0.44185130  0.04864014
   0.78089112  0.89101030  0.94988275
   0.88848651  0.78012635  0.05387902
unknown system                          
           1
     8.301342    4.777626    0.000000
    -8.302250    4.779203    0.000000
     0.000000    0.000000   30.000000
   V    Mo   W    S 
   3   3   3  18
Direct configuration=     9
   1.00516768  0.34075197  0.00073628
   0.33189738  0.66990088  0.00014853
   0.66029964  0.33302899 -0.00018716
   0.00510867  0.68449146  0.00012707
   0.32056770 -0.00049665 -0.00019775
   0.33230824  0.31961917 -0.00033984
   0.02064666 -0.00369376  0.00009699
   0.65174468 -0.00147699  0.00012503
   0.66989818  0.66019172 -0.00041575
   0.10735254  0.22223029  0.94896216
   0.22242643  0.11061974  0.05575055
   0.11354756  0.55411421  0.95020200
   0.22116254  0.44705269  0.04951185
   0.11232371  0.88971081  0.94346166
   0.22480430  0.77587698  0.05222071
   0.45040134  0.22335333  0.94708746
   0.55620563  0.11625935  0.05140842
   0.44104474  0.55638962  0.95018632
   0.55898909  0.44110441  0.05205263
   0.43912603  0.88270979  0.94809720
   0.54879351  0.77279485  0.05093112
   0.77952521  0.22758324  0.95063016
   0.89194731  0.11271228  0.04819598
   0.77622473  0.54936953  0.94846894
   0.88702774  0.44233088  0.04855189
   0.78114356  0.89133290  0.95018561
   0.88852963  0.78035277  0.05400183
unknown system                          
           1
     8.298220    4.774443    0.000000
    -8.299056    4.775894    0.000000
     0.000000    0.000000   30.000000
   V    Mo   W    S 
   3   3   3  18
Direct configuration=    10
   1.00541840  0.34108547  0.00076206
   0.33177455  0.67005423  0.00016021
   0.66011953  0.33291783 -0.00020238
   0.00505362  0.68462488  0.00011432
   0.32076094 -0.00048019 -0.00020294
   0.33228840  0.31936763 -0.00033900
   0.02101914 -0.00368289  0.00010309
   0.65107592 -0.00124129  0.00013129
   0.67011722  0.65984764 -0.00041599
   0.10737170  0.22215251  0.94901400
   0.22248783  0.11058400  0.05575568
   0.11354219  0.55413467  0.95021664
   0.22126250  0.44704330  0.04946412
   0.11239588  0.88976035  0.94345122
   0.22473209  0.77587451  0.05220519
   0.45037602  0.22332151  0.94708945
   0.55615655  0.11632876  0.05146271
   0.44107262  0.55630341  0.95026989
   0.55900359  0.44107943  0.05204448
   0.43903631  0.88263970  0.94803987
   0.54883536  0.77280840  0.05085967
   0.77945945  0.22754856  0.95067186
   0.89185635  0.11253976  0.04804458
   0.77627134  0.54933612  0.94846877
   0.88704411  0.44242482  0.04848613
   0.78115100  0.89143620  0.95035192
   0.88853185  0.78040513  0.05399304
unknown system                          
           1
     8.304224    4.778800    0.000000
    -8.305470    4.780963    0.000000
     0.000000    0.000000   30.000000
   V    Mo   W    S 
   3   3   3  18
Direct configuration=    11
   1.00581129  0.34169781  0.00081493
   0.33179648  0.67046902  0.00017562
   0.65963025  0.33276794 -0.00023103
   0.00494092  0.68512633  0.00008344
   0.32091911 -0.00042038 -0.00021211
   0.33238279  0.31878241 -0.00033474
   0.02178741 -0.00377450  0.00012264
   0.64977622 -0.00100041  0.00014500
   0.67051050  0.65924054 -0.00042617
   0.10743876  0.22193787  0.94904071
   0.22261754  0.11056054  0.05588194
   0.11354472  0.55426272  0.95019707
   0.22150027  0.44703027  0.04943224
   0.11254350  0.88983259  0.94328972
   0.22458136  0.77592416  0.05225009
   0.45032872  0.22320913  0.94700548
   0.55600670  0.11638030  0.05157038
   0.44108054  0.55604858  0.95037609
   0.55903453  0.44101929  0.05208814
   0.43881783  0.88251881  0.94790225
   0.54883008  0.77274281  0.05080235
   0.77930488  0.22747400  0.95070679
   0.89172807  0.11213322  0.04780333
   0.77639514  0.54930968  0.94842687
   0.88709678  0.44274077  0.04841349
   0.78127141  0.89165323  0.95061310
   0.88853867  0.78054772  0.05406229
unknown system                          
           1
     8.292010    4.770056    0.000000
    -8.294257    4.773962    0.000000
     0.000000    0.000000   30.000000
   V    Mo   W    S 
   3   3   3  18
Direct configuration=    12
   1.00609875  0.34195620  0.00082861
   0.33137464  0.67034892  0.00017591
   0.65982890  0.33264635 -0.00023404
   0.00522477  0.68510204  0.00008842
   0.32095180 -0.00062089 -0.00021794
   0.33206691  0.31871248 -0.00034744
   0.02192396 -0.00368545  0.00012724
   0.64953622 -0.00083980  0.00015111
   0.67054900  0.65917151 -0.00042823
   0.10736296  0.22197218  0.94909784
   0.22262387  0.11049244  0.05582289
   0.11353605  0.55415928  0.95024690
   0.22143132  0.44707153  0.04937250
   0.11257903  0.88985113  0.94337051
   0.22460074  0.77588189  0.05219552
   0.45030557  0.22321711  0.94707250
   0.55598643  0.11644152  0.05159146
   0.44109054  0.55614294  0.95044676
   0.55902592  0.44102281  0.05204875
   0.43879200  0.88246735  0.94792356
   0.54884809  0.77280472  0.05071394
   0.77937739  0.22751823  0.95074699
   0.89172142  0.11221249  0.04770545
   0.77642237  0.54928163  0.94845741
   0.88714934  0.44265940  0.04834758
   0.78122446  0.89167681  0.95069495
   0.88858200  0.78054963  0.05400076
unknown system                          
           1
     8.299729    4.771669    0.000000
    -8.302555    4.776579    0.000000
     0.000000    0.000000   30.000000
   V    Mo   W    S 
   3   3   3  18
Direct configuration=    13
   1.00563634  0.34148012  0.00079241
   0.33231452  0.67054162  0.00017948
   0.65971045  0.33290947 -0.00023946
   0.00493671  0.68519720  0.00009880
   0.32067028 -0.00066793 -0.00020619
   0.33245631  0.31905399 -0.00032395
   0.02153341 -0.00386861  0.00010569
   0.65003830 -0.00149207  0.00013158
   0.67030735  0.65966390 -0.00040779
   0.10752351  0.22197944  0.94901077
   0.22255495  0.11057682  0.05588616
   0.11359652  0.55432542  0.95024109
   0.22149486  0.44705902  0.04942839
   0.11250575  0.88984229  0.94330589
   0.22457310  0.77591498  0.05220354
   0.45035723  0.22321034  0.94693254
   0.55603335  0.11627971  0.05155458
   0.44105341  0.55609041  0.95030229
   0.55903312  0.44104812  0.05215904
   0.43884569  0.88252245  0.94793226
   0.54875739  0.77264736  0.05088914
   0.77928189  0.22746381  0.95066397
   0.89177521  0.11216710  0.04793345
   0.77634312  0.54936380  0.94838052
   0.88708666  0.44278699  0.04847120
   0.78131633  0.89159990  0.95047503
   0.88847868  0.78051882  0.05409949
unknown system                          
           1
     8.299964    4.772436    0.000000
    -8.302556    4.776939    0.000000
     0.000000    0.000000   30.000000
   V    Mo   W    S 
   3   3   3  18
Direct configuration=    14
   1.00677850  0.34301196  0.00090686
   0.33159019  0.67149328  0.00020534
   0.65876118  0.33234592 -0.00029623
   0.00490483  0.68592555  0.00001807
   0.32128261 -0.00075707 -0.00025185
   0.33244522  0.31785591 -0.00032113
   0.02293812 -0.00397695  0.00013094
   0.64738648 -0.00052765  0.00012721
   0.67138104  0.65806835 -0.00041050
   0.10756934  0.22162874  0.94908488
   0.22289241  0.11050282  0.05611691
   0.11359581  0.55446524  0.95014653
   0.22201994  0.44708720  0.04937136
   0.11284488  0.88996836  0.94307728
   0.22428471  0.77591709  0.05229766
   0.45027657  0.22302966  0.94678161
   0.55571540  0.11667132  0.05192147
   0.44112433  0.55574299  0.95060358
   0.55905106  0.44089969  0.05227225
   0.43836434  0.88218845  0.94761329
   0.54887794  0.77270514  0.05063392
   0.77904533  0.22734593  0.95072213
   0.89138400  0.11143546  0.04736021
   0.77668416  0.54914554  0.94823937
   0.88717211  0.44324409  0.04831434
   0.78132325  0.89203645  0.95112870
   0.88852072  0.78076096  0.05420569
unknown system                          
           1
     8.301268    4.775966    0.000000
    -8.302240    4.777654    0.000000
     0.000000    0.000000   30.000000
   V    Mo   W    S 
   3   3   3  18
Direct configuration=    15
   1.00648174  0.34260662  0.00087402
   0.33173266  0.67113812  0.00020186
   0.65908126  0.33250547 -0.00028138
   0.00492554  0.68575939  0.00004406
   0.32110775 -0.00071024 -0.00024773
   0.33238357  0.31814480 -0.00032430
   0.02263615 -0.00393904  0.00011512
   0.64800618 -0.00075381  0.00012254
   0.67110264  0.65849129 -0.00041709
   0.10752789  0.22171038  0.94906936
   0.22281930  0.11053308  0.05606652
   0.11357907  0.55441379  0.95016913
   0.22185468  0.44705580  0.04939058
   0.11276670  0.88994096  0.94313763
   0.22437435  0.77592963  0.05227424
   0.45029568  0.22307975  0.94683778
   0.55579223  0.11657215  0.05182844
   0.44109701  0.55581828  0.95052325
   0.55903845  0.44093611  0.05222174
   0.43851572  0.88229910  0.94770663
   0.54884281  0.77269273  0.05069525
   0.77912319  0.22738381  0.95071564
   0.89149290  0.11161069  0.04749356
   0.77660593  0.54921289  0.94829379
   0.88716046  0.44312705  0.04834881
   0.78135378  0.89195075  0.95097472
   0.88851682  0.78070493  0.05416572
unknown system                          
           1
     8.305244    4.777421    0.000000
    -8.305689    4.778191    0.000000
     0.000000    0.000000   30.000000
   V    Mo   W    S 
   3   3   3  18
Direct configuration=    16
   1.00554938  0.34138133  0.00075732
   0.33233467  0.66947421  0.00019953
   0.66032103  0.33311562 -0.00022762
   0.00463322  0.68564062  0.00010881
   0.32051401 -0.00035771 -0.00018726
   0.33199538  0.31867240 -0.00033142
   0.02226036 -0.00385283  0.00016328
   0.64926945 -0.00103054  0.00019838
   0.67047304  0.65956370 -0.00043868
   0.10730996  0.22188175  0.94905720
   0.22263468  0.11053551  0.05589510
   0.11334096  0.55420300  0.95029256
   0.22126903  0.44674677  0.04946022
   0.11265356  0.88984872  0.94324013
   0.22454368  0.77608537  0.05217922
   0.45026637  0.22319070  0.94704433
   0.55599391  0.11621222  0.05154192
   0.44101763  0.55586705  0.95025745
   0.55903576  0.44112855  0.05200750
   0.43884693  0.88261303  0.94788976
   0.54887862  0.77270534  0.05090801
   0.77937694  0.22746059  0.95074457
   0.89178156  0.11188968  0.04768601
   0.77647998  0.54955378  0.94849215
   0.88726558  0.44295498  0.04837552
   0.78162197  0.89197646  0.95065333
   0.88854678  0.78075414  0.05403260
unknown system                          
           1
     8.310126    4.778507    0.000000
    -8.309061    4.776650    0.000000
     0.000000    0.000000   30.000000
   V    Mo   W    S 
   3   3   3  18
Direct configuration=    17
   1.00453643  0.34012903  0.00061640
   0.33350938  0.66762112  0.00020058
   0.66174057  0.33379508 -0.00018253
   0.00443211  0.68554872  0.00019114
   0.31973530 -0.00017217 -0.00020412
   0.33159612  0.31952222 -0.00035588
   0.02165676 -0.00381051  0.00008667
   0.65055381 -0.00181961  0.00015544
   0.66953523  0.66100542 -0.00046179
   0.10713201  0.22199284  0.94901811
   0.22255297  0.11070829  0.05584627
   0.11317267  0.55405126  0.95045714
   0.22061465  0.44641010  0.04955632
   0.11256620  0.88980484  0.94335203
   0.22471666  0.77617095  0.05200752
   0.45034534  0.22337884  0.94723645
   0.55611756  0.11595326  0.05131236
   0.44095017  0.55589479  0.94992596
   0.55900721  0.44130134  0.05181331
   0.43924913  0.88291040  0.94821099
   0.54880708  0.77265565  0.05114640
   0.77957348  0.22752674  0.95073920
   0.89203607  0.11210060  0.04796716
   0.77632369  0.54988878  0.94864021
   0.88738150  0.44285700  0.04845785
   0.78190540  0.89201545  0.95030540
   0.88846696  0.78077399  0.05396131
unknown system                          
           1
     8.318571    4.781384    0.000000
    -8.317504    4.779523    0.000000
     0.000000    0.000000   30.000000
   V    Mo   W    S 
   3   3   3  18
Direct configuration=    18
   1.00416691  0.34005874  0.00055081
   0.33563372  0.66564458  0.00022959
   0.66279683  0.33404944 -0.00014822
   0.00402889  0.68612425  0.00022555
   0.31906375  0.00016733 -0.00013526
   0.33119178  0.31991811 -0.00032553
   0.02203799 -0.00385041  0.00016343
   0.65020751 -0.00236892  0.00017613
   0.66867610  0.66169288 -0.00041446
   0.10701602  0.22178232  0.94897930
   0.22269508  0.11086564  0.05588147
   0.11317345  0.55413921  0.95069918
   0.22026789  0.44607910  0.04965167
   0.11272287  0.88976354  0.94322075
   0.22472532  0.77611704  0.05166107
   0.45052528  0.22361903  0.94734228
   0.55592851  0.11594550  0.05125319
   0.44099293  0.55566447  0.94964298
   0.55905582  0.44148612  0.05165741
   0.43887455  0.88251480  0.94838430
   0.54873219  0.77260234  0.05128371
   0.77942336  0.22742053  0.95073282
   0.89188182  0.11168099  0.04783226
   0.77629974  0.55024223  0.94864674
   0.88767316  0.44324899  0.04846370
   0.78210055  0.89248868  0.95037039
   0.88832246  0.78111793  0.05397466
unknown system                          
           1
     8.321884    4.781022    0.000000
    -8.320630    4.778838    0.000000
     0.000000    0.000000   30.000000
   V    Mo   W    S 
   3   3   3  18
Direct configuration=    19
   1.00502122  0.34163722  0.00058284
   0.33660601  0.66543856  0.00022140
   0.66228555  0.33347212 -0.00022284
   0.00358317  0.68669140  0.00011796
   0.31940305  0.00044447 -0.00021832
   0.33131158  0.31954065 -0.00034715
   0.02306285 -0.00401005  0.00013720
   0.64821635 -0.00187010  0.00012052
   0.66889525  0.66063387 -0.00040930
   0.10706457  0.22145994  0.94905763
   0.22297103  0.11092655  0.05609496
   0.11334855  0.55429733  0.95075131
   0.22058382  0.44606197  0.04968949
   0.11297637  0.88991743  0.94309308
   0.22455643  0.77590311  0.05152063
   0.45056367  0.22361491  0.94727313
   0.55561167  0.11629852  0.05153281
   0.44113680  0.55535516  0.94967584
   0.55913255  0.44140774  0.05176851
   0.43814461  0.88185027  0.94825668
   0.54877825  0.77261382  0.05124489
   0.77908879  0.22726927  0.95076901
   0.89145169  0.11112886  0.04739310
   0.77638251  0.55021666  0.94854026
   0.88781445  0.44368277  0.04838615
   0.78199577  0.89289901  0.95087434
   0.88822786  0.78133299  0.05409577
unknown system                          
           1
     8.320937    4.779742    0.000000
    -8.320302    4.778634    0.000000
     0.000000    0.000000   30.000000
   V    Mo   W    S 
   3   3   3  18
Direct configuration=    20
   1.00546548  0.34270658  0.00058644
   0.33796950  0.66447581  0.00026011
   0.66221917  0.33310155 -0.00024060
   0.00305441  0.68715961  0.00010567
   0.31946098  0.00086483 -0.00019689
   0.33133039  0.31950754 -0.00031862
   0.02378038 -0.00408826  0.00020990
   0.64690170 -0.00149665  0.00012145
   0.66872140  0.66000081 -0.00036416
   0.10704889  0.22124628  0.94912150
   0.22310387  0.11096266  0.05615666
   0.11346081  0.55439881  0.95083985
   0.22064597  0.44592659  0.04973495
   0.11315535  0.89000110  0.94298308
   0.22444473  0.77576067  0.05126957
   0.45062406  0.22370017  0.94725497
   0.55540122  0.11647918  0.05166036
   0.44127108  0.55508635  0.94956862
   0.55919564  0.44139222  0.05177246
   0.43760401  0.88134584  0.94822704
   0.54885679  0.77267395  0.05125075
   0.77885746  0.22715676  0.95079837
   0.89116059  0.11074434  0.04704859
   0.77638654  0.55029074  0.94849777
   0.88796347  0.44401811  0.04832340
   0.78196163  0.89325699  0.95121899
   0.88816890  0.78154184  0.05410966
unknown system                          
           1
     8.328941    4.781634    0.000000
    -8.327843    4.779723    0.000000
     0.000000    0.000000   30.000000
   V    Mo   W    S 
   3   3   3  18
Direct configuration=    21
   1.00601548  0.34340770  0.00065837
   0.33732494  0.66526455  0.00028258
   0.66149397  0.33272110 -0.00025222
   0.00314590  0.68715925  0.00009312
   0.31990920  0.00078417 -0.00017944
   0.33153652  0.31911743 -0.00029732
   0.02402251 -0.00407494  0.00026183
   0.64620972 -0.00094057  0.00013831
   0.66919588  0.65915089 -0.00034090
   0.10712029  0.22122110  0.94916633
   0.22313277  0.11085840  0.05615554
   0.11352180  0.55444271  0.95075007
   0.22093362  0.44607012  0.04967280
   0.11320816  0.89003234  0.94294040
   0.22433231  0.77572766  0.05132300
   0.45057153  0.22361114  0.94716103
   0.55534954  0.11663230  0.05178491
   0.44132026  0.55506529  0.94972642
   0.55920082  0.44127145  0.05185727
   0.43746964  0.88125892  0.94807646
   0.54894916  0.77275694  0.05110136
   0.77879567  0.22714963  0.95081164
   0.89105292  0.11068618  0.04687765
   0.77646608  0.55007608  0.94843068
   0.88788823  0.44403048  0.04826130
   0.78181223  0.89322212  0.95142346
   0.88823532  0.78151202  0.05411523
unknown system                          
           1
     8.332982    4.780579    0.000000
    -8.332476    4.779700    0.000000
     0.000000    0.000000   30.000000
   V    Mo   W    S 
   3   3   3  18
Direct configuration=    22
   1.00621444  0.34420835  0.00061517
   0.33881299  0.66379873  0.00031523
   0.66166290  0.33249784 -0.00026441
   0.00258735  0.68751525  0.00006934
   0.31979333  0.00125729 -0.00018873
   0.33156505  0.31938477 -0.00029114
   0.02441417 -0.00418170  0.00028053
   0.64545098 -0.00070448  0.00011107
   0.66885726  0.65881498 -0.00031177
   0.10707516  0.22108322  0.94922319
   0.22326114  0.11097375  0.05623274
   0.11363761  0.55453870  0.95086325
   0.22088140  0.44590243  0.04975762
   0.11334035  0.89008717  0.94288342
   0.22428866  0.77559657  0.05103959
   0.45062169  0.22371794  0.94717030
   0.55515702  0.11677191  0.05188240
   0.44142332  0.55483690  0.94952854
   0.55924118  0.44124782  0.05186305
   0.43699970  0.88082717  0.94812572
   0.54901861  0.77279350  0.05117700
   0.77864003  0.22708473  0.95082281
   0.89085641  0.11046903  0.04664363
   0.77644527  0.55019969  0.94840967
   0.88803818  0.44432005  0.04824125
   0.78180173  0.89351099  0.95165526
   0.88812851  0.78166186  0.05414516
unknown system                          
           1
     8.333465    4.780691    0.000000
    -8.333003    4.779891    0.000000
     0.000000    0.000000   30.000000
   V    Mo   W    S 
   3   3   3  18
Direct configuration=    23
   1.00699029  0.34584324  0.00064051
   0.33948686  0.66331524  0.00034979
   0.66070861  0.33165414 -0.00030711
   0.00212505  0.68786233 -0.00001921
   0.32033187  0.00180395 -0.00023333
   0.33193945  0.31921555 -0.00029765
   0.02506111 -0.00427188  0.00029996
   0.64398607  0.00048126  0.00003832
   0.66905151  0.65714729 -0.00028007
   0.10712398  0.22091595  0.94937269
   0.22339691  0.11095890  0.05633386
   0.11384028  0.55469152  0.95084320
   0.22117725  0.44585825  0.04979341
   0.11349377  0.89024331  0.94283633
   0.22413479  0.77541212  0.05084727
   0.45058401  0.22371647  0.94706483
   0.55490803  0.11713713  0.05217029
   0.44167779  0.55459220  0.94953739
   0.55927774  0.44101355  0.05201454
   0.43648647  0.88040041  0.94803545
   0.54937264  0.77305174  0.05103790
   0.77840791  0.22703286  0.95085469
   0.89053823  0.11023678  0.04620045
   0.77650057  0.54995235  0.94830705
   0.88803991  0.44453611  0.04815227
   0.78148137  0.89367243  0.95219942
   0.88809199  0.78174125  0.05420766
unknown system                          
           1
     8.341909    4.782151    0.000000
    -8.342039    4.782383    0.000000
     0.000000    0.000000   30.000000
   V    Mo   W    S 
   3   3   3  18
Direct configuration=    24
   1.00702706  0.34592021  0.00064374
   0.33950465  0.66330628  0.00035301
   0.66064674  0.33160703 -0.00030791
   0.00211533  0.68787546 -0.00002197
   0.32036136  0.00182380 -0.00023319
   0.33196424  0.31921195 -0.00029578
   0.02508299 -0.00427554  0.00030395
   0.64392889  0.00054683  0.00003517
   0.66905776  0.65705231 -0.00027689
   0.10712679  0.22091100  0.94937845
   0.22340139  0.11095620  0.05633711
   0.11385409  0.55470218  0.95083952
   0.22119515  0.44586198  0.04979322
   0.11350054  0.89025077  0.94283216
   0.22412818  0.77540313  0.05083946
   0.45058275  0.22371560  0.94705631
   0.55489504  0.11715760  0.05218535
   0.44168998  0.55458428  0.94953999
   0.55927725  0.44099784  0.05202436
   0.43646136  0.88038202  0.94802930