   27   27  100    1
  0.9710400E+02  0.1002848E-08  0.1002848E-08  0.3000000E-08  0.5000000E-15
  1.000000000000000E-004
  CAR 
 unknown system                          
    159     34    120
 
  0.0000000E+00  0.0000000E+00  0.0000000E+00  0.1562500E-01
    1      -17.791852   1.000000
    2      -16.667245   1.000000
    3      -16.642260   1.000000
    4      -16.578068   1.000000
    5      -16.478806   1.000000
    6      -16.429137   1.000000
    7      -16.348798   1.000000
    8      -16.332571   1.000000
    9      -16.143617   1.000000
   10      -16.078688   1.000000
   11      -16.044577   1.000000
   12      -16.009214   1.000000
   13      -15.921410   1.000000
   14      -15.819883   1.000000
   15      -15.534633   1.000000
   16      -15.496798   1.000000
   17      -15.395737   1.000000
   18      -15.308939   1.000000
   19       -9.284117   1.000000
   20       -8.879174   1.000000
   21       -8.850797   1.000000
   22       -8.825990   1.000000
   23       -8.753412   1.000000
   24       -8.678091   1.000000
   25       -8.638682   1.000000
   26       -8.555145   1.000000
   27       -8.464435   1.000000
   28       -8.419858   1.000000
   29       -8.400325   1.000000
   30       -8.336631   1.000000
   31       -8.322476   1.000000
   32       -8.290443   1.000000
   33       -8.276587   1.000000
   34       -8.092366   1.000000
   35       -7.784373   1.000000
   36       -7.749148   1.000000
   37       -7.718690   1.000000
   38       -7.559701   1.000000
   39       -7.532745   1.000000
   40       -7.392802   1.000000
   41       -7.297619   1.000000
   42       -7.200854   1.000000
   43       -7.128172   1.000000
   44       -6.859572   1.000000
   45       -6.820904   1.000000
   46       -6.725691   1.000000
   47       -6.646042   1.000000
   48       -6.601310   1.000000
   49       -6.599500   1.000000
   50       -6.491339   1.000000
   51       -6.476917   1.000000
   52       -6.419533   1.000000
   53       -6.340485   1.000000
   54       -6.295457   1.000000
   55       -6.289636   1.000000
   56       -6.056540   1.000000
   57       -5.991390   1.000000
   58       -5.972433   1.000000
   59       -5.672705   1.000000
   60       -5.616285   1.000000
   61       -5.545698   1.000000
   62       -5.363221   1.000000
   63       -5.303481   1.000000
   64       -5.203757   1.000000
   65       -4.994586   1.000000
   66       -4.963607   1.000000
   67       -4.943791   1.000000
   68       -4.888138   1.000000
   69       -4.808632   1.000000
   70       -4.741874   1.000000
   71       -4.603720   1.000000
   72       -4.582769   1.000000
   73       -4.441201   1.000000
   74       -4.364047   1.000000
   75       -4.213268   1.000000
   76       -3.990559   1.000000
   77       -3.763644   0.999523
   78       -3.538137   0.956273
   79       -3.511789   0.936079
   80       -3.444336   0.852151
   81       -3.299378   0.508257
   82       -2.878509   0.001562
   83       -2.715849   0.000020
   84       -2.653549   0.000003
   85       -2.585536   0.000000
   86       -2.432303   0.000000
   87       -2.360545   0.000000
   88       -2.311270   0.000000
   89       -2.144149   0.000000
   90       -2.107657   0.000000
   91       -1.810303   0.000000
   92       -1.621094   0.000000
   93       -1.470985   0.000000
   94       -1.412619   0.000000
   95       -1.293687   0.000000
   96       -1.260438   0.000000
   97       -0.998206   0.000000
   98       -0.964022   0.000000
   99       -0.639839   0.000000
  100       -0.599499   0.000000
  101       -0.572527   0.000000
  102       -0.529202   0.000000
  103       -0.414430   0.000000
  104       -0.334866   0.000000
  105       -0.179016   0.000000
  106       -0.101977   0.000000
  107        0.025961   0.000000
  108        0.040478   0.000000
  109        0.132061   0.000000
  110        0.208968   0.000000
  111        0.249310   0.000000
  112        0.514261   0.000000
  113        0.579017   0.000000
  114        0.876709   0.000000
  115        0.966841   0.000000
  116        1.030799   0.000000
  117        1.067831   0.000000
  118        1.644797   0.000000
  119        1.831854   0.000000
  120        2.150024   0.000000
 
  0.1250000E+00  0.2775558E-16  0.0000000E+00  0.3125000E-01
    1      -17.766621   1.000000
    2      -16.769755   1.000000
    3      -16.658269   1.000000
    4      -16.614215   1.000000
    5      -16.476864   1.000000
    6      -16.392142   1.000000
    7      -16.351222   1.000000
    8      -16.295513   1.000000
    9      -16.164629   1.000000
   10      -16.071495   1.000000
   11      -16.005989   1.000000
   12      -15.968231   1.000000
   13      -15.907634   1.000000
   14      -15.796032   1.000000
   15      -15.555331   1.000000
   16      -15.497660   1.000000
   17      -15.405758   1.000000
   18      -15.313234   1.000000
   19       -9.273873   1.000000
   20       -9.124463   1.000000
   21       -8.951280   1.000000
   22       -8.892781   1.000000
   23       -8.769643   1.000000
   24       -8.683075   1.000000
   25       -8.603752   1.000000
   26       -8.595210   1.000000
   27       -8.469533   1.000000
   28       -8.427508   1.000000
   29       -8.388487   1.000000
   30       -8.332124   1.000000
   31       -8.280360   1.000000
   32       -8.111604   1.000000
   33       -8.060459   1.000000
   34       -7.969051   1.000000
   35       -7.834097   1.000000
   36       -7.735836   1.000000
   37       -7.663673   1.000000
   38       -7.573367   1.000000
   39       -7.505896   1.000000
   40       -7.389939   1.000000
   41       -7.295889   1.000000
   42       -7.197536   1.000000
   43       -7.111900   1.000000
   44       -6.909645   1.000000
   45       -6.893669   1.000000
   46       -6.778949   1.000000
   47       -6.668875   1.000000
   48       -6.583140   1.000000
   49       -6.542585   1.000000
   50       -6.514210   1.000000
   51       -6.444151   1.000000
   52       -6.389147   1.000000
   53       -6.353596   1.000000
   54       -6.315329   1.000000
   55       -6.291311   1.000000
   56       -6.094566   1.000000
   57       -5.988836   1.000000
   58       -5.919286   1.000000
   59       -5.643531   1.000000
   60       -5.599683   1.000000
   61       -5.498277   1.000000
   62       -5.371297   1.000000
   63       -5.301810   1.000000
   64       -5.271448   1.000000
   65       -5.163882   1.000000
   66       -5.053411   1.000000
   67       -5.021293   1.000000
   68       -4.931569   1.000000
   69       -4.834512   1.000000
   70       -4.636332   1.000000
   71       -4.616933   1.000000
   72       -4.460144   1.000000
   73       -4.415569   1.000000
   74       -4.240538   1.000000
   75       -4.177038   1.000000
   76       -3.934126   0.999997
   77       -3.843524   0.999945
   78       -3.664575   0.995380
   79       -3.633334   0.991393
   80       -3.349849   0.647129
   81       -3.218553   0.290879
   82       -2.859078   0.000992
   83       -2.760095   0.000075
   84       -2.654023   0.000003
   85       -2.544070   0.000000
   86       -2.423249   0.000000
   87       -2.337246   0.000000
   88       -2.302082   0.000000
   89       -2.170220   0.000000
   90       -2.086586   0.000000
   91       -1.812427   0.000000
   92       -1.587514   0.000000
   93       -1.508135   0.000000
   94       -1.382089   0.000000
   95       -1.288695   0.000000
   96       -1.242532   0.000000
   97       -1.011669   0.000000
   98       -0.945059   0.000000
   99       -0.703934   0.000000
  100       -0.683603   0.000000
  101       -0.609475   0.000000
  102       -0.565058   0.000000
  103       -0.446459   0.000000
  104       -0.356690   0.000000
  105       -0.237243   0.000000
  106       -0.190327   0.000000
  107       -0.085740   0.000000
  108        0.092540   0.000000
  109        0.171873   0.000000
  110        0.244099   0.000000
  111        0.266450   0.000000
  112        0.391891   0.000000
  113        0.766871   0.000000
  114        0.891053   0.000000
  115        0.944805   0.000000
  116        1.035605   0.000000
  117        1.096967   0.000000
  118        1.688327   0.000000
  119        1.871373   0.000000
  120        2.184990   0.000000
 
  0.2500000E+00  0.5551115E-16  0.0000000E+00  0.3125000E-01
    1      -17.692043   1.000000
    2      -16.978964   1.000000
    3      -16.694560   1.000000
    4      -16.626059   1.000000
    5      -16.521399   1.000000
    6      -16.392291   1.000000
    7      -16.282812   1.000000
    8      -16.244332   1.000000
    9      -16.173536   1.000000
   10      -16.063251   1.000000
   11      -15.981689   1.000000
   12      -15.903360   1.000000
   13      -15.832938   1.000000
   14      -15.732154   1.000000
   15      -15.599359   1.000000
   16      -15.511991   1.000000
   17      -15.425356   1.000000
   18      -15.326127   1.000000
   19       -9.475392   1.000000
   20       -9.186280   1.000000
   21       -9.118285   1.000000
   22       -9.010815   1.000000
   23       -8.864353   1.000000
   24       -8.784360   1.000000
   25       -8.598657   1.000000
   26       -8.528209   1.000000
   27       -8.458890   1.000000
   28       -8.383562   1.000000
   29       -8.332327   1.000000
   30       -8.237261   1.000000
   31       -8.163278   1.000000
   32       -8.052462   1.000000
   33       -7.962333   1.000000
   34       -7.807554   1.000000
   35       -7.764520   1.000000
   36       -7.663453   1.000000
   37       -7.559067   1.000000
   38       -7.516913   1.000000
   39       -7.444691   1.000000
   40       -7.373300   1.000000
   41       -7.283002   1.000000
   42       -7.202820   1.000000
   43       -7.107635   1.000000
   44       -7.006505   1.000000
   45       -6.838504   1.000000
   46       -6.761952   1.000000
   47       -6.736982   1.000000
   48       -6.629094   1.000000
   49       -6.588987   1.000000
   50       -6.537104   1.000000
   51       -6.453884   1.000000
   52       -6.388493   1.000000
   53       -6.297795   1.000000
   54       -6.226447   1.000000
   55       -6.207125   1.000000
   56       -6.108188   1.000000
   57       -6.002226   1.000000
   58       -5.846386   1.000000
   59       -5.669270   1.000000
   60       -5.632375   1.000000
   61       -5.568214   1.000000
   62       -5.503912   1.000000
   63       -5.477923   1.000000
   64       -5.404274   1.000000
   65       -5.240010   1.000000
   66       -5.099008   1.000000
   67       -5.031049   1.000000
   68       -4.939928   1.000000
   69       -4.821944   1.000000
   70       -4.665564   1.000000
   71       -4.483005   1.000000
   72       -4.334440   1.000000
   73       -4.314617   1.000000
   74       -4.228274   1.000000
   75       -4.125966   1.000000
   76       -4.023797   1.000000
   77       -3.897146   0.999989
   78       -3.758142   0.999452
   79       -3.618293   0.988570
   80       -3.262917   0.406281
   81       -3.143999   0.140517
   82       -2.836396   0.000571
   83       -2.821946   0.000396
   84       -2.659328   0.000003
   85       -2.513637   0.000000
   86       -2.407333   0.000000
   87       -2.322096   0.000000
   88       -2.210114   0.000000
   89       -2.180490   0.000000
   90       -2.062597   0.000000
   91       -1.821440   0.000000
   92       -1.564156   0.000000
   93       -1.507284   0.000000
   94       -1.345324   0.000000
   95       -1.289235   0.000000
   96       -1.210210   0.000000
   97       -1.038786   0.000000
   98       -0.921433   0.000000
   99       -0.876403   0.000000
  100       -0.824581   0.000000
  101       -0.712956   0.000000
  102       -0.637277   0.000000
  103       -0.512258   0.000000
  104       -0.452390   0.000000
  105       -0.326599   0.000000
  106       -0.282755   0.000000
  107       -0.172745   0.000000
  108       -0.015331   0.000000
  109        0.071708   0.000000
  110        0.262000   0.000000
  111        0.350353   0.000000
  112        0.476954   0.000000
  113        0.784576   0.000000
  114        0.901120   0.000000
  115        1.007915   0.000000
  116        1.125505   0.000000
  117        1.186247   0.000000
  118        1.810002   0.000000
  119        1.983735   0.000000
  120        2.288776   0.000000
 
  0.3750000E+00  0.0000000E+00  0.0000000E+00  0.3125000E-01
    1      -17.572546   1.000000
    2      -17.194495   1.000000
    3      -16.725476   1.000000
    4      -16.645862   1.000000
    5      -16.516283   1.000000
    6      -16.434029   1.000000
    7      -16.259069   1.000000
    8      -16.181621   1.000000
    9      -16.157712   1.000000
   10      -16.043792   1.000000
   11      -15.984069   1.000000
   12      -15.821796   1.000000
   13      -15.780764   1.000000
   14      -15.685261   1.000000
   15      -15.645604   1.000000
   16      -15.531640   1.000000
   17      -15.427984   1.000000
   18      -15.345125   1.000000
   19       -9.692628   1.000000
   20       -9.239526   1.000000
   21       -9.199452   1.000000
   22       -9.019606   1.000000
   23       -8.937663   1.000000
   24       -8.835630   1.000000
   25       -8.550203   1.000000
   26       -8.528499   1.000000
   27       -8.423211   1.000000
   28       -8.348503   1.000000
   29       -8.295426   1.000000
   30       -8.201275   1.000000
   31       -8.081870   1.000000
   32       -8.042830   1.000000
   33       -7.999126   1.000000
   34       -7.766941   1.000000
   35       -7.720838   1.000000
   36       -7.617456   1.000000
   37       -7.587062   1.000000
   38       -7.504455   1.000000
   39       -7.287647   1.000000
   40       -7.266175   1.000000
   41       -7.192463   1.000000
   42       -7.131431   1.000000
   43       -7.107580   1.000000
   44       -6.994505   1.000000
   45       -6.845039   1.000000
   46       -6.778464   1.000000
   47       -6.704668   1.000000
   48       -6.665714   1.000000
   49       -6.547107   1.000000
   50       -6.487257   1.000000
   51       -6.407623   1.000000
   52       -6.318744   1.000000
   53       -6.245091   1.000000
   54       -6.203347   1.000000
   55       -6.131487   1.000000
   56       -6.048185   1.000000
   57       -6.014392   1.000000
   58       -5.955492   1.000000
   59       -5.825407   1.000000
   60       -5.794463   1.000000
   61       -5.765075   1.000000
   62       -5.656840   1.000000
   63       -5.533103   1.000000
   64       -5.467276   1.000000
   65       -5.244672   1.000000
   66       -5.034935   1.000000
   67       -4.982607   1.000000
   68       -4.890667   1.000000
   69       -4.829195   1.000000
   70       -4.744816   1.000000
   71       -4.589946   1.000000
   72       -4.341415   1.000000
   73       -4.260290   1.000000
   74       -4.218639   1.000000
   75       -4.109465   1.000000
   76       -4.021230   1.000000
   77       -3.856630   0.999963
   78       -3.680269   0.996676
   79       -3.569861   0.973400
   80       -3.228809   0.316219
   81       -3.079122   0.062178
   82       -2.881952   0.001690
   83       -2.821431   0.000391
   84       -2.650142   0.000002
   85       -2.555310   0.000000
   86       -2.371127   0.000000
   87       -2.299873   0.000000
   88       -2.162375   0.000000
   89       -2.109134   0.000000
   90       -2.034019   0.000000
   91       -1.827958   0.000000
   92       -1.582087   0.000000
   93       -1.473340   0.000000
   94       -1.343815   0.000000
   95       -1.290744   0.000000
   96       -1.200352   0.000000
   97       -1.081002   0.000000
   98       -1.026873   0.000000
   99       -0.919403   0.000000
  100       -0.907788   0.000000
  101       -0.801166   0.000000
  102       -0.724228   0.000000
  103       -0.603873   0.000000
  104       -0.528181   0.000000
  105       -0.394781   0.000000
  106       -0.331514   0.000000
  107       -0.229454   0.000000
  108       -0.142621   0.000000
  109       -0.012648   0.000000
  110        0.287428   0.000000
  111        0.386154   0.000000
  112        0.514946   0.000000
  113        0.776664   0.000000
  114        0.891956   0.000000
  115        1.089711   0.000000
  116        1.227481   0.000000
  117        1.297585   0.000000
  118        1.993059   0.000000
  119        2.156267   0.000000
  120        2.458595   0.000000
 
  0.5000000E+00  0.1110223E-15  0.0000000E+00  0.1562500E-01
    1      -17.451582   1.000000
    2      -17.349365   1.000000
    3      -16.736932   1.000000
    4      -16.656200   1.000000
    5      -16.488150   1.000000
    6      -16.472341   1.000000
    7      -16.256177   1.000000
    8      -16.173866   1.000000
    9      -16.126922   1.000000
   10      -16.040594   1.000000
   11      -15.979427   1.000000
   12      -15.786398   1.000000
   13      -15.730961   1.000000
   14      -15.711241   1.000000
   15      -15.670229   1.000000
   16      -15.536365   1.000000
   17      -15.415782   1.000000
   18      -15.358350   1.000000
   19       -9.770956   1.000000
   20       -9.281198   1.000000
   21       -9.227997   1.000000
   22       -9.000045   1.000000
   23       -8.963178   1.000000
   24       -8.805220   1.000000
   25       -8.607931   1.000000
   26       -8.509637   1.000000
   27       -8.421666   1.000000
   28       -8.328598   1.000000
   29       -8.285574   1.000000
   30       -8.164664   1.000000
   31       -8.037763   1.000000
   32       -8.025605   1.000000
   33       -7.981501   1.000000
   34       -7.819945   1.000000
   35       -7.752684   1.000000
   36       -7.672117   1.000000
   37       -7.567457   1.000000
   38       -7.508873   1.000000
   39       -7.292339   1.000000
   40       -7.209452   1.000000
   41       -7.162227   1.000000
   42       -7.013919   1.000000
   43       -6.998037   1.000000
   44       -6.944456   1.000000
   45       -6.905099   1.000000
   46       -6.743344   1.000000
   47       -6.697765   1.000000
   48       -6.624722   1.000000
   49       -6.548813   1.000000
   50       -6.460190   1.000000
   51       -6.390955   1.000000
   52       -6.352251   1.000000
   53       -6.264432   1.000000
   54       -6.198586   1.000000
   55       -6.158678   1.000000
   56       -6.059919   1.000000
   57       -6.008595   1.000000
   58       -5.954986   1.000000
   59       -5.887402   1.000000
   60       -5.813064   1.000000
   61       -5.765180   1.000000
   62       -5.589413   1.000000
   63       -5.541806   1.000000
   64       -5.511121   1.000000
   65       -5.464123   1.000000
   66       -5.050401   1.000000
   67       -4.973256   1.000000
   68       -4.883147   1.000000
   69       -4.846036   1.000000
   70       -4.788657   1.000000
   71       -4.532613   1.000000
   72       -4.365978   1.000000
   73       -4.292459   1.000000
   74       -4.212283   1.000000
   75       -4.079737   1.000000
   76       -3.996314   1.000000
   77       -3.795506   0.999791
   78       -3.679374   0.996612
   79       -3.530523   0.951052
   80       -3.234030   0.329468
   81       -3.031057   0.030285
   82       -2.920553   0.003930
   83       -2.811243   0.000301
   84       -2.645726   0.000002
   85       -2.580478   0.000000
   86       -2.351954   0.000000
   87       -2.291952   0.000000
   88       -2.150755   0.000000
   89       -2.082081   0.000000
   90       -2.001956   0.000000
   91       -1.827914   0.000000
   92       -1.586962   0.000000
   93       -1.465068   0.000000
   94       -1.381940   0.000000
   95       -1.267214   0.000000
   96       -1.206551   0.000000
   97       -1.111980   0.000000
   98       -1.087348   0.000000
   99       -0.934960   0.000000
  100       -0.895711   0.000000
  101       -0.842080   0.000000
  102       -0.723281   0.000000
  103       -0.692011   0.000000
  104       -0.549916   0.000000
  105       -0.430741   0.000000
  106       -0.341442   0.000000
  107       -0.240276   0.000000
  108       -0.184947   0.000000
  109       -0.050317   0.000000
  110        0.294723   0.000000
  111        0.386986   0.000000
  112        0.526125   0.000000
  113        0.781146   0.000000
  114        0.889934   0.000000
  115        1.122362   0.000000
  116        1.263827   0.000000
  117        1.343676   0.000000
  118        2.217540   0.000000
  119        2.237730   0.000000
  120        2.365438   0.000000
 
  0.0000000E+00  0.1250000E+00  0.0000000E+00  0.3125000E-01
    1      -17.767330   1.000000
    2      -16.762028   1.000000
    3      -16.619002   1.000000
    4      -16.610960   1.000000
    5      -16.549437   1.000000
    6      -16.431701   1.000000
    7      -16.295282   1.000000
    8      -16.280247   1.000000
    9      -16.139262   1.000000
   10      -16.092020   1.000000
   11      -16.076905   1.000000
   12      -15.907665   1.000000
   13      -15.895525   1.000000
   14      -15.806127   1.000000
   15      -15.553656   1.000000
   16      -15.509256   1.000000
   17      -15.400115   1.000000
   18      -15.313518   1.000000
   19       -9.286985   1.000000
   20       -9.082762   1.000000
   21       -8.948991   1.000000
   22       -8.922107   1.000000
   23       -8.791593   1.000000
   24       -8.730391   1.000000
   25       -8.647347   1.000000
   26       -8.509780   1.000000
   27       -8.475107   1.000000
   28       -8.426548   1.000000
   29       -8.389669   1.000000
   30       -8.290876   1.000000
   31       -8.214744   1.000000
   32       -8.200396   1.000000
   33       -8.077347   1.000000
   34       -7.928833   1.000000
   35       -7.840453   1.000000
   36       -7.740484   1.000000
   37       -7.627698   1.000000
   38       -7.580009   1.000000
   39       -7.549061   1.000000
   40       -7.341917   1.000000
   41       -7.300273   1.000000
   42       -7.208720   1.000000
   43       -7.144119   1.000000
   44       -6.923483   1.000000
   45       -6.827034   1.000000
   46       -6.780830   1.000000
   47       -6.732922   1.000000
   48       -6.580182   1.000000
   49       -6.561760   1.000000
   50       -6.470587   1.000000
   51       -6.422763   1.000000
   52       -6.410995   1.000000
   53       -6.374445   1.000000
   54       -6.298767   1.000000
   55       -6.242395   1.000000
   56       -6.125935   1.000000
   57       -5.980963   1.000000
   58       -5.905574   1.000000
   59       -5.648545   1.000000
   60       -5.610424   1.000000
   61       -5.519711   1.000000
   62       -5.370658   1.000000
   63       -5.332930   1.000000
   64       -5.305781   1.000000
   65       -5.162747   1.000000
   66       -5.073970   1.000000
   67       -4.946908   1.000000
   68       -4.809999   1.000000
   69       -4.794102   1.000000
   70       -4.703934   1.000000
   71       -4.644199   1.000000
   72       -4.529120   1.000000
   73       -4.369068   1.000000
   74       -4.340182   1.000000
   75       -4.158391   1.000000
   76       -3.868095   0.999974
   77       -3.854553   0.999960
   78       -3.658254   0.994741
   79       -3.649014   0.993666
   80       -3.363297   0.681777
   81       -3.188938   0.223557
   82       -2.882209   0.001700
   83       -2.727825   0.000029
   84       -2.648509   0.000002
   85       -2.575108   0.000000
   86       -2.441211   0.000000
   87       -2.338286   0.000000
   88       -2.278923   0.000000
   89       -2.154763   0.000000
   90       -2.125559   0.000000
   91       -1.802265   0.000000
   92       -1.578984   0.000000
   93       -1.494569   0.000000
   94       -1.391506   0.000000
   95       -1.275640   0.000000
   96       -1.244650   0.000000
   97       -0.999751   0.000000
   98       -0.958013   0.000000
   99       -0.741964   0.000000
  100       -0.678685   0.000000
  101       -0.649763   0.000000
  102       -0.535622   0.000000
  103       -0.439053   0.000000
  104       -0.353023   0.000000
  105       -0.261737   0.000000
  106       -0.211619   0.000000
  107       -0.036040   0.000000
  108        0.078646   0.000000
  109        0.175388   0.000000
  110        0.200265   0.000000
  111        0.327041   0.000000
  112        0.531511   0.000000
  113        0.628241   0.000000
  114        0.889725   0.000000
  115        0.978174   0.000000
  116        1.019223   0.000000
  117        1.095841   0.000000
  118        1.688447   0.000000
  119        1.869225   0.000000
  120        2.185212   0.000000
 
  0.1250000E+00  0.1250000E+00  0.0000000E+00  0.3125000E-01
    1      -17.718119   1.000000
    2      -16.882269   1.000000
    3      -16.756331   1.000000
    4      -16.596185   1.000000
    5      -16.499330   1.000000
    6      -16.390286   1.000000
    7      -16.313471   1.000000
    8      -16.246528   1.000000
    9      -16.167856   1.000000
   10      -16.081325   1.000000
   11      -16.019905   1.000000
   12      -15.897215   1.000000
   13      -15.817899   1.000000
   14      -15.758952   1.000000
   15      -15.585716   1.000000
   16      -15.522757   1.000000
   17      -15.412831   1.000000
   18      -15.322590   1.000000
   19       -9.366214   1.000000
   20       -9.258277   1.000000
   21       -9.120189   1.000000
   22       -8.955417   1.000000
   23       -8.831032   1.000000
   24       -8.740835   1.000000
   25       -8.602274   1.000000
   26       -8.528258   1.000000
   27       -8.442184   1.000000
   28       -8.392047   1.000000
   29       -8.363968   1.000000
   30       -8.282839   1.000000
   31       -8.162911   1.000000
   32       -8.061625   1.000000
   33       -7.976543   1.000000
   34       -7.905037   1.000000
   35       -7.740902   1.000000
   36       -7.712520   1.000000
   37       -7.604310   1.000000
   38       -7.507811   1.000000
   39       -7.406879   1.000000
   40       -7.332974   1.000000
   41       -7.296781   1.000000
   42       -7.238563   1.000000
   43       -7.122951   1.000000
   44       -6.971188   1.000000
   45       -6.896606   1.000000
   46       -6.804122   1.000000
   47       -6.751659   1.000000
   48       -6.611189   1.000000
   49       -6.559047   1.000000
   50       -6.528403   1.000000
   51       -6.426612   1.000000
   52       -6.350282   1.000000
   53       -6.325099   1.000000
   54       -6.260256   1.000000
   55       -6.181701   1.000000
   56       -6.150913   1.000000
   57       -5.994662   1.000000
   58       -5.860181   1.000000
   59       -5.664463   1.000000
   60       -5.603601   1.000000
   61       -5.541808   1.000000
   62       -5.499809   1.000000
   63       -5.420019   1.000000
   64       -5.310108   1.000000
   65       -5.209976   1.000000
   66       -5.142743   1.000000
   67       -5.081702   1.000000
   68       -4.916452   1.000000
   69       -4.745286   1.000000
   70       -4.668156   1.000000
   71       -4.575723   1.000000
   72       -4.410329   1.000000
   73       -4.279469   1.000000
   74       -4.232397   1.000000
   75       -4.146242   1.000000
   76       -4.042717   1.000000
   77       -3.868736   0.999974
   78       -3.710587   0.998296
   79       -3.627417   0.990365
   80       -3.287643   0.475168
   81       -3.160831   0.168784
   82       -2.865593   0.001157
   83       -2.762479   0.000080
   84       -2.654567   0.000003
   85       -2.549621   0.000000
   86       -2.444979   0.000000
   87       -2.300995   0.000000
   88       -2.237535   0.000000
   89       -2.165964   0.000000
   90       -2.110623   0.000000
   91       -1.804809   0.000000
   92       -1.542846   0.000000
   93       -1.510728   0.000000
   94       -1.360590   0.000000
   95       -1.274637   0.000000
   96       -1.207961   0.000000
   97       -1.031973   0.000000
   98       -0.937363   0.000000
   99       -0.860142   0.000000
  100       -0.793643   0.000000
  101       -0.725731   0.000000
  102       -0.575417   0.000000
  103       -0.522608   0.000000
  104       -0.391777   0.000000
  105       -0.329303   0.000000
  106       -0.261842   0.000000
  107       -0.117492   0.000000
  108        0.044685   0.000000
  109        0.134301   0.000000
  110        0.237325   0.000000
  111        0.285744   0.000000
  112        0.500735   0.000000
  113        0.799788   0.000000
  114        0.919983   0.000000
  115        0.977968   0.000000
  116        1.083445   0.000000
  117        1.131939   0.000000
  118        1.771773   0.000000
  119        1.943530   0.000000
  120        2.254916   0.000000
 
  0.2500000E+00  0.1250000E+00  0.0000000E+00  0.3125000E-01
    1      -17.621738   1.000000
    2      -17.076001   1.000000
    3      -16.851989   1.000000
    4      -16.572541   1.000000
    5      -16.486774   1.000000
    6      -16.372196   1.000000
    7      -16.275774   1.000000
    8      -16.232818   1.000000
    9      -16.182402   1.000000
   10      -16.051617   1.000000
   11      -15.988884   1.000000
   12      -15.863924   1.000000
   13      -15.768046   1.000000
   14      -15.694522   1.000000
   15      -15.620523   1.000000
   16      -15.536853   1.000000
   17      -15.428962   1.000000
   18      -15.334940   1.000000
   19       -9.587342   1.000000
   20       -9.388368   1.000000
   21       -9.176654   1.000000
   22       -9.018660   1.000000
   23       -8.854880   1.000000
   24       -8.719180   1.000000
   25       -8.558775   1.000000
   26       -8.515945   1.000000
   27       -8.415461   1.000000
   28       -8.339012   1.000000
   29       -8.301027   1.000000
   30       -8.219871   1.000000
   31       -8.153388   1.000000
   32       -8.069147   1.000000
   33       -8.020235   1.000000
   34       -7.865953   1.000000
   35       -7.789279   1.000000
   36       -7.589718   1.000000
   37       -7.497300   1.000000
   38       -7.424535   1.000000
   39       -7.361574   1.000000
   40       -7.281335   1.000000
   41       -7.232143   1.000000
   42       -7.165396   1.000000
   43       -7.066225   1.000000
   44       -7.021380   1.000000
   45       -6.889703   1.000000
   46       -6.764495   1.000000
   47       -6.710207   1.000000