       N       E                     dE             d eps       ncg     rms          rms(c)
DAV:   1     0.112623421318E+04    0.11262E+04   -0.35980E+04  8160   0.577E+02
DAV:   2    -0.267885087991E+01   -0.11289E+04   -0.10892E+04 11160   0.173E+02
DAV:   3    -0.199848340861E+03   -0.19717E+03   -0.18930E+03 10960   0.820E+01
DAV:   4    -0.209020155852E+03   -0.91718E+01   -0.88979E+01 12560   0.258E+01
DAV:   5    -0.209274614479E+03   -0.25446E+00   -0.25360E+00 11280   0.309E+00    0.275E+01
DAV:   6    -0.237533107706E+03   -0.28258E+02   -0.10922E+02 12400   0.599E+01    0.594E+01
DAV:   7    -0.196671072160E+03    0.40862E+02   -0.17504E+02 13440   0.152E+02    0.202E+01
DAV:   8    -0.189678071027E+03    0.69930E+01   -0.18296E+01 12040   0.129E+01    0.129E+01
DAV:   9    -0.188192079714E+03    0.14860E+01   -0.32338E+00 12960   0.622E+00    0.934E+00
DAV:  10    -0.186928009568E+03    0.12641E+01   -0.17704E+00 13400   0.798E+00    0.213E+00
DAV:  11    -0.187017741953E+03   -0.89732E-01   -0.56536E-01 13480   0.284E+00    0.355E+00
DAV:  12    -0.186953927846E+03    0.63814E-01   -0.60515E-01 12800   0.422E+00    0.341E+00
DAV:  13    -0.186856746901E+03    0.97181E-01   -0.27956E-01 13200   0.291E+00    0.182E+00
DAV:  14    -0.186822158875E+03    0.34588E-01   -0.91611E-02 12800   0.152E+00    0.578E-01
DAV:  15    -0.186817476735E+03    0.46821E-02   -0.12482E-02 11880   0.391E-01    0.375E-01
DAV:  16    -0.186818380502E+03   -0.90377E-03   -0.10770E-02 13000   0.546E-01    0.603E-01
DAV:  17    -0.186815336109E+03    0.30444E-02   -0.78802E-03 12640   0.485E-01    0.200E-01
DAV:  18    -0.186815073720E+03    0.26239E-03   -0.14368E-03 11480   0.158E-01    0.968E-02
DAV:  19    -0.186815093488E+03   -0.19768E-04   -0.58258E-04  9680   0.677E-02
   1 F= -.18681509E+03 E0= -.18664368E+03  d E =-.186815E+03
       N       E                     dE             d eps       ncg     rms          rms(c)
DAV:   1    -0.187481621281E+03   -0.66655E+00   -0.27580E+02  8160   0.353E+01    0.469E+00
DAV:   2    -0.189421614652E+03   -0.19400E+01   -0.20271E+01 11960   0.154E+01    0.908E+00
DAV:   3    -0.189316198819E+03    0.10542E+00   -0.39282E+00 12400   0.122E+01    0.647E+00
DAV:   4    -0.188725591681E+03    0.59061E+00   -0.63513E-01 12520   0.463E+00    0.174E+00
DAV:   5    -0.188751253347E+03   -0.25662E-01   -0.35554E-01 12480   0.243E+00    0.337E+00
DAV:   6    -0.188725707975E+03    0.25545E-01   -0.54261E-01 12320   0.397E+00    0.290E+00
DAV:   7    -0.188661835508E+03    0.63872E-01   -0.17845E-01 12600   0.219E+00    0.113E+00
DAV:   8    -0.188640089973E+03    0.21746E-01   -0.48946E-02 10000   0.767E-01    0.462E-01
DAV:   9    -0.188638853536E+03    0.12364E-02   -0.80584E-03 11600   0.375E-01    0.387E-01
DAV:  10    -0.188638772349E+03    0.81187E-04   -0.51655E-03 12880   0.403E-01    0.343E-01
DAV:  11    -0.188637886989E+03    0.88536E-03   -0.29849E-03 11440   0.257E-01    0.108E-01
DAV:  12    -0.188638159514E+03   -0.27252E-03   -0.79544E-04 11240   0.841E-02    0.840E-02
DAV:  13    -0.188638158136E+03    0.13776E-05   -0.23245E-04  6640   0.591E-02
   2 F= -.18863816E+03 E0= -.18849832E+03  d E =-.182306E+01
       N       E                     dE             d eps       ncg     rms          rms(c)
DAV:   1    -0.190596522527E+03   -0.19584E+01   -0.32044E+01  9160   0.144E+01    0.447E+00
DAV:   2    -0.190524488805E+03    0.72034E-01   -0.27864E+00 12360   0.944E+00    0.712E+00
DAV:   3    -0.190071786444E+03    0.45270E+00   -0.13144E+00 12280   0.863E+00    0.424E+00
DAV:   4    -0.189855768013E+03    0.21602E+00   -0.69616E-01 13120   0.438E+00    0.248E+00
DAV:   5    -0.189765184570E+03    0.90583E-01   -0.29685E-01 12240   0.201E+00    0.921E-01
DAV:   6    -0.189753888209E+03    0.11296E-01   -0.48969E-02 11680   0.108E+00    0.747E-01
DAV:   7    -0.189750300515E+03    0.35877E-02   -0.13971E-02 11360   0.673E-01    0.269E-01
DAV:   8    -0.189749792938E+03    0.50758E-03   -0.20731E-03 11720   0.186E-01    0.137E-01
DAV:   9    -0.189750218593E+03   -0.42566E-03   -0.12028E-03 11800   0.164E-01    0.190E-01
DAV:  10    -0.189750397089E+03   -0.17850E-03   -0.16918E-03 10280   0.267E-01    0.232E-01
DAV:  11    -0.189749919077E+03    0.47801E-03   -0.79599E-04  8920   0.171E-01    0.256E-02
DAV:  12    -0.189749964983E+03   -0.45906E-04   -0.68704E-05  6080   0.285E-02
   3 F= -.18974996E+03 E0= -.18963156E+03  d E =-.111181E+01
       N       E                     dE             d eps       ncg     rms          rms(c)
DAV:   1    -0.191349287047E+03   -0.15994E+01   -0.79786E+01  8160   0.203E+01    0.461E+00
DAV:   2    -0.191153132361E+03    0.19615E+00   -0.53863E+00 13000   0.755E+00    0.445E+00
DAV:   3    -0.191298972637E+03   -0.14584E+00   -0.14962E+00 12360   0.905E+00    0.652E+00
DAV:   4    -0.190899575905E+03    0.39940E+00   -0.12577E+00 12960   0.769E+00    0.274E+00
DAV:   5    -0.190780563466E+03    0.11901E+00   -0.30641E-01 12120   0.227E+00    0.897E-01
DAV:   6    -0.190764633547E+03    0.15930E-01   -0.70079E-02 10800   0.975E-01    0.515E-01
DAV:   7    -0.190769887053E+03   -0.52535E-02   -0.29460E-02 11960   0.106E+00    0.939E-01
DAV:   8    -0.190761530321E+03    0.83567E-02   -0.12564E-02 11600   0.776E-01    0.166E-01
DAV:   9    -0.190761936616E+03   -0.40629E-03   -0.17480E-03 11720   0.212E-01    0.209E-01
DAV:  10    -0.190762068613E+03   -0.13200E-03   -0.21333E-03 11960   0.305E-01    0.226E-01
DAV:  11    -0.190761625401E+03    0.44321E-03   -0.10650E-03 10240   0.198E-01    0.529E-02
DAV:  12    -0.190761624279E+03    0.11220E-05   -0.12240E-04  6200   0.462E-02
   4 F= -.19076162E+03 E0= -.19065818E+03  d E =-.101166E+01
       N       E                     dE             d eps       ncg     rms          rms(c)
DAV:   1    -0.192111920374E+03   -0.13503E+01   -0.16740E+02  8160   0.288E+01    0.562E+00
DAV:   2    -0.191840575223E+03    0.27135E+00   -0.92079E+00 11320   0.795E+00    0.375E+00
DAV:   3    -0.191970077314E+03   -0.12950E+00   -0.19358E+00 12080   0.805E+00    0.755E+00
DAV:   4    -0.191773476170E+03    0.19660E+00   -0.25336E+00 11160   0.106E+01    0.459E+00
DAV:   5    -0.191578022880E+03    0.19545E+00   -0.65461E-01 12440   0.575E+00    0.332E+00
DAV:   6    -0.191440328200E+03    0.13769E+00   -0.27018E-01 12480   0.390E+00    0.137E+00
DAV:   7    -0.191423718832E+03    0.16609E-01   -0.58334E-02 12320   0.128E+00    0.546E-01
DAV:   8    -0.191419094397E+03    0.46244E-02   -0.10317E-02 10680   0.451E-01    0.232E-01
DAV:   9    -0.191421097917E+03   -0.20035E-02   -0.51600E-03 12720   0.475E-01    0.463E-01
DAV:  10    -0.191419324692E+03    0.17732E-02   -0.44345E-03 11600   0.468E-01    0.141E-01
DAV:  11    -0.191419133977E+03    0.19072E-03   -0.75231E-04 10560   0.131E-01    0.527E-02
DAV:  12    -0.191419122697E+03    0.11280E-04   -0.12025E-04  6720   0.479E-02
   5 F= -.19141912E+03 E0= -.19131762E+03  d E =-.657498E+00
       N       E                     dE             d eps       ncg     rms          rms(c)
DAV:   1    -0.191460234992E+03   -0.41101E-01   -0.31408E+00  8160   0.376E+00    0.546E-01
DAV:   2    -0.191495973224E+03   -0.35738E-01   -0.19806E-01 13280   0.229E+00    0.162E+00
DAV:   3    -0.191468763655E+03    0.27210E-01   -0.55469E-02 12560   0.174E+00    0.363E-01
DAV:   4    -0.191470034605E+03   -0.12709E-02   -0.10764E-02 11640   0.685E-01    0.582E-01
DAV:   5    -0.191466829148E+03    0.32055E-02   -0.79158E-03 10400   0.594E-01    0.221E-01
DAV:   6    -0.191466378570E+03    0.45058E-03   -0.24392E-03 11200   0.218E-01    0.822E-02
DAV:   7    -0.191466231810E+03    0.14676E-03   -0.62098E-04  9320   0.905E-02    0.362E-02
DAV:   8    -0.191466217214E+03    0.14596E-04   -0.10356E-04  6760   0.386E-02
   6 F= -.19146622E+03 E0= -.19136296E+03  d E =-.470945E-01
       N       E                     dE             d eps       ncg     rms          rms(c)
DAV:   1    -0.191519154807E+03   -0.52923E-01   -0.63172E+00  8160   0.531E+00    0.623E-01
DAV:   2    -0.191540857858E+03   -0.21703E-01   -0.19164E-01 13520   0.158E+00    0.118E+00
DAV:   3    -0.191529060394E+03    0.11797E-01   -0.54296E-02 12320   0.167E+00    0.692E-01
DAV:   4    -0.191526647372E+03    0.24130E-02   -0.16036E-02 11760   0.817E-01    0.568E-01
DAV:   5    -0.191524086792E+03    0.25606E-02   -0.10771E-02 10920   0.707E-01    0.348E-01
DAV:   6    -0.191523066239E+03    0.10206E-02   -0.40484E-03 10400   0.344E-01    0.140E-01
DAV:   7    -0.191523004626E+03    0.61613E-04   -0.16314E-03 11960   0.220E-01    0.162E-01
DAV:   8    -0.191522797443E+03    0.20718E-03   -0.78236E-04  8600   0.194E-01    0.761E-02
DAV:   9    -0.191522746310E+03    0.51132E-04   -0.12829E-04  5920   0.731E-02
   7 F= -.19152275E+03 E0= -.19141797E+03  d E =-.565291E-01
       N       E                     dE             d eps       ncg     rms          rms(c)
DAV:   1    -0.191543058315E+03   -0.20261E-01   -0.68146E-01  8160   0.178E+00    0.269E-01
DAV:   2    -0.191545946100E+03   -0.28878E-02   -0.27472E-02 13440   0.748E-01    0.520E-01
DAV:   3    -0.191543182981E+03    0.27631E-02   -0.85698E-03 11840   0.668E-01    0.204E-01
DAV:   4    -0.191542731985E+03    0.45100E-03   -0.22571E-03 12000   0.254E-01    0.152E-01
DAV:   5    -0.191542833004E+03   -0.10102E-03   -0.18442E-03 11080   0.269E-01    0.219E-01
DAV:   6    -0.191542418628E+03    0.41438E-03   -0.11613E-03  9280   0.229E-01    0.695E-02
DAV:   7    -0.191542377147E+03    0.41481E-04   -0.17415E-04  5800   0.708E-02
   8 F= -.19154238E+03 E0= -.19143725E+03  d E =-.196308E-01
       N       E                     dE             d eps       ncg     rms          rms(c)
DAV:   1    -0.191584996427E+03   -0.42578E-01   -0.31158E+00  8160   0.373E+00    0.422E-01
DAV:   2    -0.191599585342E+03   -0.14589E-01   -0.97228E-02 13600   0.148E+00    0.989E-01
DAV:   3    -0.191589014836E+03    0.10571E-01   -0.27676E-02 12880   0.119E+00    0.303E-01
DAV:   4    -0.191588891791E+03    0.12304E-03   -0.54722E-03 11200   0.422E-01    0.352E-01
DAV:   5    -0.191588030275E+03    0.86152E-03   -0.39097E-03 11400   0.425E-01    0.223E-01
DAV:   6    -0.191587718359E+03    0.31192E-03   -0.17086E-03 10320   0.244E-01    0.102E-01
DAV:   7    -0.191587638720E+03    0.79639E-04   -0.70365E-04 10720   0.142E-01
   9 F= -.19158764E+03 E0= -.19148234E+03  d E =-.452616E-01
       N       E                     dE             d eps       ncg     rms          rms(c)
DAV:   1    -0.191528273892E+03    0.59444E-01   -0.48946E+00  8160   0.467E+00    0.489E-01
DAV:   2    -0.191546530198E+03   -0.18256E-01   -0.13224E-01 13480   0.149E+00    0.106E+00
DAV:   3    -0.191535011648E+03    0.11519E-01   -0.35906E-02 12200   0.131E+00    0.486E-01
DAV:   4    -0.191534980390E+03    0.31258E-04   -0.11985E-02 11240   0.665E-01    0.513E-01
DAV:   5    -0.191532616907E+03    0.23635E-02   -0.62033E-03 11040   0.565E-01    0.222E-01
DAV:   6    -0.191532224261E+03    0.39265E-03   -0.21006E-03 11520   0.268E-01    0.118E-01
DAV:   7    -0.191532479314E+03   -0.25505E-03   -0.15464E-03 11480   0.247E-01    0.210E-01
DAV:   8    -0.191532034622E+03    0.44469E-03   -0.87277E-04  8760   0.206E-01    0.474E-02
DAV:   9    -0.191532023164E+03    0.11459E-04   -0.77023E-05  6040   0.448E-02
  10 F= -.19153202E+03 E0= -.19142647E+03  d E =0.556156E-01
       N       E                     dE             d eps       ncg     rms          rms(c)
DAV:   1    -0.191464670352E+03    0.67364E-01   -0.11777E+01  8160   0.725E+00    0.813E-01
DAV:   2    -0.191513312379E+03   -0.48642E-01   -0.33670E-01 13000   0.265E+00    0.178E+00
DAV:   3    -0.191479614708E+03    0.33698E-01   -0.95965E-02 11520   0.214E+00    0.824E-01
DAV:   4    -0.191478525407E+03    0.10893E-02   -0.35225E-02 12200   0.110E+00    0.803E-01
DAV:   5    -0.191473412766E+03    0.51126E-02   -0.17653E-02 11520   0.925E-01    0.433E-01
DAV:   6    -0.191471297328E+03    0.21154E-02   -0.60605E-03 12160   0.498E-01    0.161E-01
DAV:   7    -0.191471095315E+03    0.20201E-03   -0.20299E-03 11880   0.178E-01    0.831E-02
DAV:   8    -0.191470958308E+03    0.13701E-03   -0.43501E-04 10280   0.949E-02    0.581E-02
DAV:   9    -0.191470963163E+03   -0.48544E-05   -0.20317E-04  7080   0.961E-02
  11 F= -.19147096E+03 E0= -.19136543E+03  d E =0.610600E-01
       N       E                     dE             d eps       ncg     rms          rms(c)
DAV:   1    -0.191454417577E+03    0.16541E-01   -0.33664E+00  8160   0.384E+00    0.374E-01
DAV:   2    -0.191463279549E+03   -0.88620E-02   -0.74907E-02 12680   0.964E-01    0.724E-01
DAV:   3    -0.191459983909E+03    0.32956E-02   -0.23240E-02 12480   0.990E-01    0.551E-01
DAV:   4    -0.191457555390E+03    0.24285E-02   -0.76694E-03 11920   0.499E-01    0.206E-01
DAV:   5    -0.191456847878E+03    0.70751E-03   -0.15155E-03 10120   0.154E-01    0.821E-02
DAV:   6    -0.191457002912E+03   -0.15503E-03   -0.88543E-04 11520   0.148E-01    0.125E-01
DAV:   7    -0.191456897322E+03    0.10559E-03   -0.71298E-04  9440   0.190E-01    0.993E-02
DAV:   8    -0.191456787928E+03    0.10939E-03   -0.19936E-04  6240   0.950E-02    0.319E-02
DAV:   9    -0.191456790750E+03   -0.28225E-05   -0.55932E-05  5800   0.471E-02
  12 F= -.19145679E+03 E0= -.19135035E+03  d E =0.141724E-01
       N       E                     dE             d eps       ncg     rms          rms(c)
DAV:   1    -0.191476347629E+03   -0.19560E-01   -0.14902E+00  8160   0.259E+00    0.309E-01
DAV:   2    -0.191487101305E+03   -0.10754E-01   -0.61539E-02 12280   0.109E+00    0.910E-01
DAV:   3    -0.191479797268E+03    0.73040E-02   -0.22649E-02 12200   0.997E-01    0.335E-01
DAV:   4    -0.191479210618E+03    0.58665E-03   -0.40327E-03 10280   0.360E-01    0.235E-01
DAV:   5    -0.191478718003E+03    0.49262E-03   -0.17794E-03 10640   0.298E-01    0.139E-01
DAV:   6    -0.191478525036E+03    0.19297E-03   -0.67801E-04 10440   0.150E-01    0.651E-02
DAV:   7    -0.191478531183E+03   -0.61470E-05   -0.31483E-04  7520   0.972E-02
  13 F= -.19147853E+03 E0= -.19136956E+03  d E =-.217404E-01
       N       E                     dE             d eps       ncg     rms          rms(c)
DAV:   1    -0.191485581948E+03   -0.70569E-02   -0.19811E-01  8160   0.963E-01    0.131E-01
DAV:   2    -0.191486504592E+03   -0.92264E-03   -0.75463E-03 13600   0.387E-01    0.276E-01
DAV:   3    -0.191485769901E+03    0.73469E-03   -0.24234E-03 11280   0.345E-01    0.119E-01
DAV:   4    -0.191485739932E+03    0.29969E-04   -0.72564E-04  8640   0.170E-01
  14 F= -.19148574E+03 E0= -.19137610E+03  d E =-.720875E-02
       N       E                     dE             d eps       ncg     rms          rms(c)
DAV:   1    -0.191498719584E+03   -0.12950E-01   -0.65802E-01  8160   0.176E+00    0.277E-01
DAV:   2    -0.191508289516E+03   -0.95699E-02   -0.39062E-02 13240   0.103E+00    0.985E-01
DAV:   3    -0.191499380827E+03    0.89087E-02   -0.20796E-02 11640   0.946E-01    0.222E-01
DAV:   4    -0.191498966392E+03    0.41443E-03   -0.19444E-03 10320   0.222E-01    0.123E-01
DAV:   5    -0.191498966450E+03   -0.58623E-07   -0.12163E-03 11320   0.230E-01    0.158E-01
DAV:   6    -0.191498704815E+03    0.26164E-03   -0.75072E-04  8720   0.187E-01    0.570E-02
DAV:   7    -0.191498665615E+03    0.39199E-04   -0.15495E-04  6040   0.631E-02
  15 F= -.19149867E+03 E0= -.19138722E+03  d E =-.129257E-01
       N       E                     dE             d eps       ncg     rms          rms(c)
DAV:   1    -0.191507580907E+03   -0.88761E-02   -0.67039E-01  8160   0.174E+00    0.242E-01
DAV:   2    -0.191515440312E+03   -0.78594E-02   -0.32374E-02 12720   0.948E-01    0.868E-01
DAV:   3    -0.191508227575E+03    0.72127E-02   -0.15720E-02 11040   0.818E-01    0.189E-01
DAV:   4    -0.191508139499E+03    0.88076E-04   -0.16460E-03  9680   0.244E-01    0.162E-01
DAV:   5    -0.191507965003E+03    0.17450E-03   -0.11839E-03 10560   0.243E-01    0.126E-01
DAV:   6    -0.191507806568E+03    0.15844E-03   -0.53086E-04  8680   0.141E-01    0.410E-02
DAV:   7    -0.191507790999E+03    0.15568E-04   -0.13345E-04  6640   0.544E-02
  16 F= -.19150779E+03 E0= -.19139535E+03  d E =-.912538E-02
       N       E                     dE             d eps       ncg     rms          rms(c)
DAV:   1    -0.191523144282E+03   -0.15338E-01   -0.10220E+00  8160   0.217E+00    0.260E-01
DAV:   2    -0.191526400611E+03   -0.32563E-02   -0.30900E-02 13400   0.721E-01    0.506E-01
DAV:   3    -0.191524339779E+03    0.20608E-02   -0.10471E-02 11480   0.661E-01    0.296E-01
DAV:   4    -0.191524007724E+03    0.33205E-03   -0.39430E-03 10640   0.376E-01    0.265E-01
DAV:   5    -0.191523487158E+03    0.52057E-03   -0.22271E-03  9560   0.316E-01    0.162E-01
DAV:   6    -0.191523225130E+03    0.26203E-03   -0.10024E-03  9920   0.190E-01    0.735E-02
DAV:   7    -0.191523303669E+03   -0.78539E-04   -0.55722E-04  8400   0.146E-01
  17 F= -.19152330E+03 E0= -.19140980E+03  d E =-.155127E-01
       N       E                     dE             d eps       ncg     rms          rms(c)
DAV:   1    -0.191555119416E+03   -0.31894E-01   -0.25272E+00  8160   0.343E+00    0.418E-01
DAV:   2    -0.191561031427E+03   -0.59120E-02   -0.78274E-02 12480   0.945E-01    0.618E-01
DAV:   3    -0.191560129504E+03    0.90192E-03   -0.23141E-02 12320   0.101E+00    0.602E-01
DAV:   4    -0.191557634423E+03    0.24951E-02   -0.10620E-02 11600   0.649E-01    0.368E-01
DAV:   5    -0.191556669036E+03    0.96539E-03   -0.61120E-03  9920   0.485E-01    0.276E-01
DAV:   6    -0.191555960805E+03    0.70823E-03   -0.25457E-03 11960   0.297E-01    0.104E-01
DAV:   7    -0.191555850599E+03    0.11021E-03   -0.70503E-04  9920   0.123E-01    0.739E-02
DAV:   8    -0.191555828751E+03    0.21848E-04   -0.30814E-04  8040   0.117E-01
  18 F= -.19155583E+03 E0= -.19144052E+03  d E =-.325251E-01
       N       E                     dE             d eps       ncg     rms          rms(c)
DAV:   1    -0.191545207208E+03    0.10643E-01   -0.34601E-01  8160   0.125E+00    0.130E-01
DAV:   2    -0.191545821536E+03   -0.61433E-03   -0.85347E-03 12280   0.276E-01    0.167E-01
DAV:   3    -0.191545874697E+03   -0.53160E-04   -0.23485E-03 11600   0.300E-01    0.214E-01
DAV:   4    -0.191545509981E+03    0.36472E-03   -0.12185E-03  8840   0.216E-01    0.906E-02
DAV:   5    -0.191545415172E+03    0.94809E-04   -0.28542E-04  6360   0.911E-02
  19 F= -.19154542E+03 E0= -.19143051E+03  d E =0.104136E-01
       N       E                     dE             d eps       ncg     rms          rms(c)
DAV:   1    -0.191554542232E+03   -0.90323E-02   -0.86796E-01  8160   0.197E+00    0.251E-01
DAV:   2    -0.191562016470E+03   -0.74742E-02   -0.33012E-02 12680   0.972E-01    0.837E-01
DAV:   3    -0.191555153895E+03    0.68626E-02   -0.15673E-02 11440   0.823E-01    0.198E-01
DAV:   4    -0.191555259981E+03   -0.10609E-03   -0.23107E-03  9720   0.308E-01    0.222E-01
DAV:   5    -0.191554847123E+03    0.41286E-03   -0.17321E-03 10360   0.285E-01    0.125E-01
DAV:   6    -0.191554800221E+03    0.46902E-04   -0.75845E-04  9880   0.164E-01
  20 F= -.19155480E+03 E0= -.19143964E+03  d E =-.938505E-02
       N       E                     dE             d eps       ncg     rms          rms(c)
DAV:   1    -0.191572374404E+03   -0.17527E-01   -0.14480E+00  8160   0.258E+00    0.296E-01
DAV:   2    -0.191576475697E+03   -0.41013E-02   -0.41699E-02 13400   0.732E-01    0.540E-01
DAV:   3    -0.191574727792E+03    0.17479E-02   -0.14173E-02 12200   0.777E-01    0.394E-01
DAV:   4    -0.191573339967E+03    0.13878E-02   -0.43095E-03 11000   0.390E-01    0.155E-01
DAV:   5    -0.191572973464E+03    0.36650E-03   -0.11903E-03 10360   0.152E-01    0.101E-01
DAV:   6    -0.191573121926E+03   -0.14846E-03   -0.10883E-03 11320   0.226E-01    0.152E-01
DAV:   7    -0.191572861719E+03    0.26021E-03   -0.54035E-04  8480   0.166E-01    0.397E-02
DAV:   8    -0.191572869298E+03   -0.75794E-05   -0.12834E-04  5600   0.703E-02
  21 F= -.19157287E+03 E0= -.19145730E+03  d E =-.180691E-01
       N       E                     dE             d eps       ncg     rms          rms(c)
DAV:   1    -0.191604917476E+03   -0.32056E-01   -0.20064E+00  8160   0.308E+00    0.403E-01
DAV:   2    -0.191608273224E+03   -0.33557E-02   -0.63882E-02 12440   0.827E-01    0.519E-01
DAV:   3    -0.191609389820E+03   -0.11166E-02   -0.20708E-02 12240   0.964E-01    0.657E-01
DAV:   4    -0.191605643289E+03    0.37465E-02   -0.10593E-02 11360   0.646E-01    0.290E-01
DAV:   5    -0.191605379413E+03    0.26388E-03   -0.51249E-03 10240   0.454E-01    0.275E-01
DAV:   6    -0.191604601439E+03    0.77797E-03   -0.24499E-03 11240   0.301E-01    0.923E-02
DAV:   7    -0.191604617183E+03   -0.15744E-04   -0.76158E-04  9400   0.162E-01
  22 F= -.19160462E+03 E0= -.19148920E+03  d E =-.317479E-01
       N       E                     dE             d eps       ncg     rms          rms(c)
DAV:   1    -0.191621047458E+03   -0.16446E-01   -0.56022E-01  8160   0.160E+00    0.196E-01
DAV:   2    -0.191622848216E+03   -0.18008E-02   -0.18324E-02 11360   0.533E-01    0.353E-01
DAV:   3    -0.191622042041E+03    0.80617E-03   -0.59092E-03 12080   0.493E-01    0.253E-01
DAV:   4    -0.191621646428E+03    0.39561E-03   -0.21995E-03  9560   0.280E-01    0.156E-01
DAV:   5    -0.191621531727E+03    0.11470E-03   -0.11614E-03  9640   0.237E-01    0.134E-01
DAV:   6    -0.191621369760E+03    0.16197E-03   -0.51044E-04  7920   0.144E-01    0.569E-02
DAV:   7    -0.191621439224E+03   -0.69464E-04   -0.32883E-04  7840   0.123E-01
  23 F= -.19162144E+03 E0= -.19150649E+03  d E =-.168220E-01
       N       E                     dE             d eps       ncg     rms          rms(c)
DAV:   1    -0.191642586897E+03   -0.21217E-01   -0.91936E-01  8160   0.205E+00    0.231E-01
DAV:   2    -0.191644400676E+03   -0.18138E-02   -0.25712E-02 12240   0.519E-01    0.308E-01
DAV:   3    -0.191644655656E+03   -0.25498E-03   -0.74635E-03 10960   0.538E-01    0.379E-01
DAV:   4    -0.191643485570E+03    0.11701E-02   -0.34445E-03 10120   0.354E-01    0.150E-01
DAV:   5    -0.191643370013E+03    0.11556E-03   -0.12197E-03  9960   0.245E-01    0.135E-01
DAV:   6    -0.191643247430E+03    0.12258E-03   -0.60564E-04  9280   0.165E-01    0.645E-02
DAV:   7    -0.191643184250E+03    0.63180E-04   -0.17158E-04  5800   0.645E-02
  24 F= -.19164318E+03 E0= -.19152953E+03  d E =-.217450E-01
       N       E                     dE             d eps       ncg     rms          rms(c)
DAV:   1    -0.191630120586E+03    0.13127E-01   -0.34936E-01  8160   0.126E+00    0.155E-01
DAV:   2    -0.191632037722E+03   -0.19171E-02   -0.13495E-02 11360   0.532E-01    0.394E-01
DAV:   3    -0.191630633660E+03    0.14041E-02   -0.46680E-03 11960   0.450E-01    0.143E-01
DAV:   4    -0.191630566956E+03    0.66704E-04   -0.87095E-04  8800   0.189E-01
  25 F= -.19163057E+03 E0= -.19151639E+03  d E =0.126173E-01
       N       E                     dE             d eps       ncg     rms          rms(c)
DAV:   1    -0.191652292373E+03   -0.21659E-01   -0.11127E+00  8160   0.225E+00    0.230E-01
DAV:   2    -0.191655606467E+03   -0.33141E-02   -0.33480E-02 12240   0.660E-01    0.417E-01
DAV:   3    -0.191654451150E+03    0.11553E-02   -0.78600E-03 12360   0.602E-01    0.269E-01
DAV:   4    -0.191653911636E+03    0.53951E-03   -0.19753E-03  9720   0.298E-01    0.170E-01
DAV:   5    -0.191653697787E+03    0.21385E-03   -0.10106E-03  9600   0.231E-01    0.105E-01
DAV:   6    -0.191653721638E+03   -0.23851E-04   -0.54840E-04  9080   0.147E-01
  26 F= -.19165372E+03 E0= -.19154057E+03  d E =-.231547E-01
       N       E                     dE             d eps       ncg     rms          rms(c)
DAV:   1    -0.191648321731E+03    0.53761E-02   -0.59761E-02  8160   0.538E-01    0.857E-02
DAV:   2    -0.191649544894E+03   -0.12232E-02   -0.42688E-03 13560   0.362E-01    0.335E-01
DAV:   3    -0.191648357442E+03    0.11875E-02   -0.22751E-03 10120   0.328E-01    0.573E-02
DAV:   4    -0.191648374305E+03   -0.16863E-04   -0.19847E-04  5960   0.902E-02
  27 F= -.19164837E+03 E0= -.19153478E+03  d E =0.534733E-02
       N       E                     dE             d eps       ncg     rms          rms(c)
DAV:   1    -0.191586633301E+03    0.61724E-01   -0.62767E+00  8160   0.532E+00    0.623E-01
DAV:   2    -0.191608373939E+03   -0.21741E-01   -0.21223E-01 12200   0.169E+00    0.115E+00
DAV:   3    -0.191600201379E+03    0.81726E-02   -0.57114E-02 12440   0.161E+00    0.799E-01
DAV:   4    -0.191594815243E+03    0.53861E-02   -0.15737E-02 12240   0.757E-01    0.390E-01
DAV:   5    -0.191594828321E+03   -0.13078E-04   -0.10152E-02 10560   0.649E-01    0.439E-01
DAV:   6    -0.191593536749E+03    0.12916E-02   -0.59059E-03 11560   0.471E-01    0.230E-01
DAV:   7    -0.191593539039E+03   -0.22903E-05   -0.32266E-03 10440   0.391E-01    0.242E-01
DAV:   8    -0.191592832050E+03    0.70699E-03   -0.11821E-03 11440   0.233E-01    0.288E-02
DAV:   9    -0.191592843703E+03   -0.11653E-04   -0.95570E-05  6160   0.345E-02
  28 F= -.19159284E+03 E0= -.19147752E+03  d E =0.555306E-01
       N       E                     dE             d eps       ncg     rms          rms(c)
DAV:   1    -0.191646161698E+03   -0.53330E-01   -0.66165E+00  8160   0.550E+00    0.642E-01
DAV:   2    -0.191667837016E+03   -0.21675E-01   -0.22724E-01 12160   0.166E+00    0.114E+00
DAV:   3    -0.191661880395E+03    0.59566E-02   -0.63310E-02 12120   0.169E+00    0.830E-01
DAV:   4    -0.191655344963E+03    0.65354E-02   -0.16050E-02 11680   0.789E-01    0.377E-01
DAV:   5    -0.191655238384E+03    0.10658E-03   -0.10063E-02 10600   0.644E-01    0.439E-01
DAV:   6    -0.191654050596E+03    0.11878E-02   -0.62309E-03 11600   0.483E-01    0.240E-01
DAV:   7    -0.191653978519E+03    0.72076E-04   -0.33104E-03 10080   0.399E-01    0.239E-01
DAV:   8    -0.191653272615E+03    0.70590E-03   -0.11426E-03 10480   0.236E-01    0.316E-02
DAV:   9    -0.191653276699E+03   -0.40840E-05   -0.10943E-04  6360   0.369E-02
  29 F= -.19165328E+03 E0= -.19154029E+03  d E =-.604330E-01
       N       E                     dE             d eps       ncg     rms          rms(c)
DAV:   1    -0.191655696808E+03   -0.24242E-02   -0.12467E-02  8160   0.239E-01    0.274E-02
DAV:   2    -0.191655737327E+03   -0.40519E-04   -0.40625E-04 12080   0.678E-02
  30 F= -.19165574E+03 E0= -.19154303E+03  d E =-.246063E-02
       N       E                     dE             d eps       ncg     rms          rms(c)
DAV:   1    -0.191634246495E+03    0.21450E-01   -0.82002E-01  8160   0.194E+00    0.214E-01
DAV:   2    -0.191636210951E+03   -0.19645E-02   -0.27268E-02 12120   0.564E-01    0.289E-01
DAV:   3    -0.191636292083E+03   -0.81132E-04   -0.59493E-03 12480   0.506E-01    0.308E-01
DAV:   4    -0.191635430399E+03    0.86168E-03   -0.27499E-03 10440   0.335E-01    0.151E-01
DAV:   5    -0.191635346930E+03    0.83469E-04   -0.90535E-04  9080   0.215E-01
  31 F= -.19163535E+03 E0= -.19152171E+03  d E =0.203904E-01
       N       E                     dE             d eps       ncg     rms          rms(c)
DAV:   1    -0.191619976006E+03    0.15454E-01   -0.12927E+00  8160   0.244E+00    0.321E-01
DAV:   2    -0.191622713298E+03   -0.27373E-02   -0.38603E-02 13160   0.687E-01    0.498E-01
DAV:   3    -0.191622002296E+03    0.71100E-03   -0.14531E-02 12360   0.809E-01    0.473E-01
DAV:   4    -0.191619866266E+03    0.21360E-02   -0.49858E-03 10920   0.423E-01    0.154E-01
DAV:   5    -0.191620281746E+03   -0.41548E-03   -0.28429E-03 11080   0.345E-01    0.286E-01
DAV:   6    -0.191619554638E+03    0.72711E-03   -0.19445E-03  9880   0.297E-01    0.901E-02
DAV:   7    -0.191619591778E+03   -0.37140E-04   -0.57687E-04  8720   0.153E-01
  32 F= -.19161959E+03 E0= -.19150490E+03  d E =0.157552E-01
       N       E                     dE             d eps       ncg     rms          rms(c)
DAV:   1    -0.191629974899E+03   -0.10420E-01   -0.23760E-01  8160   0.106E+00    0.132E-01
DAV:   2    -0.191630729377E+03   -0.75448E-03   -0.99310E-03 12320   0.326E-01    0.201E-01
DAV:   3    -0.191630666078E+03    0.63300E-04   -0.27147E-03 11080   0.319E-01    0.193E-01
DAV:   4    -0.191630310449E+03    0.35563E-03   -0.10271E-03  9080   0.198E-01    0.780E-02
DAV:   5    -0.191630292954E+03    0.17495E-04   -0.29910E-04  6400   0.112E-01
  33 F= -.19163029E+03 E0= -.19151536E+03  d E =-.107012E-01
       N       E                     dE             d eps       ncg     rms          rms(c)
DAV:   1    -0.191636166346E+03   -0.58559E-02   -0.34614E-01  8160   0.125E+00    0.204E-01
DAV:   2    -0.191639430139E+03   -0.32638E-02   -0.17378E-02 13520   0.753E-01    0.559E-01
DAV:   3    -0.191636067707E+03    0.33624E-02   -0.72710E-03 11360   0.611E-01    0.133E-01
DAV:   4    -0.191636183082E+03   -0.11538E-03   -0.15850E-03 10160   0.250E-01    0.192E-01
DAV:   5    -0.191635891828E+03    0.29125E-03   -0.11622E-03  9560   0.241E-01    0.111E-01
DAV:   6    -0.191635753430E+03    0.13840E-03   -0.42365E-04  7240   0.121E-01    0.490E-02
DAV:   7    -0.191635786050E+03   -0.32620E-04   -0.25315E-04  6840   0.107E-01
  34 F= -.19163579E+03 E0= -.19152080E+03  d E =-.549310E-02
       N       E                     dE             d eps       ncg     rms          rms(c)
DAV:   1    -0.191650942092E+03   -0.15189E-01   -0.73426E-01  8160   0.182E+00    0.213E-01
DAV:   2    -0.191652258293E+03   -0.13162E-02   -0.21821E-02 12240   0.542E-01    0.264E-01
DAV:   3    -0.191652232881E+03    0.25412E-04   -0.54344E-03 12240   0.483E-01    0.286E-01
DAV:   4    -0.191651537447E+03    0.69543E-03   -0.26436E-03 10680   0.326E-01    0.158E-01
DAV:   5    -0.191651550591E+03   -0.13144E-04   -0.13968E-03  9960   0.257E-01    0.169E-01
DAV:   6    -0.191651269515E+03    0.28108E-03   -0.71323E-04  8160   0.179E-01    0.520E-02
DAV:   7    -0.191651318082E+03   -0.48568E-04   -0.26232E-04  6920   0.108E-01
  35 F= -.19165132E+03 E0= -.19153703E+03  d E =-.155320E-01
       N       E                     dE             d eps       ncg     rms          rms(c)
DAV:   1    -0.191666903809E+03   -0.15634E-01   -0.61646E-01  8160   0.171E+00    0.230E-01
DAV:   2    -0.191667752234E+03   -0.84842E-03   -0.19879E-02 12040   0.447E-01    0.277E-01
DAV:   3    -0.191668139799E+03   -0.38757E-03   -0.60821E-03 12200   0.554E-01    0.361E-01
DAV:   4    -0.191666734423E+03    0.14054E-02   -0.25870E-03 11080   0.356E-01    0.833E-02
DAV:   5    -0.191666739443E+03   -0.50205E-05   -0.79628E-04 10200   0.148E-01
  36 F= -.19166674E+03 E0= -.19155369E+03  d E =-.154214E-01
       N       E                     dE             d eps       ncg     rms          rms(c)
DAV:   1    -0.191702314246E+03   -0.35580E-01   -0.32999E+00  8160   0.389E+00    0.434E-01
DAV:   2    -0.191707816336E+03   -0.55021E-02   -0.91508E-02 12240   0.845E-01    0.485E-01
DAV:   3    -0.191710509878E+03   -0.26935E-02   -0.25830E-02 11240   0.102E+00    0.769E-01
DAV:   4    -0.191704910272E+03    0.55996E-02   -0.11068E-02 11200   0.678E-01    0.198E-01
DAV:   5    -0.191705179286E+03   -0.26901E-03   -0.33999E-03 10520   0.412E-01    0.282E-01
DAV:   6    -0.191704529699E+03    0.64959E-03   -0.23975E-03 11000   0.354E-01    0.131E-01
DAV:   7    -0.191704455731E+03    0.73968E-04   -0.88489E-04  9560   0.202E-01
  37 F= -.19170446E+03 E0= -.19159371E+03  d E =-.377163E-01
       N       E                     dE             d eps       ncg     rms          rms(c)
DAV:   1    -0.191709189669E+03   -0.46600E-02   -0.77625E-02  8160   0.609E-01    0.102E-01
DAV:   2    -0.191709534330E+03   -0.34466E-03   -0.35251E-03 12720   0.275E-01    0.195E-01
DAV:   3    -0.191709184168E+03    0.35016E-03   -0.13680E-03 10320   0.267E-01    0.100E-01
DAV:   4    -0.191709143906E+03    0.40262E-04   -0.44847E-04  8320   0.141E-01
  38 F= -.19170914E+03 E0= -.19159887E+03  d E =-.468817E-02
       N       E                     dE             d eps       ncg     rms          rms(c)
DAV:   1    -0.191738221624E+03   -0.29037E-01   -0.23358E+00  8160   0.325E+00    0.381E-01
DAV:   2    -0.191745360621E+03   -0.71390E-02   -0.71633E-02 12280   0.929E-01    0.679E-01
DAV:   3    -0.191742224907E+03    0.31357E-02   -0.23367E-02 11440   0.998E-01    0.493E-01
DAV:   4    -0.191740082883E+03    0.21420E-02   -0.53583E-03 11520   0.472E-01    0.206E-01
DAV:   5    -0.191740002005E+03    0.80878E-04   -0.27134E-03 11000   0.391E-01    0.223E-01
DAV:   6    -0.191739507499E+03    0.49451E-03   -0.14686E-03 10760   0.269E-01    0.818E-02
DAV:   7    -0.191739550876E+03   -0.43377E-04   -0.51473E-04  8480   0.154E-01
  39 F= -.19173955E+03 E0= -.19163160E+03  d E =-.304070E-01
       N       E                     dE             d eps       ncg     rms          rms(c)
DAV:   1    -0.191751831263E+03   -0.12324E-01   -0.59723E-01  8160   0.163E+00    0.237E-01
DAV:   2    -0.191759734726E+03   -0.79035E-02   -0.35339E-02 13600   0.102E+00    0.830E-01
DAV:   3    -0.191752445211E+03    0.72895E-02   -0.15779E-02 12040   0.860E-01    0.158E-01
DAV:   4    -0.191752225708E+03    0.21950E-03   -0.97963E-04 10080   0.148E-01    0.769E-02
DAV:   5    -0.191752143965E+03    0.81742E-04   -0.38715E-04  9120   0.741E-02
  40 F= -.19175214E+03 E0= -.19164576E+03  d E =-.125931E-01
       N       E                     dE             d eps       ncg     rms          rms(c)
DAV:   1    -0.191752726371E+03   -0.50066E-03   -0.35497E-01  8160   0.131E+00    0.232E-01
DAV:   2    -0.191759458519E+03   -0.67321E-02   -0.25603E-02 11760   0.938E-01    0.770E-01
DAV:   3    -0.191752622374E+03    0.68361E-02   -0.13354E-02 12040   0.834E-01    0.168E-01
DAV:   4    -0.191752679666E+03   -0.57292E-04   -0.16537E-03 10040   0.264E-01    0.186E-01
DAV:   5    -0.191752350323E+03    0.32934E-03   -0.11266E-03 10880   0.232E-01    0.765E-02
DAV:   6    -0.191752259363E+03    0.90960E-04   -0.31880E-04  6800   0.931E-02
  41 F= -.19175226E+03 E0= -.19164544E+03  d E =-.115398E-03
       N       E                     dE             d eps       ncg     rms          rms(c)
DAV:   1    -0.191776296153E+03   -0.23946E-01   -0.25872E+00  8160   0.344E+00    0.377E-01
DAV:   2    -0.191782329712E+03   -0.60336E-02   -0.78138E-02 12160   0.874E-01    0.499E-01
DAV:   3    -0.191781730043E+03    0.59967E-03   -0.14584E-02 11120   0.898E-01    0.483E-01
DAV:   4    -0.191779376249E+03    0.23538E-02   -0.55176E-03 11600   0.532E-01    0.221E-01
DAV:   5    -0.191779221274E+03    0.15498E-03   -0.25790E-03 10360   0.378E-01    0.199E-01
DAV:   6    -0.191778919143E+03    0.30213E-03   -0.15834E-03 10360   0.238E-01    0.108E-01
DAV:   7    -0.191778870661E+03    0.48482E-04   -0.71950E-04  9320   0.187E-01
  42 F= -.19177887E+03 E0= -.19167393E+03  d E =-.266113E-01
       N       E                     dE             d eps       ncg     rms          rms(c)
DAV:   1    -0.191788060218E+03   -0.91411E-02   -0.25067E-01  8160   0.107E+00    0.117E-01
DAV:   2    -0.191789143305E+03   -0.10831E-02   -0.86016E-03 13320   0.329E-01    0.256E-01
DAV:   3    -0.191788549157E+03    0.59415E-03   -0.24142E-03 11480   0.335E-01    0.125E-01
DAV:   4    -0.191788411515E+03    0.13764E-03   -0.31840E-04  7440   0.114E-01    0.490E-02
DAV:   5    -0.191788411750E+03   -0.23505E-06   -0.13197E-04  6480   0.853E-02
  43 F= -.19178841E+03 E0= -.19168460E+03  d E =-.954109E-02
       N       E                     dE             d eps       ncg     rms          rms(c)
DAV:   1    -0.191777507718E+03    0.10904E-01   -0.58176E-01  8160   0.163E+00    0.306E-01
DAV:   2    -0.191796159735E+03   -0.18652E-01   -0.58162E-02 12760   0.152E+00    0.131E+00
DAV:   3    -0.191777750159E+03    0.18410E-01   -0.33202E-02 11360   0.127E+00    0.182E-01
DAV:   4    -0.191777608674E+03    0.14149E-03   -0.19031E-03 11480   0.287E-01    0.161E-01
DAV:   5    -0.191777406255E+03    0.20242E-03   -0.10313E-03 11320   0.229E-01    0.967E-02
DAV:   6    -0.191777301170E+03    0.10508E-03   -0.36261E-04  8320   0.115E-01    0.597E-02
DAV:   7    -0.191777353089E+03   -0.51918E-04   -0.31706E-04  8600   0.140E-01
  44 F= -.19177735E+03 E0= -.19167182E+03  d E =0.110587E-01
       N       E                     dE             d eps       ncg     rms          rms(c)
DAV:   1    -0.191741131189E+03    0.36170E-01   -0.43761E+00  8160   0.443E+00    0.584E-01
DAV:   2    -0.191795406393E+03   -0.54275E-01   -0.22902E-01 13400   0.246E+00    0.235E+00
DAV:   3    -0.191746899944E+03    0.48506E-01   -0.12766E-01 12000   0.217E+00    0.368E-01
DAV:   4    -0.191745568836E+03    0.13311E-02   -0.60318E-03 11000   0.332E-01    0.236E-01
DAV:   5    -0.191744954249E+03    0.61459E-03   -0.33823E-03 12160   0.353E-01    0.202E-01
DAV:   6    -0.191745128485E+03   -0.17424E-03   -0.27604E-03 11280   0.395E-01    0.225E-01
DAV:   7    -0.191744583241E+03    0.54524E-03   -0.13668E-03 10360   0.259E-01    0.910E-02
DAV:   8    -0.191744528608E+03    0.54633E-04   -0.34025E-04  9000   0.142E-01
  45 F= -.19174453E+03 E0= -.19163472E+03  d E =0.328245E-01
       N       E                     dE             d eps       ncg     rms          rms(c)
DAV:   1    -0.191782912721E+03   -0.38329E-01   -0.66064E+00  8160   0.541E+00    0.722E-01
DAV:   2    -0.191856508172E+03   -0.73595E-01   -0.33027E-01 13440   0.315E+00    0.240E+00
DAV:   3    -0.191791372848E+03    0.65135E-01   -0.12320E-01 11960   0.253E+00    0.443E-01
DAV:   4    -0.191790302260E+03    0.10706E-02   -0.95956E-03 11400   0.630E-01    0.392E-01
DAV:   5    -0.191788923753E+03    0.13785E-02   -0.67236E-03 12760   0.614E-01    0.280E-01
DAV:   6    -0.191788387419E+03    0.53633E-03   -0.35163E-03 11960   0.396E-01    0.171E-01
DAV:   7    -0.191788274662E+03    0.11276E-03   -0.17125E-03 12760   0.275E-01    0.174E-01
DAV:   8    -0.191787955815E+03    0.31885E-03   -0.72733E-04  9440   0.211E-01    0.556E-02
DAV:   9    -0.191787922924E+03    0.32891E-04   -0.10309E-04  5880   0.612E-02
  46 F= -.19178792E+03 E0= -.19168299E+03  d E =-.433943E-01
       N       E                     dE             d eps       ncg     rms          rms(c)
DAV:   1    -0.191792302919E+03   -0.43471E-02   -0.13276E-01  8160   0.768E-01    0.933E-02
DAV:   2    -0.191792740781E+03   -0.43786E-03   -0.46337E-03 13600   0.269E-01    0.166E-01
DAV:   3    -0.191792521234E+03    0.21955E-03   -0.12526E-03 10280   0.248E-01    0.105E-01
DAV:   4    -0.191792432564E+03    0.88669E-04   -0.31238E-04  7720   0.127E-01
  47 F= -.19179243E+03 E0= -.19168765E+03  d E =-.450964E-02
       N       E                     dE             d eps       ncg     rms          rms(c)
DAV:   1    -0.191804344725E+03   -0.11823E-01   -0.60289E-01  8160   0.164E+00    0.211E-01
DAV:   2    -0.191808061499E+03   -0.37168E-02   -0.24326E-02 13600   0.670E-01    0.532E-01
DAV:   3    -0.191805128081E+03    0.29334E-02   -0.91834E-03 11880   0.647E-01    0.197E-01
DAV:   4    -0.191804774241E+03    0.35384E-03   -0.10656E-03  9920   0.201E-01    0.951E-02
DAV:   5    -0.191804771707E+03    0.25340E-05   -0.64809E-04  9720   0.184E-01
  48 F= -.19180477E+03 E0= -.19170090E+03  d E =-.123391E-01
       N       E                     dE             d eps       ncg     rms          rms(c)
DAV:   1    -0.191827375150E+03   -0.22601E-01   -0.17585E+00  8160   0.282E+00    0.351E-01
DAV:   2    -0.191841152850E+03   -0.13778E-01   -0.70374E-02 13400   0.128E+00    0.103E+00
DAV:   3    -0.191829439210E+03    0.11714E-01   -0.26371E-02 11960   0.115E+00    0.246E-01
DAV:   4    -0.191829050311E+03    0.38890E-03   -0.24001E-03 11600   0.274E-01    0.175E-01
DAV:   5    -0.191828798606E+03    0.25171E-03   -0.16114E-03 11600   0.285E-01    0.143E-01
DAV:   6    -0.191828696364E+03    0.10224E-03   -0.94443E-04 10680   0.228E-01    0.938E-02
DAV:   7    -0.191828570538E+03    0.12583E-03   -0.32261E-04  9360   0.108E-01    0.260E-02
DAV:   8    -0.191828562501E+03    0.80379E-05   -0.57559E-05  6800   0.411E-02
  49 F= -.19182856E+03 E0= -.19172678E+03  d E =-.237908E-01
       N       E                     dE             d eps       ncg     rms          rms(c)
DAV:   1    -0.191824254728E+03    0.43158E-02   -0.55262E-02  8160   0.501E-01    0.575E-02
DAV:   2    -0.191824606538E+03   -0.35181E-03   -0.18546E-03 13120   0.194E-01    0.162E-01
DAV:   3    -0.191824310955E+03    0.29558E-03   -0.66819E-04  9200   0.189E-01    0.448E-02
DAV:   4    -0.191824303957E+03    0.69977E-05   -0.72064E-05  5800   0.491E-02
  50 F= -.19182430E+03 E0= -.19172212E+03  d E =0.425854E-02
       N       E                     dE             d eps       ncg     rms          rms(c)
DAV:   1    -0.191780143436E+03    0.44168E-01   -0.76896E+00  8160   0.591E+00    0.685E-01
DAV:   2    -0.191817463322E+03   -0.37320E-01   -0.25699E-01 13320   0.201E+00    0.164E+00
DAV:   3    -0.191792577361E+03    0.24886E-01   -0.96462E-02 11880   0.205E+00    0.680E-01
DAV:   4    -0.191788499144E+03    0.40782E-02   -0.13350E-02 11320   0.653E-01    0.351E-01
DAV:   5    -0.191787746936E+03    0.75221E-03   -0.72684E-03 12240   0.579E-01    0.391E-01
DAV:   6    -0.191786989326E+03    0.75761E-03   -0.58773E-03 12360   0.579E-01    0.251E-01
DAV:   7    -0.191786253286E+03    0.73604E-03   -0.16501E-03 11480   0.253E-01    0.580E-02
DAV:   8    -0.191786266291E+03   -0.13005E-04   -0.26833E-04  8720   0.116E-01
  51 F= -.19178627E+03 E0= -.19167941E+03  d E =0.380377E-01
       N       E                     dE             d eps       ncg     rms          rms(c)
DAV:   1    -0.191770945871E+03    0.15307E-01   -0.23100E+00  8160   0.322E+00    0.391E-01
DAV:   2    -0.191790355821E+03   -0.19410E-01   -0.92164E-02 12240   0.154E+00    0.129E+00
DAV:   3    -0.191774125506E+03    0.16230E-01   -0.42095E-02 11760   0.133E+00    0.283E-01
DAV:   4    -0.191774129227E+03   -0.37213E-05   -0.38622E-03 11400   0.416E-01    0.284E-01
DAV:   5    -0.191773267732E+03    0.86150E-03   -0.24233E-03 11320   0.385E-01    0.147E-01
DAV:   6    -0.191773186281E+03    0.81451E-04   -0.11740E-03 10400   0.202E-01    0.883E-02
DAV:   7    -0.191773058612E+03    0.12767E-03   -0.36252E-04  9120   0.936E-02    0.390E-02
DAV:   8    -0.191773057725E+03    0.88784E-06   -0.84441E-05  7480   0.741E-02
  52 F= -.19177306E+03 E0= -.19166414E+03  d E =0.132086E-01
       N       E                     dE             d eps       ncg     rms          rms(c)
DAV:   1    -0.191778914516E+03   -0.58559E-02   -0.20267E+00  8160   0.298E+00    0.329E-01
DAV:   2    -0.191787431320E+03   -0.85168E-02   -0.53623E-02 12760   0.113E+00    0.801E-01
DAV:   3    -0.191781187471E+03    0.62438E-02   -0.19250E-02 12040   0.978E-01    0.301E-01
DAV:   4    -0.191780700127E+03    0.48734E-03   -0.47103E-03 11440   0.406E-01    0.241E-01
DAV:   5    -0.191780329316E+03    0.37081E-03   -0.23846E-03 10240   0.368E-01    0.177E-01
DAV:   6    -0.191780028605E+03    0.30071E-03   -0.11422E-03 10240   0.226E-01    0.816E-02
DAV:   7    -0.191780157097E+03   -0.12849E-03   -0.58788E-04  9200   0.193E-01    0.130E-01
DAV:   8    -0.191779958413E+03    0.19868E-03   -0.30660E-04  8080   0.143E-01    0.189E-02
DAV:   9    -0.191779960036E+03   -0.16223E-05   -0.26637E-05  6160   0.230E-02
  53 F= -.19177996E+03 E0= -.19167045E+03  d E =-.690231E-02
       N       E                     dE             d eps       ncg     rms          rms(c)
DAV:   1    -0.191788226652E+03   -0.82682E-02   -0.97723E-01  8160   0.208E+00    0.223E-01
DAV:   2    -0.191790397990E+03   -0.21713E-02   -0.25254E-02 12440   0.612E-01    0.322E-01
DAV:   3    -0.191789589435E+03    0.80855E-03   -0.55584E-03 12200   0.534E-01    0.229E-01
DAV:   4    -0.191789146258E+03    0.44318E-03   -0.22221E-03 10480   0.301E-01    0.144E-01
DAV:   5    -0.191789123840E+03    0.22417E-04   -0.11985E-03  9880   0.242E-01    0.152E-01
DAV:   6    -0.191788907851E+03    0.21599E-03   -0.61308E-04  8400   0.186E-01    0.506E-02
DAV:   7    -0.191788916351E+03   -0.85003E-05   -0.14324E-04  6160   0.801E-02
  54 F= -.19178892E+03 E0= -.19167928E+03  d E =-.895632E-02
       N       E                     dE             d eps       ncg     rms          rms(c)
DAV:   1    -0.191804806170E+03   -0.15898E-01   -0.28693E+00  8160   0.358E+00    0.400E-01
DAV:   2    -0.191811105284E+03   -0.62991E-02   -0.81642E-02 12640   0.107E+00    0.553E-01
DAV:   3    -0.191808702900E+03    0.24024E-02   -0.17516E-02 12200   0.945E-01    0.388E-01
DAV:   4    -0.191807207460E+03    0.14954E-02   -0.53132E-03 12040   0.520E-01    0.221E-01
DAV:   5    -0.191807252172E+03   -0.44712E-04   -0.29324E-03 11520   0.392E-01    0.279E-01
DAV:   6    -0.191806585929E+03    0.66624E-03   -0.26458E-03 10280   0.345E-01    0.105E-01
DAV:   7    -0.191806494202E+03    0.91727E-04   -0.54161E-04  8760   0.118E-01
  55 F= -.19180649E+03 E0= -.19169681E+03  d E =-.175779E-01
       N       E                     dE             d eps       ncg     rms          rms(c)
DAV:   1    -0.191815088535E+03   -0.85026E-02   -0.80404E-01  8160   0.191E+00    0.212E-01
DAV:   2    -0.191817366718E+03   -0.22782E-02   -0.24093E-02 12320   0.560E-01    0.352E-01
DAV:   3    -0.191816522879E+03    0.84384E-03   -0.62527E-03 11320   0.568E-01    0.252E-01
DAV:   4    -0.191815960270E+03    0.56261E-03   -0.14636E-03 10040   0.282E-01    0.109E-01
DAV:   5    -0.191815955293E+03    0.49764E-05   -0.71420E-04 10440   0.198E-01
  56 F= -.19181596E+03 E0= -.19170620E+03  d E =-.946109E-02
       N       E                     dE             d eps       ncg     rms          rms(c)
DAV:   1    -0.191815379464E+03    0.58081E-03   -0.48901E-03  9320   0.220E-01    0.695E-02
DAV:   2    -0.191816396071E+03   -0.10166E-02   -0.27359E-03 11320   0.351E-01    0.298E-01
DAV:   3    -0.191815345449E+03    0.10506E-02   -0.16604E-03 10120   0.302E-01    0.405E-02
DAV:   4    -0.191815341140E+03    0.43095E-05   -0.58672E-05  5880   0.539E-02
  57 F= -.19181534E+03 E0= -.19170582E+03  d E =0.614154E-03
       N       E                     dE             d eps       ncg     rms          rms(c)
DAV:   1    -0.191822291678E+03   -0.69462E-02   -0.61155E-01  8160   0.165E+00    0.163E-01
DAV:   2    -0.191823457652E+03   -0.11660E-02   -0.14469E-02 11840   0.412E-01    0.204E-01
DAV:   3    -0.191823241726E+03    0.21593E-03   -0.26920E-03 11960   0.375E-01    0.174E-01
DAV:   4    -0.191822947532E+03    0.29419E-03   -0.93783E-04 10000   0.223E-01    0.821E-02
DAV:   5    -0.191822989622E+03   -0.42090E-04   -0.45468E-04  8920   0.160E-01
  58 F= -.19182299E+03 E0= -.19171367E+03  d E =-.764848E-02
       N       E                     dE             d eps       ncg     rms          rms(c)
DAV:   1    -0.191819256438E+03    0.36911E-02   -0.20880E-01  8160   0.970E-01    0.122E-01
DAV:   2    -0.191821144806E+03   -0.18884E-02   -0.75455E-03 12640   0.472E-01    0.395E-01
DAV:   3    -0.191819440044E+03    0.17048E-02   -0.31845E-03 11200   0.442E-01    0.838E-02
DAV:   4    -0.191819362025E+03    0.78020E-04   -0.34092E-04  8640   0.874E-02
  59 F= -.19181936E+03 E0= -.19170983E+03  d E =0.362760E-02
       N       E                     dE             d eps       ncg     rms          rms(c)
DAV:   1    -0.191821527683E+03   -0.20876E-02   -0.26068E-01  8160   0.111E+00    0.189E-01
DAV:   2    -0.191824219536E+03   -0.26919E-02   -0.14454E-02 12720   0.650E-01    0.513E-01
DAV:   3    -0.191821482506E+03    0.27370E-02   -0.61389E-03 11760   0.588E-01    0.133E-01
DAV:   4    -0.191821383996E+03    0.98510E-04   -0.87411E-04 10120   0.191E-01
  60 F= -.19182138E+03 E0= -.19171147E+03  d E =-.202197E-02
       N       E                     dE             d eps       ncg     rms          rms(c)
DAV:   1    -0.191823739333E+03   -0.22568E-02   -0.89936E-02  8160   0.677E-01    0.138E-01
DAV:   2    -0.191826273083E+03   -0.25338E-02   -0.86843E-03 12320   0.571E-01    0.451E-01
DAV:   3    -0.191823701959E+03    0.25711E-02   -0.45097E-03 10880   0.494E-01    0.874E-02
DAV:   4    -0.191823733604E+03   -0.31645E-04   -0.42916E-04  8520   0.151E-01
  61 F= -.19182373E+03 E0= -.19171364E+03  d E =-.234961E-02
       N       E                     dE             d eps       ncg     rms          rms(c)
DAV:   1    -0.191830033562E+03   -0.63316E-02   -0.48360E-01  8160   0.148E+00    0.187E-01
DAV:   2    -0.191831418931E+03   -0.13854E-02   -0.15568E-02 12240   0.494E-01    0.303E-01
DAV:   3    -0.191830686757E+03    0.73217E-03   -0.41618E-03 11200   0.480E-01    0.206E-01
DAV:   4    -0.191830328022E+03    0.35873E-03   -0.12870E-03 10360   0.263E-01    0.114E-01
DAV:   5    -0.191830295558E+03    0.32464E-04   -0.67312E-04  9720   0.199E-01
  62 F= -.19183030E+03 E0= -.19172031E+03  d E =-.656195E-02
       N       E                     dE             d eps       ncg     rms          rms(c)
DAV:   1    -0.191835186705E+03   -0.48587E-02   -0.29547E-01  8160   0.117E+00    0.142E-01
DAV:   2    -0.191835934286E+03   -0.74758E-03   -0.84979E-03 12760   0.345E-01    0.212E-01
DAV:   3    -0.191835544423E+03    0.38986E-03   -0.19181E-03 12080   0.335E-01    0.127E-01
DAV:   4    -0.191835434136E+03    0.11029E-03   -0.55158E-04  9440   0.169E-01    0.928E-02
DAV:   5    -0.191835410920E+03    0.23216E-04   -0.39021E-04  9160   0.160E-01
  63 F= -.19183541E+03 E0= -.19172561E+03  d E =-.511536E-02
       N       E                     dE             d eps       ncg     rms          rms(c)
DAV:   1    -0.191840966095E+03   -0.55320E-02   -0.38493E-01  8160   0.133E+00    0.139E-01
DAV:   2    -0.191841724748E+03   -0.75865E-03   -0.10298E-02 12240   0.318E-01    0.164E-01
DAV:   3    -0.191841693351E+03    0.31397E-04   -0.19289E-03 11720   0.318E-01    0.167E-01
DAV:   4    -0.191841456676E+03    0.23667E-03   -0.64436E-04  9520   0.203E-01    0.876E-02
DAV:   5    -0.191841440314E+03    0.16362E-04   -0.34950E-04  8760   0.149E-01
  64 F= -.19184144E+03 E0= -.19173203E+03  d E =-.602939E-02
       N       E                     dE             d eps       ncg     rms          rms(c)
DAV:   1    -0.191844715473E+03   -0.32588E-02   -0.12174E-01  8160   0.753E-01    0.921E-02
DAV:   2    -0.191845196842E+03   -0.48137E-03   -0.36847E-03 13440   0.246E-01    0.170E-01
DAV:   3    -0.191844855889E+03    0.34095E-03   -0.10331E-03 10800   0.237E-01    0.713E-02
DAV:   4    -0.191844860018E+03   -0.41284E-05   -0.23678E-04  7600   0.102E-01
  65 F= -.19184486E+03 E0= -.19173583E+03  d E =-.341970E-02
       N       E                     dE             d eps       ncg     rms          rms(c)
DAV:   1    -0.191841331176E+03    0.35247E-02   -0.12377E-01  8160   0.755E-01    0.840E-02
DAV:   2    -0.191842344781E+03   -0.10136E-02   -0.45566E-03 13000   0.347E-01    0.270E-01
DAV:   3    -0.191841480802E+03    0.86398E-03   -0.15412E-03 10240   0.302E-01    0.525E-02
DAV:   4    -0.191841515398E+03   -0.34596E-04   -0.16847E-04  6760   0.958E-02
  66 F= -.19184152E+03 E0= -.19173204E+03  d E =0.334462E-02
       N       E                     dE             d eps       ncg     rms          rms(c)
DAV:   1    -0.191834390360E+03    0.70904E-02   -0.79354E-01  8160   0.190E+00    0.233E-01
DAV:   2    -0.191835696528E+03   -0.13062E-02   -0.20837E-02 11920   0.512E-01    0.310E-01
DAV:   3    -0.191835435895E+03    0.26063E-03   -0.60340E-03 11480   0.562E-01    0.306E-01
DAV:   4    -0.191834502260E+03    0.93363E-03   -0.20199E-03 11160   0.336E-01    0.111E-01
DAV:   5    -0.191834414402E+03    0.87858E-04   -0.80914E-04 10400   0.180E-01
  67 F= -.19183441E+03 E0= -.19172403E+03  d E =0.710100E-02
       N       E                     dE             d eps       ncg     rms          rms(c)
DAV:   1    -0.191824180478E+03    0.10322E-01   -0.15520E+00  8160   0.265E+00    0.289E-01
DAV:   2    -0.191829911132E+03   -0.57307E-02   -0.40045E-02 12960   0.868E-01    0.585E-01
DAV:   3    -0.191825744057E+03    0.41671E-02   -0.10183E-02 12120   0.774E-01    0.189E-01
DAV:   4    -0.191825669966E+03    0.74091E-04   -0.19530E-03 11360   0.267E-01    0.184E-01
DAV:   5    -0.191825555043E+03    0.11492E-03   -0.16503E-03 11400   0.310E-01    0.161E-01
DAV:   6    -0.191825353446E+03    0.20160E-03   -0.59256E-04  9040   0.172E-01    0.449E-02
DAV:   7    -0.191825314321E+03    0.39125E-04   -0.14410E-04  6600   0.636E-02
  68 F= -.19182531E+03 E0= -.19171440E+03  d E =0.910008E-02
       N       E                     dE             d eps       ncg     rms          rms(c)
DAV:   1    -0.191823708062E+03    0.16454E-02   -0.91850E-02  8160   0.641E-01    0.632E-02
DAV:   2    -0.191823939551E+03   -0.23149E-03   -0.21937E-03 12480   0.177E-01    0.105E-01
DAV:   3    -0.191823847508E+03    0.92043E-04   -0.44273E-04  9360   0.165E-01
  69 F= -.19182385E+03 E0= -.19171284E+03  d E =0.146681E-02
       N       E                     dE             d eps       ncg     rms          rms(c)
DAV:   1    -0.191829216560E+03   -0.52770E-02   -0.39289E-01  8160   0.137E+00    0.229E-01
DAV:   2    -0.191833368126E+03   -0.41516E-02   -0.23454E-02 12720   0.816E-01    0.604E-01
DAV:   3    -0.191829416277E+03    0.39518E-02   -0.94042E-03 11920   0.707E-01    0.169E-01
DAV:   4    -0.191829236777E+03    0.17950E-03   -0.10831E-03  9600   0.226E-01    0.132E-01
DAV:   5    -0.191829103809E+03    0.13297E-03   -0.84415E-04 10440   0.227E-01    0.106E-01
DAV:   6    -0.191828989503E+03    0.11431E-03   -0.44068E-04  8640   0.150E-01    0.465E-02
DAV:   7    -0.191828958944E+03    0.30559E-04   -0.10460E-04  6440   0.552E-02
  70 F= -.19182896E+03 E0= -.19171852E+03  d E =-.511144E-02
       N       E                     dE             d eps       ncg     rms          rms(c)
DAV:   1    -0.191834787166E+03   -0.57977E-02   -0.54571E-01  8160   0.159E+00    0.195E-01
DAV:   2    -0.191837212938E+03   -0.24258E-02   -0.19970E-02 12680   0.626E-01    0.403E-01
DAV:   3    -0.191835576248E+03    0.16367E-02   -0.52660E-03 12360   0.540E-01    0.170E-01
DAV:   4    -0.191835484451E+03    0.91797E-04   -0.11145E-03 10240   0.247E-01    0.146E-01
DAV:   5    -0.191835333228E+03    0.15122E-03   -0.85686E-04 10320   0.224E-01    0.106E-01
DAV:   6    -0.191835218804E+03    0.11442E-03   -0.50024E-04  8720   0.126E-01    0.382E-02
DAV:   7    -0.191835202649E+03    0.16155E-04   -0.11544E-04  6320   0.454E-02
  71 F= -.19183520E+03 E0= -.19172499E+03  d E =-.624371E-02
       N       E                     dE             d eps       ncg     rms          rms(c)
DAV:   1    -0.191841733458E+03   -0.65147E-02   -0.58663E-01  8160   0.165E+00    0.215E-01
DAV:   2    -0.191844888636E+03   -0.31552E-02   -0.21775E-02 12440   0.672E-01    0.501E-01
DAV:   3    -0.191842391233E+03    0.24974E-02   -0.72236E-03 11920   0.633E-01    0.182E-01
DAV:   4    -0.191842133912E+03    0.25732E-03   -0.99899E-04 10120   0.201E-01    0.964E-02
DAV:   5    -0.191842059878E+03    0.74035E-04   -0.58750E-04 10080   0.165E-01
  72 F= -.19184206E+03 E0= -.19173232E+03  d E =-.685723E-02
       N       E                     dE             d eps       ncg     rms          rms(c)
DAV:   1    -0.191840493576E+03    0.16403E-02   -0.30059E-02  8160   0.403E-01    0.719E-02
DAV:   2    -0.191841235913E+03   -0.74234E-03   -0.30679E-03 12480   0.299E-01    0.228E-01
DAV:   3    -0.191840518055E+03    0.71786E-03   -0.14908E-03 10200   0.271E-01    0.549E-02
DAV:   4    -0.191840489713E+03    0.28343E-04   -0.92885E-05  5800   0.692E-02
  73 F= -.19184049E+03 E0= -.19173074E+03  d E =0.157017E-02
       N       E                     dE             d eps       ncg     rms          rms(c)
DAV:   1    -0.191844311551E+03   -0.37935E-02   -0.21404E-01  8160   0.997E-01    0.118E-01
DAV:   2    -0.191845110099E+03   -0.79855E-03   -0.76561E-03 12440   0.360E-01    0.228E-01
DAV:   3    -0.191844665124E+03    0.44497E-03   -0.21069E-03 11800   0.324E-01    0.122E-01
DAV:   4    -0.191844519096E+03    0.14603E-03   -0.30646E-04  7920   0.128E-01    0.452E-02
DAV:   5    -0.191844496315E+03    0.22782E-04   -0.13745E-04  6520   0.505E-02
  74 F= -.19184450E+03 E0= -.19173522E+03  d E =-.400660E-02
       N       E                     dE             d eps       ncg     rms          rms(c)
DAV:   1    -0.191843561979E+03    0.95712E-03   -0.15846E-02  8160   0.293E-01    0.581E-02
DAV:   2    -0.191843946473E+03   -0.38449E-03   -0.13060E-03 13040   0.236E-01    0.174E-01
DAV:   3    -0.191843536307E+03    0.41017E-03   -0.62478E-04  9080   0.208E-01    0.332E-02
DAV:   4    -0.191843549426E+03   -0.13119E-04   -0.69178E-05  5760   0.605E-02
  75 F= -.19184355E+03 E0= -.19173405E+03  d E =0.946889E-03
       N       E                     dE             d eps       ncg     rms          rms(c)
DAV:   1    -0.191849119964E+03   -0.55837E-02   -0.43659E-01  8160   0.143E+00    0.171E-01
DAV:   2    -0.191850398369E+03   -0.12784E-02   -0.14663E-02 12080   0.453E-01    0.271E-01
DAV:   3    -0.191849896508E+03    0.50186E-03   -0.33068E-03 12240   0.429E-01    0.185E-01
DAV:   4    -0.191849633689E+03    0.26282E-03   -0.91261E-04  9840   0.230E-01    0.108E-01
DAV:   5    -0.191849553219E+03    0.80471E-04   -0.52732E-04  9120   0.178E-01
  76 F= -.19184955E+03 E0= -.19174055E+03  d E =-.600379E-02
       N       E                     dE             d eps       ncg     rms          rms(c)
DAV:   1    -0.191841225563E+03    0.84081E-02   -0.77336E-01  8160   0.191E+00    0.236E-01
DAV:   2    -0.191844243398E+03   -0.30178E-02   -0.29224E-02 12280   0.619E-01    0.441E-01
DAV:   3    -0.191842465612E+03    0.17778E-02   -0.94863E-03 12080   0.649E-01    0.267E-01
DAV:   4    -0.191841822155E+03    0.64346E-03   -0.18300E-03 11280   0.297E-01    0.113E-01
DAV:   5    -0.191841605725E+03    0.21643E-03   -0.71184E-04 10280   0.117E-01    0.615E-02
DAV:   6    -0.191841675108E+03   -0.69383E-04   -0.38341E-04 10040   0.148E-01
  77 F= -.19184168E+03 E0= -.19173222E+03  d E =0.787811E-02
       N       E                     dE             d eps       ncg     rms          rms(c)
DAV:   1    -0.191827674803E+03    0.13931E-01   -0.20715E+00  8160   0.311E+00    0.388E-01
DAV:   2    -0.191832784984E+03   -0.51102E-02   -0.68441E-02 11400   0.882E-01    0.552E-01
DAV:   3    -0.191831342927E+03    0.14421E-02   -0.17908E-02 12280   0.939E-01    0.463E-01
DAV:   4    -0.191829450614E+03    0.18923E-02   -0.51414E-03 11960   0.535E-01    0.215E-01
DAV:   5    -0.191829029531E+03    0.42108E-03   -0.24424E-03 11000   0.343E-01    0.184E-01
DAV:   6    -0.191828895133E+03    0.13440E-03   -0.18145E-03 11000   0.306E-01    0.131E-01
DAV:   7    -0.191828647074E+03    0.24806E-03   -0.59222E-04  9520   0.141E-01    0.415E-02
DAV:   8    -0.191828643763E+03    0.33108E-05   -0.10062E-04  7360   0.780E-02
  78 F= -.19182864E+03 E0= -.19171871E+03  d E =0.130313E-01
       N       E                     dE             d eps       ncg     rms          rms(c)
DAV:   1    -0.191842843709E+03   -0.14197E-01   -0.30118E+00  8160   0.376E+00    0.464E-01
DAV:   2    -0.191853906250E+03   -0.11063E-01   -0.10320E-01 12960   0.127E+00    0.885E-01
DAV:   3    -0.191847169570E+03    0.67367E-02   -0.29271E-02 12280   0.125E+00    0.463E-01
DAV:   4    -0.191845281151E+03    0.18884E-02   -0.58408E-03 12320   0.523E-01    0.234E-01
DAV:   5    -0.191844750246E+03    0.53090E-03   -0.32557E-03 11680   0.394E-01    0.218E-01
DAV:   6    -0.191844492624E+03    0.25762E-03   -0.25514E-03 11840   0.366E-01    0.145E-01
DAV:   7    -0.191844177421E+03    0.31520E-03   -0.79090E-04 10320   0.157E-01    0.372E-02
DAV:   8    -0.191844146545E+03    0.30876E-04   -0.78970E-05  7120   0.391E-02
  79 F= -.19184415E+03 E0= -.19173497E+03  d E =-.155028E-01
       N       E                     dE             d eps       ncg     rms          rms(c)
DAV:   1    -0.191853502682E+03   -0.93253E-02   -0.12806E+00  8160   0.245E+00    0.299E-01
DAV:   2    -0.191857663988E+03   -0.41613E-02   -0.43377E-02 11960   0.784E-01    0.512E-01
DAV:   3    -0.191855692317E+03    0.19717E-02   -0.10852E-02 11800   0.772E-01    0.318E-01
DAV:   4    -0.191854872180E+03    0.82014E-03   -0.26482E-03 12360   0.377E-01    0.169E-01
DAV:   5    -0.191854663445E+03    0.20873E-03   -0.15144E-03 10480   0.291E-01    0.154E-01
DAV:   6    -0.191854495287E+03    0.16816E-03   -0.11177E-03 10440   0.233E-01    0.853E-02
DAV:   7    -0.191854388973E+03    0.10631E-03   -0.29499E-04  7600   0.916E-02    0.319E-02
DAV:   8    -0.191854381602E+03    0.73709E-05   -0.69718E-05  7120   0.566E-02
  80 F= -.19185438E+03 E0= -.19174611E+03  d E =-.102351E-01
       N       E                     dE             d eps       ncg     rms          rms(c)
DAV:   1    -0.191855948250E+03   -0.15593E-02   -0.31293E-02  8160   0.387E-01    0.529E-02
DAV:   2    -0.191856020374E+03   -0.72124E-04   -0.12047E-03 11800   0.126E-01    0.692E-02
DAV:   3    -0.191855995395E+03    0.24979E-04   -0.26695E-04  8640   0.124E-01
  81 F= -.19185600E+03 E0= -.19174799E+03  d E =-.161379E-02
       N       E                     dE             d eps       ncg     rms          rms(c)
DAV:   1    -0.191855030833E+03    0.98954E-03   -0.10505E-02  8160   0.236E-01    0.455E-02
DAV:   2    -0.191855485540E+03   -0.45471E-03   -0.10772E-03 11040   0.232E-01    0.200E-01
DAV:   3    -0.191855019805E+03    0.46574E-03   -0.61455E-04  8640   0.199E-01    0.117E-02
DAV:   4    -0.191855033431E+03   -0.13626E-04   -0.29505E-05  5760   0.190E-02
  82 F= -.19185503E+03 E0= -.19174680E+03  d E =0.961964E-03
       N       E                     dE             d eps       ncg     rms          rms(c)
DAV:   1    -0.191854537560E+03    0.48224E-03   -0.47478E-02  8160   0.481E-01    0.123E-01
DAV:   2    -0.191856473997E+03   -0.19364E-02   -0.54243E-03 11440   0.569E-01    0.426E-01
DAV:   3    -0.191854339809E+03    0.21342E-02   -0.27401E-03 10800   0.443E-01    0.645E-02
DAV:   4    -0.191854421415E+03   -0.81606E-04   -0.39228E-04  8440   0.149E-01
  83 F= -.19185442E+03 E0= -.19174613E+03  d E =0.612017E-03
       N       E                     dE             d eps       ncg     rms          rms(c)
DAV:   1    -0.191848383909E+03    0.59559E-02   -0.63651E-01  8160   0.175E+00    0.327E-01
DAV:   2    -0.191858634202E+03   -0.10250E-01   -0.37911E-02 12160   0.126E+00    0.980E-01
DAV:   3    -0.191847491976E+03    0.11142E-01   -0.18972E-02 12320   0.108E+00    0.200E-01
DAV:   4    -0.191847803350E+03   -0.31137E-03   -0.29687E-03 10080   0.387E-01    0.258E-01
DAV:   5    -0.191847139275E+03    0.66407E-03   -0.24634E-03 11400   0.376E-01    0.146E-01
DAV:   6    -0.191846834002E+03    0.30527E-03   -0.99451E-04 10520   0.167E-01    0.409E-02
DAV:   7    -0.191846821060E+03    0.12942E-04   -0.10283E-04  6680   0.466E-02
  84 F= -.19184682E+03 E0= -.19173756E+03  d E =0.760035E-02
       N       E                     dE             d eps       ncg     rms          rms(c)
DAV:   1    -0.191863864225E+03   -0.17030E-01   -0.20266E+00  8160   0.310E+00    0.550E-01
DAV:   2    -0.191897892802E+03   -0.34029E-01   -0.11442E-01 12200   0.224E+00    0.183E+00
DAV:   3    -0.191862239166E+03    0.35654E-01   -0.56801E-02 12280   0.195E+00    0.309E-01
DAV:   4    -0.191863213550E+03   -0.97438E-03   -0.78519E-03 11000   0.628E-01    0.429E-01
DAV:   5    -0.191861201556E+03    0.20120E-02   -0.63174E-03 11120   0.603E-01    0.224E-01
DAV:   6    -0.191860534628E+03    0.66693E-03   -0.27640E-03 10640   0.268E-01    0.836E-02
DAV:   7    -0.191860493472E+03    0.41156E-04   -0.51160E-04 10440   0.127E-01
  85 F= -.19186049E+03 E0= -.19175289E+03  d E =-.136724E-01
       N       E                     dE             d eps       ncg     rms          rms(c)
DAV:   1    -0.191865726111E+03   -0.51915E-02   -0.36961E-01  8160   0.132E+00    0.157E-01
DAV:   2    -0.191866608345E+03   -0.88223E-03   -0.11655E-02 11800   0.358E-01    0.207E-01
DAV:   3    -0.191866438144E+03    0.17020E-03   -0.24363E-03 12440   0.367E-01    0.187E-01
DAV:   4    -0.191866175662E+03    0.26248E-03   -0.84722E-04  9920   0.230E-01    0.100E-01
DAV:   5    -0.191866082351E+03    0.93311E-04   -0.42548E-04  9280   0.149E-01
  86 F= -.19186608E+03 E0= -.19175929E+03  d E =-.558888E-02
       N       E                     dE             d eps       ncg     rms          rms(c)
DAV:   1    -0.191862765530E+03    0.34101E-02   -0.11996E-01  8160   0.770E-01    0.111E-01
DAV:   2    -0.191863781779E+03   -0.10162E-02   -0.64948E-03 12120   0.352E-01    0.271E-01
DAV:   3    -0.191862905362E+03    0.87642E-03   -0.26356E-03 10360   0.347E-01    0.109E-01
DAV:   4    -0.191862803685E+03    0.10168E-03   -0.37578E-04  8400   0.129E-01    0.570E-02
DAV:   5    -0.191862786113E+03    0.17572E-04   -0.16127E-04  7520   0.985E-02
  87 F= -.19186279E+03 E0= -.19175549E+03  d E =0.329624E-02
       N       E                     dE             d eps       ncg     rms          rms(c)
DAV:   1    -0.191848534663E+03    0.14269E-01   -0.24860E+00  8160   0.342E+00    0.493E-01
DAV:   2    -0.191864950833E+03   -0.16416E-01   -0.10389E-01 12440   0.155E+00    0.119E+00
DAV:   3    -0.191849985133E+03    0.14966E-01   -0.39064E-02 12280   0.144E+00    0.371E-01
DAV:   4    -0.191849345565E+03    0.63957E-03   -0.59911E-03 10160   0.507E-01    0.300E-01
DAV:   5    -0.191848450556E+03    0.89501E-03   -0.43228E-03 12160   0.503E-01    0.236E-01
DAV:   6    -0.191847973617E+03    0.47694E-03   -0.27064E-03 11920   0.343E-01    0.116E-01
DAV:   7    -0.191847773811E+03    0.19981E-03   -0.65867E-04 10480   0.126E-01    0.513E-02
DAV:   8    -0.191847757872E+03    0.15939E-04   -0.13023E-04  7880   0.891E-02
  88 F= -.19184776E+03 E0= -.19173883E+03  d E =0.150282E-01
       N       E                     dE             d eps       ncg     rms          rms(c)
DAV:   1    -0.191871682773E+03   -0.23909E-01   -0.59735E+00  8160   0.532E+00    0.749E-01
DAV:   2    -0.191913365112E+03   -0.41682E-01   -0.24864E-01 11800   0.251E+00    0.191E+00
DAV:   3    -0.191876553782E+03    0.36811E-01   -0.84461E-02 12280   0.227E+00    0.549E-01
DAV:   4    -0.191874944492E+03    0.16093E-02   -0.14069E-02 11360   0.751E-01    0.450E-01
DAV:   5    -0.191872911187E+03    0.20333E-02   -0.96542E-03 11360   0.730E-01    0.368E-01
DAV:   6    -0.191871722233E+03    0.11890E-02   -0.72147E-03 12600   0.545E-01    0.186E-01
DAV:   7    -0.191871173681E+03    0.54855E-03   -0.16191E-03 11560   0.194E-01    0.657E-02
DAV:   8    -0.191871140856E+03    0.32825E-04   -0.28985E-04  9000   0.113E-01
  89 F= -.19187114E+03 E0= -.19176495E+03  d E =-.233830E-01
       N       E                     dE             d eps       ncg     rms          rms(c)
DAV:   1    -0.191872254196E+03   -0.10805E-02   -0.20116E-02  8160   0.325E-01    0.584E-02
DAV:   2    -0.191872280215E+03   -0.26019E-04   -0.92625E-04 11560   0.111E-01
  90 F= -.19187228E+03 E0= -.19176638E+03  d E =-.113936E-02
       N       E                     dE             d eps       ncg     rms          rms(c)
DAV:   1    -0.191878087529E+03   -0.58333E-02   -0.44558E-01  8160   0.145E+00    0.188E-01
DAV:   2    -0.191879527058E+03   -0.14395E-02   -0.15013E-02 12080   0.498E-01    0.327E-01
DAV:   3    -0.191878703065E+03    0.82399E-03   -0.41532E-03 12400   0.478E-01    0.194E-01
DAV:   4    -0.191878362820E+03    0.34024E-03   -0.92536E-04  9560   0.214E-01    0.960E-02
DAV:   5    -0.191878348013E+03    0.14807E-04   -0.71824E-04  9840   0.187E-01
  91 F= -.19187835E+03 E0= -.19177384E+03  d E =-.606780E-02
       N       E                     dE             d eps       ncg     rms          rms(c)
DAV:   1    -0.191878771901E+03   -0.40908E-03   -0.31915E-03 10560   0.196E-01    0.593E-02
DAV:   2    -0.191879268108E+03   -0.49621E-03   -0.11688E-03 11160   0.254E-01    0.205E-01
DAV:   3    -0.191878743461E+03    0.52465E-03   -0.81280E-04  9440   0.228E-01    0.455E-02
DAV:   4    -0.191878729101E+03    0.14360E-04   -0.67490E-05  5640   0.542E-02
  92 F= -.19187873E+03 E0= -.19177414E+03  d E =-.381087E-03
       N       E                     dE             d eps       ncg     rms          rms(c)
DAV:   1    -0.191883671164E+03   -0.49277E-02   -0.31664E-01  8160   0.121E+00    0.140E-01
DAV:   2    -0.191884706970E+03   -0.10358E-02   -0.10022E-02 11880   0.412E-01    0.241E-01
DAV:   3    -0.191884145752E+03    0.56122E-03   -0.20534E-03 12080   0.353E-01    0.122E-01
DAV:   4    -0.191884104955E+03    0.40797E-04   -0.54172E-04  8720   0.181E-01
  93 F= -.19188410E+03 E0= -.19178031E+03  d E =-.537585E-02
       N       E                     dE             d eps       ncg     rms          rms(c)
DAV:   1    -0.191887296973E+03   -0.31512E-02   -0.10393E-01  8160   0.775E-01    0.159E-01
DAV:   2    -0.191887369596E+03   -0.72624E-04   -0.54636E-03 11480   0.303E-01    0.218E-01
DAV:   3    -0.191887125519E+03    0.24408E-03   -0.28576E-03 10880   0.377E-01    0.199E-01
DAV:   4    -0.191886755418E+03    0.37010E-03   -0.10386E-03 10000   0.230E-01    0.880E-02
DAV:   5    -0.191886692065E+03    0.63353E-04   -0.59660E-04  9760   0.157E-01
  94 F= -.19188669E+03 E0= -.19178309E+03  d E =-.258711E-02
       N       E                     dE             d eps       ncg     rms          rms(c)
DAV:   1    -0.191891241574E+03   -0.44862E-02   -0.27243E-01  8160   0.112E+00    0.132E-01
DAV:   2    -0.191891853799E+03   -0.61222E-03   -0.87134E-03 11120   0.343E-01    0.173E-01
DAV:   3    -0.191891761185E+03    0.92614E-04   -0.18657E-03 11880   0.313E-01    0.155E-01
DAV:   4    -0.191891527665E+03    0.23352E-03   -0.60166E-04  8560   0.191E-01    0.843E-02
DAV:   5    -0.191891525959E+03    0.17059E-05   -0.34892E-04  8440   0.153E-01
  95 F= -.19189153E+03 E0= -.19178890E+03  d E =-.483389E-02
       N       E                     dE             d eps       ncg     rms          rms(c)
DAV:   1    -0.191896690067E+03   -0.51624E-02   -0.36857E-01  8160   0.131E+00    0.140E-01
DAV:   2    -0.191897370753E+03   -0.68069E-03   -0.10434E-02 11920   0.307E-01    0.146E-01
DAV:   3    -0.191897557009E+03   -0.18626E-03   -0.20438E-03 12040   0.318E-01    0.203E-01
DAV:   4    -0.191897131650E+03    0.42536E-03   -0.73375E-04  9360   0.223E-01    0.618E-02
DAV:   5    -0.191897097279E+03    0.34371E-04   -0.21312E-04  5960   0.694E-02
  96 F= -.19189710E+03 E0= -.19179539E+03  d E =-.557132E-02
       N       E                     dE             d eps       ncg     rms          rms(c)
DAV:   1    -0.191898365896E+03   -0.12342E-02   -0.17039E-02  8160   0.304E-01    0.590E-02
DAV:   2    -0.191898719892E+03   -0.35400E-03   -0.12587E-03 12840   0.232E-01    0.163E-01
DAV:   3    -0.191898346542E+03    0.37335E-03   -0.60140E-04  8680   0.205E-01    0.296E-02
DAV:   4    -0.191898362326E+03   -0.15785E-04   -0.60879E-05  5680   0.529E-02
  97 F= -.19189836E+03 E0= -.19179674E+03  d E =-.126505E-02
       N       E                     dE             d eps       ncg     rms          rms(c)
DAV:   1    -0.191902101159E+03   -0.37546E-02   -0.17698E-01  8160   0.905E-01    0.110E-01
DAV:   2    -0.191902742081E+03   -0.64092E-03   -0.66043E-03 12200   0.338E-01    0.193E-01
DAV:   3    -0.191902430319E+03    0.31176E-03   -0.14448E-03 10840   0.283E-01    0.110E-01
DAV:   4    -0.191902340518E+03    0.89801E-04   -0.36776E-04  8280   0.145E-01
  98 F= -.19190234E+03 E0= -.19180118E+03  d E =-.397819E-02
       N       E                     dE             d eps       ncg     rms          rms(c)
DAV:   1    -0.191907367338E+03   -0.49370E-02   -0.32532E-01  8160   0.123E+00    0.140E-01
DAV:   2    -0.191907871050E+03   -0.50371E-03   -0.86819E-03 12240   0.255E-01    0.129E-01
DAV:   3    -0.191907948978E+03   -0.77928E-04   -0.18310E-03 11160   0.278E-01    0.173E-01
DAV:   4    -0.191907674728E+03    0.27425E-03   -0.76026E-04  9120   0.220E-01    0.893E-02
DAV:   5    -0.191907650247E+03    0.24480E-04   -0.44391E-04  8440   0.153E-01
  99 F= -.19190765E+03 E0= -.19180711E+03  d E =-.530973E-02
       N       E                     dE             d eps       ncg     rms          rms(c)
DAV:   1    -0.191912151177E+03   -0.44764E-02   -0.27478E-01  8160   0.113E+00    0.118E-01
DAV:   2    -0.191912633037E+03   -0.48186E-03   -0.73060E-03 12120   0.253E-01    0.107E-01
DAV:   3    -0.191912815124E+03   -0.18209E-03   -0.96567E-04 11000   0.258E-01    0.171E-01
DAV:   4    -0.191912496738E+03    0.31839E-03   -0.46104E-04  8640   0.186E-01    0.570E-02
DAV:   5    -0.191912530512E+03   -0.33774E-04   -0.26571E-04  8360   0.119E-01
 100 F= -.19191253E+03 E0= -.19181251E+03  d E =-.488026E-02
