<?xml version="1.0" encoding="ISO-8859-1"?>
<modeling>
 <generator>
  <i name="program" type="string">vasp </i>
  <i name="version" type="string">5.4.1  </i>
  <i name="subversion" type="string">05Feb16 (build Jul 05 2020 17:13:04) complex                          parallel </i>
  <i name="platform" type="string">IFC91_ompi </i>
  <i name="date" type="string">2024 04 22 </i>
  <i name="time" type="string">22:09:37 </i>
 </generator>
 <incar>
  <i type="int" name="ISTART">     0</i>
  <i type="string" name="PREC">normal</i>
  <i type="string" name="ALGO"> Normal</i>
  <i type="int" name="ISPIN">     1</i>
  <i type="int" name="ICHARG">     2</i>
  <i type="int" name="IBRION">     1</i>
  <i type="int" name="NSW">   100</i>
  <i type="int" name="ISIF">     3</i>
  <i type="int" name="ISYM">     0</i>
  <i name="SYMPREC">      0.00000001</i>
  <i name="POTIM">      0.50000000</i>
  <i type="logical" name="LREAL"> F  </i>
  <i type="logical" name="LPLANE"> F  </i>
  <i type="int" name="ISMEAR">     0</i>
  <i type="logical" name="LWAVE"> F  </i>
  <i type="logical" name="LCHARG"> F  </i>
  <v type="int" name="KPOINT_BSE">    -1     0     0     0</v>
 </incar>
 <kpoints>
  <generation param="Gamma">
   <v type="int" name="divisions">       8        8        1 </v>
   <v name="usershift">      0.00000000       0.00000000       0.00000000 </v>
   <v name="genvec1">      0.12500000       0.00000000       0.00000000 </v>
   <v name="genvec2">     -0.00000000       0.12500000       0.00000000 </v>
   <v name="genvec3">      0.00000000       0.00000000       1.00000000 </v>
   <v name="shift">      0.00000000       0.00000000       0.00000000 </v>
  </generation>
  <varray name="kpointlist" >
   <v>       0.00000000       0.00000000       0.00000000 </v>
   <v>       0.12500000       0.00000000       0.00000000 </v>
   <v>       0.25000000       0.00000000       0.00000000 </v>
   <v>       0.37500000       0.00000000       0.00000000 </v>
   <v>       0.50000000       0.00000000       0.00000000 </v>
   <v>       0.00000000       0.12500000       0.00000000 </v>
   <v>       0.12500000       0.12500000       0.00000000 </v>
   <v>       0.25000000       0.12500000       0.00000000 </v>
   <v>       0.37500000       0.12500000       0.00000000 </v>
   <v>       0.50000000       0.12500000       0.00000000 </v>
   <v>      -0.37500000       0.12500000       0.00000000 </v>
   <v>      -0.25000000       0.12500000       0.00000000 </v>
   <v>      -0.12500000       0.12500000       0.00000000 </v>
   <v>       0.00000000       0.25000000       0.00000000 </v>
   <v>       0.12500000       0.25000000       0.00000000 </v>
   <v>       0.25000000       0.25000000       0.00000000 </v>
   <v>       0.37500000       0.25000000       0.00000000 </v>
   <v>       0.50000000       0.25000000       0.00000000 </v>
   <v>      -0.37500000       0.25000000       0.00000000 </v>
   <v>      -0.25000000       0.25000000       0.00000000 </v>
   <v>      -0.12500000       0.25000000       0.00000000 </v>
   <v>      -0.00000000       0.37500000       0.00000000 </v>
   <v>       0.12500000       0.37500000       0.00000000 </v>
   <v>       0.25000000       0.37500000       0.00000000 </v>
   <v>       0.37500000       0.37500000       0.00000000 </v>
   <v>       0.50000000       0.37500000       0.00000000 </v>
   <v>      -0.37500000       0.37500000       0.00000000 </v>
   <v>      -0.25000000       0.37500000       0.00000000 </v>
   <v>      -0.12500000       0.37500000       0.00000000 </v>
   <v>       0.00000000       0.50000000       0.00000000 </v>
   <v>       0.12500000       0.50000000       0.00000000 </v>
   <v>       0.25000000       0.50000000       0.00000000 </v>
   <v>       0.37500000       0.50000000       0.00000000 </v>
   <v>       0.50000000       0.50000000       0.00000000 </v>
  </varray>
  <varray name="weights" >
   <v>       0.01562500 </v>
   <v>       0.03125000 </v>
   <v>       0.03125000 </v>
   <v>       0.03125000 </v>
   <v>       0.01562500 </v>
   <v>       0.03125000 </v>
   <v>       0.03125000 </v>
   <v>       0.03125000 </v>
   <v>       0.03125000 </v>
   <v>       0.03125000 </v>
   <v>       0.03125000 </v>
   <v>       0.03125000 </v>
   <v>       0.03125000 </v>
   <v>       0.03125000 </v>
   <v>       0.03125000 </v>
   <v>       0.03125000 </v>
   <v>       0.03125000 </v>
   <v>       0.03125000 </v>
   <v>       0.03125000 </v>
   <v>       0.03125000 </v>
   <v>       0.03125000 </v>
   <v>       0.03125000 </v>
   <v>       0.03125000 </v>
   <v>       0.03125000 </v>
   <v>       0.03125000 </v>
   <v>       0.03125000 </v>
   <v>       0.03125000 </v>
   <v>       0.03125000 </v>
   <v>       0.03125000 </v>
   <v>       0.01562500 </v>
   <v>       0.03125000 </v>
   <v>       0.03125000 </v>
   <v>       0.03125000 </v>
   <v>       0.01562500 </v>
  </varray>
 </kpoints>
 <parameters>
  <separator name="general" >
   <i type="string" name="SYSTEM">unknown system</i>
   <i type="logical" name="LCOMPAT"> F  </i>
  </separator>
  <separator name="electronic" >
   <i type="string" name="PREC">normal</i>
   <i name="ENMAX">    280.00000000</i>
   <i name="ENAUG">    373.43800000</i>
   <i name="EDIFF">      0.00010000</i>
   <i type="int" name="IALGO">    38</i>
   <i type="int" name="IWAVPR">    11</i>
   <i type="int" name="NBANDS">   120</i>
   <i name="NELECT">    159.00000000</i>
   <i type="int" name="TURBO">     0</i>
   <i type="int" name="IRESTART">     0</i>
   <i type="int" name="NREBOOT">     0</i>
   <i type="int" name="NMIN">     0</i>
   <i name="EREF">      0.00000000</i>
   <separator name="electronic smearing" >
    <i type="int" name="ISMEAR">     0</i>
    <i name="SIGMA">      0.20000000</i>
    <i name="KSPACING">      0.50000000</i>
    <i type="logical" name="KGAMMA"> T  </i>
   </separator>
   <separator name="electronic projectors" >
    <i type="logical" name="LREAL"> F  </i>
    <v name="ROPT">      0.00000000      0.00000000      0.00000000      0.00000000</v>
    <i type="int" name="LMAXPAW">  -100</i>
    <i type="int" name="LMAXMIX">     2</i>
    <i type="logical" name="NLSPLINE"> F  </i>
   </separator>
   <separator name="electronic startup" >
    <i type="int" name="ISTART">     0</i>
    <i type="int" name="ICHARG">     2</i>
    <i type="int" name="INIWAV">     1</i>
   </separator>
   <separator name="electronic spin" >
    <i type="int" name="ISPIN">     1</i>
    <i type="logical" name="LNONCOLLINEAR"> F  </i>
    <v name="MAGMOM">      1.00000000      1.00000000      1.00000000      1.00000000      1.00000000      1.00000000      1.00000000      1.00000000      1.00000000      1.00000000      1.00000000      1.00000000      1.00000000      1.00000000      1.00000000      1.00000000      1.00000000      1.00000000      1.00000000      1.00000000
      1.00000000      1.00000000      1.00000000      1.00000000      1.00000000      1.00000000      1.00000000</v>
    <i name="NUPDOWN">     -1.00000000</i>
    <i type="logical" name="LSORBIT"> F  </i>
    <v name="SAXIS">      0.00000000      0.00000000      1.00000000</v>
    <i type="logical" name="LSPIRAL"> F  </i>
    <v name="QSPIRAL">      0.00000000      0.00000000      0.00000000</v>
    <i type="logical" name="LZEROZ"> F  </i>
   </separator>
   <separator name="electronic exchange-correlation" >
    <i type="logical" name="LASPH"> F  </i>
    <i type="logical" name="LMETAGGA"> F  </i>
   </separator>
   <separator name="electronic convergence" >
    <i type="int" name="NELM">    60</i>
    <i type="int" name="NELMDL">    -5</i>
    <i type="int" name="NELMIN">     2</i>
    <i name="ENINI">    280.00000000</i>
    <separator name="electronic convergence detail" >
     <i type="logical" name="LDIAG"> T  </i>
     <i type="logical" name="LSUBROT"> F  </i>
     <i name="WEIMIN">      0.00100000</i>
     <i name="EBREAK">      0.00000021</i>
     <i name="DEPER">      0.30000000</i>
     <i type="int" name="NRMM">     4</i>
     <i name="TIME">      0.40000000</i>
    </separator>
   </separator>
   <separator name="electronic mixer" >
    <i name="AMIX">      0.40000000</i>
    <i name="BMIX">      1.00000000</i>
    <i name="AMIN">      0.10000000</i>
    <i name="AMIX_MAG">      1.60000000</i>
    <i name="BMIX_MAG">      1.00000000</i>
    <separator name="electronic mixer details" >
     <i type="int" name="IMIX">     4</i>
     <i type="logical" name="MIXFIRST"> F  </i>
     <i type="int" name="MAXMIX">   -45</i>
     <i name="WC">    100.00000000</i>
     <i type="int" name="INIMIX">     1</i>
     <i type="int" name="MIXPRE">     1</i>
     <i type="int" name="MREMOVE">     5</i>
    </separator>
   </separator>
   <separator name="electronic dipolcorrection" >
    <i type="logical" name="LDIPOL"> F  </i>
    <i type="logical" name="LMONO"> F  </i>
    <i type="int" name="IDIPOL">     0</i>
    <i name="EPSILON">      1.00000000</i>
    <v name="DIPOL">   -100.00000000   -100.00000000   -100.00000000</v>
    <i name="EFIELD">      0.00000000</i>
   </separator>
  </separator>
  <separator name="grids" >
   <i type="int" name="NGX">    42</i>
   <i type="int" name="NGY">    42</i>
   <i type="int" name="NGZ">   126</i>
   <i type="int" name="NGXF">    84</i>
   <i type="int" name="NGYF">    84</i>
   <i type="int" name="NGZF">   252</i>
   <i type="logical" name="ADDGRID"> F  </i>
  </separator>
  <separator name="ionic" >
   <i type="int" name="NSW">   100</i>
   <i type="int" name="IBRION">     1</i>
   <i type="int" name="ISIF">     3</i>
   <i name="PSTRESS">      0.00000000</i>
   <i name="EDIFFG">      0.00100000</i>
   <i type="int" name="NFREE">     0</i>
   <i name="POTIM">      0.50000000</i>
   <i name="SMASS">     -3.00000000</i>
   <i name="SCALEE">      1.00000000</i>
  </separator>
  <separator name="ionic md" >
   <i name="TEBEG">      0.00010000</i>
   <i name="TEEND">      0.00010000</i>
   <i type="int" name="NBLOCK">     1</i>
   <i type="int" name="KBLOCK">   100</i>
   <i type="int" name="NPACO">   256</i>
   <i name="APACO">     16.00000000</i>
  </separator>
  <separator name="symmetry" >
   <i type="int" name="ISYM">     0</i>
   <i name="SYMPREC">      0.00000001</i>
  </separator>
  <separator name="dos" >
   <i type="logical" name="LORBIT"> F  </i>
   <v name="RWIGS">     -1.00000000     -1.00000000     -1.00000000     -1.00000000</v>
   <i type="int" name="NEDOS">   301</i>
   <i name="EMIN">     10.00000000</i>
   <i name="EMAX">    -10.00000000</i>
   <i name="EFERMI">      0.00000000</i>
  </separator>
  <separator name="writing" >
   <i type="int" name="NWRITE">     2</i>
   <i type="logical" name="LWAVE"> F  </i>
   <i type="logical" name="LCHARG"> F  </i>
   <i type="logical" name="LPARD"> F  </i>
   <i type="logical" name="LVTOT"> F  </i>
   <i type="logical" name="LVHAR"> F  </i>
   <i type="logical" name="LELF"> F  </i>
   <i type="logical" name="LOPTICS"> F  </i>
   <v name="STM">      0.00000000      0.00000000      0.00000000      0.00000000      0.00000000      0.00000000      0.00000000</v>
  </separator>
  <separator name="performance" >
   <i type="int" name="NPAR">    40</i>
   <i type="int" name="NSIM">     4</i>
   <i type="int" name="NBLK">    -1</i>
   <i type="logical" name="LPLANE"> F  </i>
   <i type="logical" name="LSCALAPACK"> T  </i>
   <i type="logical" name="LSCAAWARE"> F  </i>
   <i type="logical" name="LSCALU"> F  </i>
   <i type="logical" name="LASYNC"> F  </i>
   <i type="logical" name="LORBITALREAL"> F  </i>
  </separator>
  <separator name="miscellaneous" >
   <i type="int" name="IDIOT">     3</i>
   <i type="logical" name="LMUSIC"> F  </i>
   <v name="POMASS">     50.94100000     95.94000000    183.85000000     32.06600000</v>
   <v name="DARWINR">      0.00000000      0.00000000      0.00000000      0.00000000</v>
   <v name="DARWINV">      1.00000000      1.00000000      1.00000000      1.00000000</v>
   <i type="logical" name="LCORR"> T  </i>
  </separator>
  <i type="logical" name="GGA_COMPAT"> T  </i>
  <i type="logical" name="LBERRY"> F  </i>
  <i type="int" name="ICORELEVEL">     0</i>
  <i type="logical" name="LDAU"> F  </i>
  <i type="int" name="I_CONSTRAINED_M">     0</i>
  <separator name="electronic exchange-correlation" >
   <i type="string" name="GGA">--</i>
   <i type="int" name="VOSKOWN">     0</i>
   <i type="logical" name="LHFCALC"> F  </i>
   <i type="string" name="PRECFOCK"></i>
   <i type="logical" name="LSYMGRAD"> F  </i>
   <i type="logical" name="LHFONE"> F  </i>
   <i type="logical" name="LRHFCALC"> F  </i>
   <i type="logical" name="LTHOMAS"> F  </i>
   <i type="logical" name="LMODELHF"> F  </i>
   <i name="ENCUT4O">     -1.00000000</i>
   <i type="int" name="EXXOEP">     0</i>
   <i type="int" name="FOURORBIT">     0</i>
   <i name="AEXX">      0.00000000</i>
   <i name="HFALPHA">      0.00000000</i>
   <i name="MCALPHA">      0.00000000</i>
   <i name="ALDAX">      1.00000000</i>
   <i name="AGGAX">      1.00000000</i>
   <i name="ALDAC">      1.00000000</i>
   <i name="AGGAC">      1.00000000</i>
   <i type="int" name="NKREDX">     1</i>
   <i type="int" name="NKREDY">     1</i>
   <i type="int" name="NKREDZ">     1</i>
   <i type="logical" name="SHIFTRED"> F  </i>
   <i type="logical" name="ODDONLY"> F  </i>
   <i type="logical" name="EVENONLY"> F  </i>
   <i type="int" name="LMAXFOCK">     0</i>
   <i type="int" name="NMAXFOCKAE">     0</i>
   <i type="logical" name="LFOCKAEDFT"> F  </i>
   <i name="HFSCREEN">      0.00000000</i>
   <i name="HFSCREENC">      0.00000000</i>
   <i type="int" name="NBANDSGWLOW">     0</i>
  </separator>
  <separator name="vdW DFT" >
   <i type="logical" name="LUSE_VDW"> F  </i>
   <i name="Zab_VDW">     -0.84910000</i>
   <i name="PARAM1">      0.12340000</i>
   <i name="PARAM2">      1.00000000</i>
   <i name="PARAM3">      0.00000000</i>
  </separator>
  <separator name="model GW" >
   <i type="int" name="MODEL_GW">     0</i>
   <i name="MODEL_EPS0">     58.26239943</i>
   <i name="MODEL_ALPHA">      1.00000000</i>
  </separator>
  <separator name="linear response parameters" >
   <i type="logical" name="LEPSILON"> F  </i>
   <i type="logical" name="LRPA"> F  </i>
   <i type="logical" name="LNABLA"> F  </i>
   <i type="logical" name="LVEL"> F  </i>
   <i type="int" name="KINTER">     0</i>
   <i name="CSHIFT">      0.10000000</i>
   <i name="OMEGAMAX">     -1.00000000</i>
   <i name="DEG_THRESHOLD">      0.00200000</i>
  </separator>
  <separator name="orbital magnetization" >
   <i type="logical" name="NUCIND"> F  </i>
   <v name="MAGPOS">      0.00000000      0.00000000      0.00000000</v>
   <i type="logical" name="LNICSALL"> T  </i>
   <i type="logical" name="ORBITALMAG"> F  </i>
   <i type="logical" name="LMAGBLOCH"> F  </i>
   <i type="logical" name="LCHIMAG"> F  </i>
   <i type="logical" name="LGAUGE"> T  </i>
   <i type="int" name="MAGATOM">     0</i>
   <v name="MAGDIPOL">      0.00000000      0.00000000      0.00000000</v>
   <v name="AVECCONST">      0.00000000      0.00000000      0.00000000</v>
  </separator>
  <separator name="response functions" >
   <i type="logical" name="LADDER"> F  </i>
   <i type="logical" name="LFXC"> F  </i>
   <i type="logical" name="LHARTREE"> T  </i>
   <i type="int" name="IBSE">     0</i>
   <v type="int" name="KPOINT">    -1     0     0     0</v>
   <i type="logical" name="LTCTE"> F  </i>
   <i type="logical" name="LTETE"> F  </i>
   <i type="logical" name="LTRIPLET"> F  </i>
   <i type="logical" name="LFXCEPS"> F  </i>
   <i type="logical" name="LFXHEG"> F  </i>
   <i type="int" name="NATURALO">     0</i>
   <i type="logical" name="L2ORDER"> F  </i>
   <i type="logical" name="LUSEW"> F  </i>
   <i name="ENCUTGW">     -2.00000000</i>
   <i name="ENCUTGWSOFT">     -2.00000000</i>
   <i name="ENCUTLF">     -1.00000000</i>
   <i type="int" name="LMAXMP2">    -1</i>
   <i name="SCISSOR">      0.00000000</i>
   <i type="int" name="NOMEGA">     0</i>
   <i type="int" name="NOMEGAR">     0</i>
   <i type="int" name="NBANDSGW">    -1</i>
   <i type="int" name="NBANDSO">    -1</i>
   <i type="int" name="NBANDSV">    -1</i>
   <i type="int" name="NELM">     1</i>
   <i type="int" name="NELMHF">     1</i>
   <i type="int" name="DIM">     3</i>
   <i type="int" name="ANTIRES">     0</i>
   <i name="OMEGAMAX">    -30.00000000</i>
   <i name="OMEGAMIN">    -30.00000000</i>
   <i name="OMEGATL">   -200.00000000</i>
   <i type="int" name="OMEGAGRID">     0</i>
   <i name="CSHIFT">     -0.10000000</i>
   <i type="logical" name="SELFENERGY"> F  </i>
   <i type="logical" name="LSPECTRAL"> F  </i>
   <i type="logical" name="LSPECTRALGW"> F  </i>
   <i type="logical" name="LSINGLES"> F  </i>
   <i type="logical" name="LFERMIGW"> F  </i>
   <i type="logical" name="ODDONLYGW"> F  </i>
   <i type="logical" name="EVENONLYGW"> F  </i>
   <i type="int" name="NKREDLFX">     1</i>
   <i type="int" name="NKREDLFY">     1</i>
   <i type="int" name="NKREDLFZ">     1</i>
   <i type="int" name="MAXMEM">  1800</i>
   <i type="int" name="TELESCOPE">     0</i>
   <i type="int" name="TAUPAR">     1</i>
   <i type="int" name="OMEGAPAR">    -1</i>
   <i name="LAMBDA">      1.00000000</i>
  </separator>
  <separator name="External order field" >
   <i name="OFIELD_KAPPA">      0.00000000</i>
   <v name="OFIELD_K">      0.00000000      0.00000000      0.00000000</v>
   <i name="OFIELD_Q6_NEAR">      0.00000000</i>
   <i name="OFIELD_Q6_FAR">      0.00000000</i>
   <i name="OFIELD_A">      0.00000000</i>
  </separator>
 </parameters>
 <atominfo>
  <atoms>      27 </atoms>
  <types>       4 </types>
  <array name="atoms" >
   <dimension dim="1">ion</dimension>
   <field type="string">element</field>
   <field type="int">atomtype</field>
   <set>
    <rc><c>V </c><c>   1</c></rc>
    <rc><c>V </c><c>   1</c></rc>
    <rc><c>V </c><c>   1</c></rc>
    <rc><c>Mo</c><c>   2</c></rc>
    <rc><c>Mo</c><c>   2</c></rc>
    <rc><c>Mo</c><c>   2</c></rc>
    <rc><c>W </c><c>   3</c></rc>
    <rc><c>W </c><c>   3</c></rc>
    <rc><c>W </c><c>   3</c></rc>
    <rc><c>S </c><c>   4</c></rc>
    <rc><c>S </c><c>   4</c></rc>
    <rc><c>S </c><c>   4</c></rc>
    <rc><c>S </c><c>   4</c></rc>
    <rc><c>S </c><c>   4</c></rc>
    <rc><c>S </c><c>   4</c></rc>
    <rc><c>S </c><c>   4</c></rc>
    <rc><c>S </c><c>   4</c></rc>
    <rc><c>S </c><c>   4</c></rc>
    <rc><c>S </c><c>   4</c></rc>
    <rc><c>S </c><c>   4</c></rc>
    <rc><c>S </c><c>   4</c></rc>
    <rc><c>S </c><c>   4</c></rc>
    <rc><c>S </c><c>   4</c></rc>
    <rc><c>S </c><c>   4</c></rc>
    <rc><c>S </c><c>   4</c></rc>
    <rc><c>S </c><c>   4</c></rc>
    <rc><c>S </c><c>   4</c></rc>
   </set>
  </array>
  <array name="atomtypes" >
   <dimension dim="1">type</dimension>
   <field type="int">atomspertype</field>
   <field type="string">element</field>
   <field>mass</field>
   <field>valence</field>
   <field type="string">pseudopotential</field>
   <set>
    <rc><c>   3</c><c>V </c><c>     50.94100000</c><c>      5.00000000</c><c> PAW_PBE V 08Apr2002                    </c></rc>
    <rc><c>   3</c><c>Mo</c><c>     95.94000000</c><c>      6.00000000</c><c> PAW_PBE Mo 08Apr2002                   </c></rc>
    <rc><c>   3</c><c>W </c><c>    183.85000000</c><c>      6.00000000</c><c> PAW_PBE W 08Apr2002                    </c></rc>
    <rc><c>  18</c><c>S </c><c>     32.06600000</c><c>      6.00000000</c><c>  PAW_PBE S 17Jan2003                   </c></rc>
   </set>
  </array>
 </atominfo>
 <structure name="initialpos" >
  <crystal>
   <varray name="basis" >
    <v>       8.66999996       5.03999989       0.00000000 </v>
    <v>      -8.66999982       5.04000013       0.00000000 </v>
    <v>       0.00000000       0.00000000      30.00000000 </v>
   </varray>
   <i name="volume">   2621.80797419 </i>
   <varray name="rec_basis" >
    <v>       0.05767013       0.09920635       0.00000000 </v>
    <v>      -0.05767013       0.09920635       0.00000000 </v>
    <v>       0.00000000       0.00000000       0.03333333 </v>
   </varray>
  </crystal>
  <varray name="positions" >
   <v>       0.33333334       0.00000000       0.00000000 </v>
   <v>       0.33333334       0.33333334       0.00000000 </v>
   <v>       0.00000000       0.00000000       0.00000000 </v>
   <v>       0.66666669       0.00000000       0.00000000 </v>
   <v>       1.00000000       0.33333334       0.00000000 </v>
   <v>       0.66666669       0.33333334       0.00000000 </v>
   <v>       0.00000000       0.66666669       0.00000000 </v>
   <v>       0.33333334       0.66666669       0.00000000 </v>
   <v>       0.66666669       0.66666669       0.00000000 </v>
   <v>       0.11068511       0.22244981       0.95539999 </v>
   <v>       0.22244981       0.11068511       0.04460000 </v>
   <v>       0.11068511       0.55578315       0.95539999 </v>
   <v>       0.22244981       0.44401845       0.04460000 </v>
   <v>       0.11068511       0.88911647       0.95539999 </v>
   <v>       0.22244981       0.77735180       0.04460000 </v>
   <v>       0.44401845       0.22244981       0.95539999 </v>
   <v>       0.55578315       0.11068511       0.04460000 </v>
   <v>       0.44401845       0.55578315       0.95539999 </v>
   <v>       0.55578315       0.44401845       0.04460000 </v>
   <v>       0.44401845       0.88911647       0.95539999 </v>
   <v>       0.55578315       0.77735180       0.04460000 </v>
   <v>       0.77735180       0.22244981       0.95539999 </v>
   <v>       0.88911647       0.11068511       0.04460000 </v>
   <v>       0.77735180       0.55578315       0.95539999 </v>
   <v>       0.88911647       0.44401845       0.04460000 </v>
   <v>       0.77735180       0.88911647       0.95539999 </v>
   <v>       0.88911647       0.77735180       0.04460000 </v>
  </varray>
 </structure>
 <calculation>
  <scstep>
   <time name="dav">   21.67   21.73</time>
   <time name="total">   21.72   21.78</time>
   <energy>
    <i name="alphaZ">     81.65567618 </i>
    <i name="ewald">  41891.17178796 </i>
    <i name="hartreedc"> -47723.81755902 </i>
    <i name="XCdc">   -242.92457051 </i>
    <i name="pawpsdc">   3467.42045192 </i>
    <i name="pawaedc">  -2871.19716117 </i>
    <i name="eentropy">     -0.54132440 </i>
    <i name="bandstr">   -236.97561205 </i>
    <i name="atom">   6761.44252427 </i>
    <i name="e_fr_energy">   1126.23421318 </i>
    <i name="e_wo_entrp">   1126.77553758 </i>
    <i name="e_0_energy">   1126.50487538 </i>
   </energy>
  </scstep>
  <scstep>
   <time name="dav">   28.05   28.12</time>
   <time name="total">   28.05   28.13</time>
   <energy>
    <i name="e_fr_energy">     -2.67885088 </i>
    <i name="e_wo_entrp">     -2.46692804 </i>
    <i name="e_0_energy">     -2.57288946 </i>
   </energy>
  </scstep>
  <scstep>
   <time name="dav">   27.61   27.68</time>
   <time name="total">   27.61   27.68</time>
   <energy>
    <i name="e_fr_energy">   -199.84834086 </i>
    <i name="e_wo_entrp">   -199.57427670 </i>
    <i name="e_0_energy">   -199.71130878 </i>
   </energy>
  </scstep>
  <scstep>
   <time name="dav">   30.96   31.04</time>
   <time name="total">   30.96   31.05</time>
   <energy>
    <i name="e_fr_energy">   -209.02015585 </i>
    <i name="e_wo_entrp">   -208.71592474 </i>
    <i name="e_0_energy">   -208.86804030 </i>
   </energy>
  </scstep>
  <scstep>
   <time name="dav">   28.19   28.26</time>
   <time name="total">   28.66   28.74</time>
   <energy>
    <i name="e_fr_energy">   -209.27461448 </i>
    <i name="e_wo_entrp">   -208.97338851 </i>
    <i name="e_0_energy">   -209.12400150 </i>
   </energy>
  </scstep>
  <scstep>
   <time name="dav">   30.48   30.55</time>
   <time name="total">   30.98   31.07</time>
   <energy>
    <i name="e_fr_energy">   -237.53310771 </i>
    <i name="e_wo_entrp">   -237.28094456 </i>
    <i name="e_0_energy">   -237.40702613 </i>
   </energy>
  </scstep>
  <scstep>
   <time name="dav">   32.75   32.83</time>
   <time name="total">   33.26   33.35</time>
   <energy>
    <i name="e_fr_energy">   -196.67107216 </i>
    <i name="e_wo_entrp">   -196.32054512 </i>
    <i name="e_0_energy">   -196.49580864 </i>
   </energy>
  </scstep>
  <scstep>
   <time name="dav">   29.85   29.92</time>
   <time name="total">   30.36   30.44</time>
   <energy>
    <i name="e_fr_energy">   -189.67807103 </i>
    <i name="e_wo_entrp">   -189.36956427 </i>
    <i name="e_0_energy">   -189.52381765 </i>
   </energy>
  </scstep>
  <scstep>
   <time name="dav">   31.77   31.85</time>
   <time name="total">   32.30   32.38</time>
   <energy>
    <i name="e_fr_energy">   -188.19207971 </i>
    <i name="e_wo_entrp">   -187.85501407 </i>
    <i name="e_0_energy">   -188.02354689 </i>
   </energy>
  </scstep>
  <scstep>
   <time name="dav">   32.63   32.71</time>
   <time name="total">   33.16   33.25</time>
   <energy>
    <i name="e_fr_energy">   -186.92800957 </i>
    <i name="e_wo_entrp">   -186.57629719 </i>
    <i name="e_0_energy">   -186.75215338 </i>
   </energy>
  </scstep>
  <scstep>
   <time name="dav">   32.83   32.91</time>
   <time name="total">   33.37   33.46</time>
   <energy>
    <i name="e_fr_energy">   -187.01774195 </i>
    <i name="e_wo_entrp">   -186.67713748 </i>
    <i name="e_0_energy">   -186.84743972 </i>
   </energy>
  </scstep>
  <scstep>
   <time name="dav">   31.41   31.49</time>
   <time name="total">   31.95   32.03</time>
   <energy>
    <i name="e_fr_energy">   -186.95392785 </i>
    <i name="e_wo_entrp">   -186.61893603 </i>
    <i name="e_0_energy">   -186.78643194 </i>
   </energy>
  </scstep>
  <scstep>
   <time name="dav">   32.21   32.29</time>
   <time name="total">   32.75   32.84</time>
   <energy>
    <i name="e_fr_energy">   -186.85674690 </i>
    <i name="e_wo_entrp">   -186.52089211 </i>
    <i name="e_0_energy">   -186.68881951 </i>
   </energy>
  </scstep>
  <scstep>
   <time name="dav">   31.36   31.44</time>
   <time name="total">   31.90   31.99</time>
   <energy>
    <i name="e_fr_energy">   -186.82215888 </i>
    <i name="e_wo_entrp">   -186.47793641 </i>
    <i name="e_0_energy">   -186.65004764 </i>
   </energy>
  </scstep>
  <scstep>
   <time name="dav">   29.51   29.58</time>
   <time name="total">   30.05   30.13</time>
   <energy>
    <i name="e_fr_energy">   -186.81747673 </i>
    <i name="e_wo_entrp">   -186.47351003 </i>
    <i name="e_0_energy">   -186.64549338 </i>
   </energy>
  </scstep>
  <scstep>
   <time name="dav">   31.76   31.83</time>
   <time name="total">   32.29   32.38</time>
   <energy>
    <i name="e_fr_energy">   -186.81838050 </i>
    <i name="e_wo_entrp">   -186.47560848 </i>
    <i name="e_0_energy">   -186.64699449 </i>
   </energy>
  </scstep>
  <scstep>
   <time name="dav">   30.98   31.06</time>
   <time name="total">   31.53   31.61</time>
   <energy>
    <i name="e_fr_energy">   -186.81533611 </i>
    <i name="e_wo_entrp">   -186.47295198 </i>
    <i name="e_0_energy">   -186.64414404 </i>
   </energy>
  </scstep>
  <scstep>
   <time name="dav">   28.57   28.64</time>
   <time name="total">   29.11   29.19</time>
   <energy>
    <i name="e_fr_energy">   -186.81507372 </i>
    <i name="e_wo_entrp">   -186.47221104 </i>
    <i name="e_0_energy">   -186.64364238 </i>
   </energy>
  </scstep>
  <scstep>
   <time name="dav">   24.96   25.02</time>
   <time name="total">   24.99   25.06</time>
   <energy>
    <i name="alphaZ">     81.65567618 </i>
    <i name="ewald">  41891.17178796 </i>
    <i name="hartreedc"> -47818.59811681 </i>
    <i name="XCdc">   -231.69951940 </i>
    <i name="pawpsdc">   4194.27793554 </i>
    <i name="pawaedc">  -3612.29109976 </i>
    <i name="eentropy">     -0.34283163 </i>
    <i name="bandstr">  -1452.43144985 </i>
    <i name="atom">   6761.44252427 </i>
    <i name="e_fr_energy">   -186.81509349 </i>
    <i name="e_wo_entrp">   -186.47226186 </i>
    <i name="e_0_energy">   -186.64367768 </i>
   </energy>
  </scstep>
  <structure>
   <crystal>
    <varray name="basis" >
     <v>       8.66999996       5.03999989       0.00000000 </v>
     <v>      -8.66999982       5.04000013       0.00000000 </v>
     <v>       0.00000000       0.00000000      30.00000000 </v>
    </varray>
    <i name="volume">   2621.80797419 </i>
    <varray name="rec_basis" >
     <v>       0.05767013       0.09920635       0.00000000 </v>
     <v>      -0.05767013       0.09920635       0.00000000 </v>
     <v>       0.00000000       0.00000000       0.03333333 </v>
    </varray>
   </crystal>
   <varray name="positions" >
    <v>       0.33333334       0.00000000       0.00000000 </v>
    <v>       0.33333334       0.33333334       0.00000000 </v>
    <v>       0.00000000       0.00000000       0.00000000 </v>
    <v>       0.66666669       0.00000000       0.00000000 </v>
    <v>       1.00000000       0.33333334       0.00000000 </v>
    <v>       0.66666669       0.33333334       0.00000000 </v>
    <v>       0.00000000       0.66666669       0.00000000 </v>
    <v>       0.33333334       0.66666669       0.00000000 </v>
    <v>       0.66666669       0.66666669       0.00000000 </v>
    <v>       0.11068511       0.22244981       0.95539999 </v>
    <v>       0.22244981       0.11068511       0.04460000 </v>
    <v>       0.11068511       0.55578315       0.95539999 </v>
    <v>       0.22244981       0.44401845       0.04460000 </v>
    <v>       0.11068511       0.88911647       0.95539999 </v>
    <v>       0.22244981       0.77735180       0.04460000 </v>
    <v>       0.44401845       0.22244981       0.95539999 </v>
    <v>       0.55578315       0.11068511       0.04460000 </v>
    <v>       0.44401845       0.55578315       0.95539999 </v>
    <v>       0.55578315       0.44401845       0.04460000 </v>
    <v>       0.44401845       0.88911647       0.95539999 </v>
    <v>       0.55578315       0.77735180       0.04460000 </v>
    <v>       0.77735180       0.22244981       0.95539999 </v>
    <v>       0.88911647       0.11068511       0.04460000 </v>
    <v>       0.77735180       0.55578315       0.95539999 </v>
    <v>       0.88911647       0.44401845       0.04460000 </v>
    <v>       0.77735180       0.88911647       0.95539999 </v>
    <v>       0.88911647       0.77735180       0.04460000 </v>
   </varray>
  </structure>
  <varray name="forces" >
   <v>       0.03877003       0.35000828      -0.00958065 </v>
   <v>       0.08356513      -0.14406209       0.02059278 </v>
   <v>      -0.34043774       0.14109405      -0.01530448 </v>
   <v>      -0.25997979       0.43050603      -0.07667447 </v>
   <v>      -0.21592667      -0.43250665       0.09519080 </v>
   <v>       0.50381453      -0.03437926       0.10617837 </v>
   <v>       0.21150216      -0.36316417       0.04543861 </v>
   <v>      -0.00233485      -0.01785125      -0.09691586 </v>
   <v>       0.00891715      -0.00561384      -0.09600050 </v>
   <v>       0.91278426      -0.00377184      -1.44235101 </v>
   <v>      -0.07179838       0.01096937       0.77793544 </v>
   <v>       0.07930895       0.16511515      -2.88241955 </v>
   <v>       0.65364960       0.13688598       2.07859232 </v>
   <v>      -0.23987846       0.52550471      -1.36355419 </v>
   <v>      -0.48172709       0.56041719       2.16677935 </v>
   <v>      -0.32961337      -0.68118283      -1.40223244 </v>
   <v>      -0.54877844      -0.68326983       2.16136962 </v>
   <v>       0.45537092      -0.54834385      -2.19893741 </v>
   <v>      -0.60221443      -0.54704191       2.11493020 </v>
   <v>      -0.64255612      -0.14898557      -2.11219882 </v>
   <v>      -0.06489354      -0.11738821       2.84592145 </v>
   <v>       0.13839395      -0.02488457      -2.93000771 </v>
   <v>       0.74723880       0.02990797       2.12193919 </v>
   <v>       0.01566395       0.13386998      -2.88246156 </v>
   <v>      -0.20399637       0.16099396       2.96128874 </v>
   <v>       0.60515257       0.52953885      -2.15206162 </v>
   <v>      -0.44999679       0.57763438       2.16454339 </v>
  </varray>
  <varray name="stress" >
   <v>       7.53428412       0.14872517      -1.64574746 </v>
   <v>       0.14872523       4.42249197       0.14837116 </v>
   <v>      -1.64574742       0.14837104      31.13850201 </v>
  </varray>
  <energy>
   <i name="e_fr_energy">   -186.81509349 </i>
   <i name="e_wo_entrp">   -186.64367768 </i>
   <i name="e_0_energy">     -0.34283163 </i>
  </energy>
  <time name="totalsc">  616.87  618.52</time>
 </calculation>
 <calculation>
  <scstep>
   <time name="dav">   21.67   21.72</time>
   <time name="total">   22.21   22.27</time>
   <energy>
    <i name="alphaZ">     78.87572501 </i>
    <i name="ewald">  39354.69422468 </i>
    <i name="hartreedc"> -45302.49726108 </i>
    <i name="XCdc">   -239.17317768 </i>
    <i name="pawpsdc">   4193.11105122 </i>
    <i name="pawaedc">  -3611.10586687 </i>
    <i name="eentropy">     -0.28232345 </i>
    <i name="bandstr">  -1422.54651738 </i>
    <i name="atom">   6761.44252427 </i>
    <i name="e_fr_energy">   -187.48162128 </i>
    <i name="e_wo_entrp">   -187.19929783 </i>
    <i name="e_0_energy">   -187.34045956 </i>
   </energy>
  </scstep>
  <scstep>
   <time name="dav">   29.64   29.71</time>
   <time name="total">   30.18   30.26</time>
   <energy>
    <i name="e_fr_energy">   -189.42161465 </i>
    <i name="e_wo_entrp">   -189.09802256 </i>
    <i name="e_0_energy">   -189.25981861 </i>
   </energy>
  </scstep>
  <scstep>
   <time name="dav">   30.46   30.53</time>
   <time name="total">   31.02   31.10</time>
   <energy>
    <i name="e_fr_energy">   -189.31619882 </i>
    <i name="e_wo_entrp">   -189.05000329 </i>
    <i name="e_0_energy">   -189.18310105 </i>
   </energy>
  </scstep>
  <scstep>
   <time name="dav">   30.68   30.76</time>
   <time name="total">   31.23   31.32</time>
   <energy>
    <i name="e_fr_energy">   -188.72559168 </i>
    <i name="e_wo_entrp">   -188.44266582 </i>
    <i name="e_0_energy">   -188.58412875 </i>
   </energy>
  </scstep>
  <scstep>
   <time name="dav">   30.62   30.70</time>
   <time name="total">   31.17   31.26</time>
   <energy>
    <i name="e_fr_energy">   -188.75125335 </i>
    <i name="e_wo_entrp">   -188.46645875 </i>
    <i name="e_0_energy">   -188.60885605 </i>
   </energy>
  </scstep>
  <scstep>
   <time name="dav">   30.24   30.31</time>
   <time name="total">   30.79   30.87</time>
   <energy>
    <i name="e_fr_energy">   -188.72570797 </i>
    <i name="e_wo_entrp">   -188.44389378 </i>
    <i name="e_0_energy">   -188.58480088 </i>
   </energy>
  </scstep>
  <scstep>
   <time name="dav">   30.89   30.96</time>
   <time name="total">   31.46   31.55</time>
   <energy>
    <i name="e_fr_energy">   -188.66183551 </i>
    <i name="e_wo_entrp">   -188.37967832 </i>
    <i name="e_0_energy">   -188.52075691 </i>
   </energy>
  </scstep>
  <scstep>
   <time name="dav">   25.43   25.49</time>
   <time name="total">   25.98   26.05</time>
   <energy>
    <i name="e_fr_energy">   -188.64008997 </i>
    <i name="e_wo_entrp">   -188.35953875 </i>
    <i name="e_0_energy">   -188.49981436 </i>
   </energy>
  </scstep>
  <scstep>
   <time name="dav">   28.87   28.94</time>
   <time name="total">   29.42   29.50</time>
   <energy>
    <i name="e_fr_energy">   -188.63885354 </i>
    <i name="e_wo_entrp">   -188.35854323 </i>
    <i name="e_0_energy">   -188.49869838 </i>
   </energy>
  </scstep>
  <scstep>
   <time name="dav">   31.51   31.59</time>
   <time name="total">   32.06   32.15</time>
   <energy>
    <i name="e_fr_energy">   -188.63877235 </i>
    <i name="e_wo_entrp">   -188.35875117 </i>
    <i name="e_0_energy">   -188.49876176 </i>
   </energy>
  </scstep>
  <scstep>
   <time name="dav">   28.47   28.54</time>
   <time name="total">   29.02   29.10</time>
   <energy>
    <i name="e_fr_energy">   -188.63788699 </i>
    <i name="e_wo_entrp">   -188.35828302 </i>
    <i name="e_0_energy">   -188.49808501 </i>
   </energy>
  </scstep>
  <scstep>
   <time name="dav">   28.03   28.10</time>
   <time name="total">   28.58   28.66</time>
   <energy>
    <i name="e_fr_energy">   -188.63815951 </i>
    <i name="e_wo_entrp">   -188.35848006 </i>
    <i name="e_0_energy">   -188.49831979 </i>
   </energy>
  </scstep>
  <scstep>
   <time name="dav">   18.75   18.80</time>
   <time name="total">   18.79   18.84</time>
   <energy>
    <i name="alphaZ">     78.87572501 </i>
    <i name="ewald">  39354.69422468 </i>
    <i name="hartreedc"> -45319.78411205 </i>
    <i name="XCdc">   -238.02854686 </i>
    <i name="pawpsdc">   3949.47788189 </i>
    <i name="pawaedc">  -3363.96801615 </i>
    <i name="eentropy">     -0.27966685 </i>
    <i name="bandstr">  -1411.06817208 </i>
    <i name="atom">   6761.44252427 </i>
    <i name="e_fr_energy">   -188.63815814 </i>
    <i name="e_wo_entrp">   -188.35849129 </i>
    <i name="e_0_energy">   -188.49832471 </i>
   </energy>
  </scstep>
  <structure>
   <crystal>
    <varray name="basis" >
     <v>       8.86318522       5.10894121       0.00000000 </v>
     <v>      -8.85880176       5.10140110       0.00000000 </v>
     <v>       0.00000000       0.00000000      30.00000000 </v>
    </varray>
    <i name="volume">   2714.21280648 </i>
    <varray name="rec_basis" >
     <v>       0.05638542       0.09791570       0.00000000 </v>
     <v>      -0.05646876       0.09796415       0.00000000 </v>
     <v>       0.00000000       0.00000000       0.03333333 </v>
    </varray>
   </crystal>
   <varray name="positions" >
    <v>       0.33511634       0.00156727      -0.00001541 </v>
    <v>       0.33287636       0.33241137       0.00003312 </v>
    <v>      -0.00027188       0.00162243      -0.00002461 </v>
    <v>       0.66800377       0.00278370      -0.00012330 </v>
    <v>       0.99732929       0.33186412       0.00015308 </v>
    <v>       0.66790384       0.33176711       0.00017074 </v>
    <v>      -0.00114966       0.66434016       0.00007307 </v>
    <v>       0.33324141       0.66658775      -0.00015585 </v>
    <v>       0.66666463       0.66661501      -0.00015438 </v>
    <v>       0.11320657       0.21989225       0.95308056 </v>
    <v>       0.22230255       0.11093736       0.04585099 </v>
    <v>       0.11169600       0.55635274       0.95076480 </v>
    <v>       0.22492350       0.44285503       0.04794256 </v>
    <v>       0.11253278       0.89229890       0.95320727 </v>
    <v>       0.22379171       0.78137418       0.04808437 </v>
    <v>       0.43984129       0.22010672       0.95314508 </v>
    <v>       0.55098625       0.10894179       0.04807567 </v>
    <v>       0.44266101       0.55189188       0.95186390 </v>
    <v>       0.55148957       0.44307578       0.04800099 </v>
    <v>       0.44151772       0.89019112       0.95200339 </v>
    <v>       0.55504079       0.77697052       0.04917649 </v>
    <v>       0.77761773       0.22194568       0.95068828 </v>
    <v>       0.89133854       0.10874931       0.04801226 </v>
    <v>       0.77803607       0.55638027       0.95076474 </v>
    <v>       0.88931943       0.44535652       0.04936201 </v>
    <v>       0.78156979       0.88996720       0.95193928 </v>
    <v>       0.89062905       0.78136830       0.04808078 </v>
   </varray>
  </structure>
  <varray name="forces" >
   <v>       0.10071262       0.27010349      -0.08694011 </v>
   <v>       0.00796872      -0.01199935       0.05799563 </v>
   <v>      -0.27866633       0.04307868      -0.09141173 </v>
   <v>      -0.23796087       0.40829266      -0.01420818 </v>
   <v>      -0.52650395      -0.41026039       0.03128598 </v>
   <v>       0.61908447       0.25045947       0.02649071 </v>
   <v>       0.28558353      -0.49596926      -0.05781024 </v>
   <v>       0.05034538       0.03286106       0.06717310 </v>
   <v>      -0.05853011      -0.02646308       0.06653994 </v>
   <v>       0.04077637      -0.00905280       0.10687907 </v>
   <v>      -0.01821099       0.00617073      -0.14251943 </v>
   <v>      -0.06236612       0.09490788       0.00678788 </v>
   <v>      -0.03202573       0.09778163      -0.11719936 </v>
   <v>       0.06080178      -0.07135115       0.32339238 </v>
   <v>       0.04514216      -0.06951613      -0.16177873 </v>
   <v>       0.00261618      -0.05177338       0.09491731 </v>
   <v>      -0.03286912      -0.06017952       0.15198399 </v>
   <v>      -0.05213344       0.05647023       0.01844029 </v>
   <v>      -0.06567560       0.05890308      -0.13442554 </v>
   <v>       0.01734304      -0.09723489      -0.00062632 </v>
   <v>       0.06469339      -0.09165066      -0.15109635 </v>
   <v>      -0.00553530      -0.00488431      -0.34887204 </v>
   <v>       0.05182760       0.00978390       0.16728723 </v>
   <v>      -0.06608043       0.08635979       0.01260421 </v>
   <v>      -0.04431051       0.09215427       0.32165476 </v>
   <v>       0.06915319      -0.04997637       0.01416722 </v>
   <v>       0.06482006      -0.05701561      -0.16071170 </v>
  </varray>
  <varray name="stress" >
   <v>     -20.02673181      -0.00592422       0.03136777 </v>
   <v>      -0.00592414     -19.57011071       0.01721284 </v>
   <v>       0.03136789       0.01721275      -1.74606664 </v>
  </varray>
  <energy>
   <i name="e_fr_energy">   -188.63815814 </i>
   <i name="e_wo_entrp">   -188.49832471 </i>
   <i name="e_0_energy">     -0.27966685 </i>
  </energy>
  <time name="totalsc">  413.73  414.84</time>
 </calculation>
 <calculation>
  <scstep>
   <time name="dav">   23.70   23.76</time>
   <time name="total">   24.24   24.30</time>
   <energy>
    <i name="alphaZ">     82.33089116 </i>
    <i name="ewald">  41296.11623187 </i>
    <i name="hartreedc"> -47292.30390734 </i>
    <i name="XCdc">   -233.86280815 </i>
    <i name="pawpsdc">   3948.69603876 </i>
    <i name="pawaedc">  -3363.17919891 </i>
    <i name="eentropy">     -0.23555762 </i>
    <i name="bandstr">  -1389.60073656 </i>
    <i name="atom">   6761.44252427 </i>
    <i name="e_fr_energy">   -190.59652253 </i>
    <i name="e_wo_entrp">   -190.36096490 </i>
    <i name="e_0_energy">   -190.47874372 </i>
   </energy>
  </scstep>
  <scstep>
   <time name="dav">   30.44   30.51</time>
   <time name="total">   30.97   31.05</time>
   <energy>
    <i name="e_fr_energy">   -190.52448881 </i>
    <i name="e_wo_entrp">   -190.29955055 </i>
    <i name="e_0_energy">   -190.41201968 </i>
   </energy>
  </scstep>
  <scstep>
   <time name="dav">   30.14   30.21</time>
   <time name="total">   30.67   30.75</time>
   <energy>
    <i name="e_fr_energy">   -190.07178644 </i>
    <i name="e_wo_entrp">   -189.82122361 </i>
    <i name="e_0_energy">   -189.94650503 </i>
   </energy>
  </scstep>
  <scstep>
   <time name="dav">   32.04   32.12</time>
   <time name="total">   32.57   32.66</time>
   <energy>
    <i name="e_fr_energy">   -189.85576801 </i>
    <i name="e_wo_entrp">   -189.62633400 </i>
    <i name="e_0_energy">   -189.74105101 </i>
   </energy>
  </scstep>
  <scstep>
   <time name="dav">   30.11   30.18</time>
   <time name="total">   30.64   30.73</time>
   <energy>
    <i name="e_fr_energy">   -189.76518457 </i>
    <i name="e_wo_entrp">   -189.52864883 </i>
    <i name="e_0_energy">   -189.64691670 </i>
   </energy>
  </scstep>
  <scstep>
   <time name="dav">   29.01   29.08</time>
   <time name="total">   29.55   29.62</time>
   <energy>
    <i name="e_fr_energy">   -189.75388821 </i>
    <i name="e_wo_entrp">   -189.51699981 </i>
    <i name="e_0_energy">   -189.63544401 </i>
   </energy>
  </scstep>
  <scstep>
   <time name="dav">   28.27   28.34</time>
   <time name="total">   28.81   28.89</time>
   <energy>
    <i name="e_fr_energy">   -189.75030052 </i>
    <i name="e_wo_entrp">   -189.51351208 </i>
    <i name="e_0_energy">   -189.63190630 </i>
   </energy>
  </scstep>
  <scstep>
   <time name="dav">   29.03   29.10</time>
   <time name="total">   29.56   29.64</time>
   <energy>
    <i name="e_fr_energy">   -189.74979294 </i>
    <i name="e_wo_entrp">   -189.51311425 </i>
    <i name="e_0_energy">   -189.63145359 </i>
   </energy>
  </scstep>
  <scstep>
   <time name="dav">   29.26   29.33</time>
   <time name="total">   29.80   29.88</time>
   <energy>
    <i name="e_fr_energy">   -189.75021859 </i>
    <i name="e_wo_entrp">   -189.51361603 </i>
    <i name="e_0_energy">   -189.63191731 </i>
   </energy>
  </scstep>
  <scstep>
   <time name="dav">   26.08   26.15</time>
   <time name="total">   26.62   26.69</time>
   <energy>
    <i name="e_fr_energy">   -189.75039709 </i>
    <i name="e_wo_entrp">   -189.51365510 </i>
    <i name="e_0_energy">   -189.63202610 </i>
   </energy>
  </scstep>
  <scstep>
   <time name="dav">   23.35   23.41</time>
   <time name="total">   23.89   23.96</time>
   <energy>
    <i name="e_fr_energy">   -189.74991908 </i>
    <i name="e_wo_entrp">   -189.51308830 </i>
    <i name="e_0_energy">   -189.63150369 </i>
   </energy>
  </scstep>
  <scstep>
   <time name="dav">   17.57   17.62</time>
   <time name="total">   17.61   17.66</time>
   <energy>
    <i name="alphaZ">     82.33089116 </i>
    <i name="ewald">  41296.11623187 </i>
    <i name="hartreedc"> -47267.40179427 </i>
    <i name="XCdc">   -235.25747262 </i>
    <i name="pawpsdc">   4038.78159565 </i>
    <i name="pawaedc">  -3454.48220748 </i>
    <i name="eentropy">     -0.23681919 </i>
    <i name="bandstr">  -1411.04291437 </i>
    <i name="atom">   6761.44252427 </i>
    <i name="e_fr_energy">   -189.74996498 </i>
    <i name="e_wo_entrp">   -189.51314579 </i>
    <i name="e_0_energy">   -189.63155539 </i>
   </energy>
  </scstep>
  <structure>
   <crystal>
    <varray name="basis" >
     <v>       8.67301225       5.00178260       0.00000000 </v>
     <v>      -8.66878762       4.99451303       0.00000000 </v>
     <v>       0.00000000       0.00000000      30.00000000 </v>
    </varray>
    <i name="volume">   2600.30591079 </i>
    <varray name="rec_basis" >
     <v>       0.05762222       0.10001271       0.00000000 </v>
     <v>      -0.05770609       0.10006145       0.00000000 </v>
     <v>       0.00000000       0.00000000       0.03333333 </v>
    </varray>
   </crystal>
   <varray name="positions" >
    <v>       0.33566482       0.00192193      -0.00006488 </v>
    <v>       0.33286397       0.33238362       0.00006612 </v>
    <v>      -0.00046813       0.00196313      -0.00007663 </v>
    <v>       0.66845724       0.00369599      -0.00013139 </v>
    <v>       0.99613662       0.33168554       0.00017088 </v>
    <v>       0.66891850       0.33158916       0.00018582 </v>
    <v>      -0.00170385       0.66323531       0.00004017 </v>
    <v>       0.33334481       0.66659417      -0.00011762 </v>
    <v>       0.66656405       0.66662718      -0.00011651 </v>
    <v>       0.11323069       0.21983779       0.95314139 </v>
    <v>       0.22229534       0.11096524       0.04576988 </v>
    <v>       0.11179462       0.55657160       0.95076867 </v>
    <v>       0.22505613       0.44304945       0.04787586 </v>
    <v>       0.11247204       0.89212095       0.95339131 </v>
    <v>       0.22371896       0.78121439       0.04799230 </v>
    <v>       0.43975726       0.22001761       0.95319909 </v>
    <v>       0.55085401       0.10887282       0.04816217 </v>
    <v>       0.44270522       0.55203659       0.95187440 </v>
    <v>       0.55152481       0.44323761       0.04792449 </v>
    <v>       0.44137187       0.89001177       0.95200303 </v>
    <v>       0.55494986       0.77675487       0.04909050 </v>
    <v>       0.77760424       0.22194285       0.95048974 </v>
    <v>       0.89140479       0.10871571       0.04810747 </v>
    <v>       0.77811683       0.55658842       0.95077191 </v>
    <v>       0.88943083       0.44555337       0.04954506 </v>
    <v>       0.78155281       0.88981694       0.95194735 </v>
    <v>       0.89059613       0.78121045       0.04798932 </v>
   </varray>
  </structure>
  <varray name="forces" >
   <v>       0.15785820       0.23740316      -0.08965658 </v>
   <v>      -0.03925488       0.06622518       0.04882025 </v>
   <v>      -0.27993421      -0.02210327      -0.09340671 </v>
   <v>      -0.21776726       0.37435307       0.00442214 </v>
   <v>      -0.62629453      -0.38872477       0.00884979 </v>
   <v>       0.64820721       0.34693925       0.00433417 </v>
   <v>       0.31642287      -0.54884649      -0.06890878 </v>
   <v>       0.07467643       0.04543118       0.08498756 </v>
   <v>      -0.08422699      -0.04211704       0.08501029 </v>
   <v>       0.09014139      -0.00270370      -0.32858521 </v>
   <v>      -0.01533367      -0.00124600       0.27487222 </v>
   <v>      -0.00668848       0.01463635      -0.55300271 </v>
   <v>       0.07460537       0.00238146       0.36473243 </v>
   <v>      -0.01233367       0.05219747      -0.10902535 </v>
   <v>      -0.04503968       0.05623283       0.34127452 </v>
   <v>      -0.02642881      -0.08730167      -0.34180994 </v>
   <v>      -0.06929138      -0.11867643       0.65434957 </v>
   <v>       0.03161943      -0.08311996      -0.51192525 </v>
   <v>      -0.03623491      -0.07997948       0.34777646 </v>
   <v>      -0.09155938      -0.01188275      -0.50201439 </v>
   <v>       0.01271425      -0.00318828       0.39684398 </v>
   <v>      -0.00628243       0.00035572      -0.91585805 </v>
   <v>       0.12140083       0.01007734       0.66615165 </v>
   <v>      -0.02186146      -0.00032110      -0.54754711 </v>
   <v>       0.00081271       0.01248963       0.92565514 </v>
   <v>       0.05247276       0.08837497      -0.48685350 </v>
   <v>      -0.00239968       0.08311334       0.34051341 </v>
  </varray>
  <varray name="stress" >
   <v>     -10.21678077      -0.03492177       0.03307234 </v>
   <v>      -0.03492175      -9.82863897      -0.01232041 </v>
   <v>       0.03307233      -0.01232043       6.49445423 </v>
  </varray>
  <energy>
   <i name="e_fr_energy">   -189.74996498 </i>
   <i name="e_wo_entrp">   -189.63155539 </i>
   <i name="e_0_energy">     -0.23681919 </i>
  </energy>
  <time name="totalsc">  376.85  377.85</time>
 </calculation>
 <calculation>
  <scstep>
   <time name="dav">   21.63   21.68</time>
   <time name="total">   22.16   22.21</time>
   <energy>
    <i name="alphaZ">     85.81974704 </i>
    <i name="ewald">  42834.30327107 </i>
    <i name="hartreedc"> -48850.22136840 </i>
    <i name="XCdc">   -232.95677149 </i>
    <i name="pawpsdc">   4038.71714940 </i>
    <i name="pawaedc">  -3454.41366256 </i>
    <i name="eentropy">     -0.20272983 </i>
    <i name="bandstr">  -1373.83744655 </i>
    <i name="atom">   6761.44252427 </i>
    <i name="e_fr_energy">   -191.34928705 </i>
    <i name="e_wo_entrp">   -191.14655722 </i>
    <i name="e_0_energy">   -191.24792213 </i>
   </energy>
  </scstep>
  <scstep>
   <time name="dav">   31.78   31.86</time>
   <time name="total">   32.30   32.38</time>
   <energy>
    <i name="e_fr_energy">   -191.15313236 </i>
    <i name="e_wo_entrp">   -190.95784990 </i>
    <i name="e_0_energy">   -191.05549113 </i>
   </energy>
  </scstep>
  <scstep>
   <time name="dav">   30.33   30.40</time>
   <time name="total">   30.85   30.93</time>
   <energy>
    <i name="e_fr_energy">   -191.29897264 </i>
    <i name="e_wo_entrp">   -191.07349917 </i>
    <i name="e_0_energy">   -191.18623590 </i>
   </energy>
  </scstep>
  <scstep>
   <time name="dav">   31.66   31.74</time>
   <time name="total">   32.19   32.27</time>
   <energy>
    <i name="e_fr_energy">   -190.89957590 </i>
    <i name="e_wo_entrp">   -190.70085786 </i>
    <i name="e_0_energy">   -190.80021688 </i>
   </energy>
  </scstep>
  <scstep>
   <time name="dav">   29.83   29.90</time>
   <time name="total">   30.35   30.43</time>
   <energy>
    <i name="e_fr_energy">   -190.78056347 </i>
    <i name="e_wo_entrp">   -190.57672769 </i>
    <i name="e_0_energy">   -190.67864558 </i>
   </energy>
  </scstep>
  <scstep>
   <time name="dav">   27.21   27.27</time>
   <time name="total">   27.73   27.80</time>
   <energy>
    <i name="e_fr_energy">   -190.76463355 </i>
    <i name="e_wo_entrp">   -190.55720556 </i>
    <i name="e_0_energy">   -190.66091955 </i>
   </energy>
  </scstep>
  <scstep>
   <time name="dav">   29.51   29.58</time>
   <time name="total">   30.03   30.11</time>
   <energy>
    <i name="e_fr_energy">   -190.76988705 </i>
    <i name="e_wo_entrp">   -190.56226164 </i>
    <i name="e_0_energy">   -190.66607434 </i>
   </energy>
  </scstep>
  <scstep>
   <time name="dav">   28.83   28.90</time>
   <time name="total">   29.35   29.43</time>
   <energy>
    <i name="e_fr_energy">   -190.76153032 </i>
    <i name="e_wo_entrp">   -190.55482464 </i>
    <i name="e_0_energy">   -190.65817748 </i>
   </energy>
  </scstep>
  <scstep>
   <time name="dav">   29.01   29.08</time>
   <time name="total">   29.54   29.61</time>
   <energy>
    <i name="e_fr_energy">   -190.76193662 </i>
    <i name="e_wo_entrp">   -190.55515306 </i>
    <i name="e_0_energy">   -190.65854484 </i>
   </energy>
  </scstep>
  <scstep>
   <time name="dav">   29.57   29.64</time>
   <time name="total">   30.09   30.17</time>
   <energy>
    <i name="e_fr_energy">   -190.76206861 </i>
    <i name="e_wo_entrp">   -190.55533995 </i>
    <i name="e_0_energy">   -190.65870428 </i>
   </energy>
  </scstep>
  <scstep>
   <time name="dav">   25.96   26.02</time>
   <time name="total">   26.48   26.55</time>
   <energy>
    <i name="e_fr_energy">   -190.76162540 </i>
    <i name="e_wo_entrp">   -190.55484793 </i>
    <i name="e_0_energy">   -190.65823667 </i>
   </energy>
  </scstep>
  <scstep>
   <time name="dav">   17.83   17.88</time>
   <time name="total">   17.87   17.92</time>
   <energy>
    <i name="alphaZ">     85.81974704 </i>
    <i name="ewald">  42834.30327107 </i>
    <i name="hartreedc"> -48822.03286820 </i>
    <i name="XCdc">   -234.28606010 </i>
    <i name="pawpsdc">   4064.28845620 </i>
    <i name="pawaedc">  -3480.17894168 </i>
    <i name="eentropy">     -0.20688868 </i>
    <i name="bandstr">  -1399.91086420 </i>
    <i name="atom">   6761.44252427 </i>
    <i name="e_fr_energy">   -190.76162428 </i>
    <i name="e_wo_entrp">   -190.55473560 </i>
    <i name="e_0_energy">   -190.65817994 </i>
   </energy>
  </scstep>
  <structure>
   <crystal>
    <varray name="basis" >
     <v>       8.48846021       4.90076063       0.00000000 </v>
     <v>      -8.48606173       4.89664851       0.00000000 </v>
     <v>       0.00000000       0.00000000      30.00000000 </v>
    </varray>
    <i name="volume">   2494.59489597 </i>
    <varray name="rec_basis" >
     <v>       0.05888710       0.10205338       0.00000000 </v>
     <v>      -0.05893655       0.10208223       0.00000000 </v>
     <v>       0.00000000       0.00000000       0.03333333 </v>
    </varray>
   </crystal>
   <varray name="positions" >
    <v>       0.33772274       0.00267644      -0.00025281 </v>
    <v>       0.33326372       0.33320233       0.00015946 </v>
    <v>      -0.00178080       0.00267684      -0.00027172 </v>
    <v>       0.66996114       0.00671693      -0.00010650 </v>
    <v>       0.99135069       0.33170953       0.00017026 </v>
    <v>       0.67371349       0.33161791       0.00017609 </v>
    <v>      -0.00408726       0.65847544      -0.00011188 </v>
    <v>       0.33396500       0.66660533       0.00007339 </v>
    <v>       0.66592053       0.66666563       0.00007510 </v>
    <v>       0.11362546       0.21944006       0.95209340 </v>
    <v>       0.22221788       0.11099036       0.04669140 </v>
    <v>       0.11174261       0.55640873       0.94915105 </v>
    <v>       0.22525611       0.44240540       0.04903793 </v>
    <v>       0.11295650       0.89290389       0.95280050 </v>
    <v>       0.22409173       0.78217074       0.04912363 </v>
    <v>       0.43898526       0.21951930       0.95212266 </v>
    <v>       0.54966317       0.10828639       0.04994114 </v>
    <v>       0.44207203       0.55093508       0.95036668 </v>
    <v>       0.55059049       0.44248057       0.04905168 </v>
    <v>       0.44102298       0.89063588       0.95054030 </v>
    <v>       0.55512094       0.77698275       0.05037478 </v>
    <v>       0.77759571       0.22198186       0.94811475 </v>
    <v>       0.89200634       0.10824114       0.04990792 </v>
    <v>       0.77788407       0.55638713       0.94916529 </v>
    <v>       0.88937889       0.44536652       0.05197159 </v>
    <v>       0.78261527       0.89054833       0.95051631 </v>
    <v>       0.89135974       0.78218396       0.04911752 </v>
   </varray>
  </structure>
  <varray name="forces" >
   <v>       0.16507870       0.21487352      -0.06030342 </v>
   <v>      -0.07375854       0.12457646       0.00661029 </v>
   <v>      -0.26899856      -0.03924655      -0.06159031 </v>
   <v>      -0.17095068       0.29904653       0.03969516 </v>
   <v>      -0.66824262      -0.33858583      -0.02783386 </v>
   <v>       0.62450666       0.40789217      -0.02262764 </v>
   <v>       0.34615042      -0.60125830      -0.03021851 </v>
   <v>       0.13190730       0.09476560       0.05958308 </v>
   <v>      -0.15340754      -0.06542167       0.06048427 </v>
   <v>      -0.06394400      -0.00587298      -0.22504840 </v>
   <v>      -0.00977119      -0.00275025       0.25355675 </v>
   <v>       0.05638986      -0.05145851      -0.35771919 </v>
   <v>      -0.01870352      -0.09745478       0.21266777 </v>
   <v>       0.03701348      -0.04420789      -0.01967614 </v>
   <v>      -0.05700850      -0.00439876       0.17441678 </v>
   <v>       0.05062920       0.05444251      -0.23105424 </v>
   <v>      -0.03002339       0.02447197       0.45667922 </v>
   <v>       0.03049245      -0.05139978      -0.37547247 </v>
   <v>       0.08982882      -0.04137863       0.20371939 </v>
   <v>      -0.00397517       0.03900170      -0.35133198 </v>
   <v>      -0.05135590       0.08778255       0.26972781 </v>
   <v>       0.00965978      -0.00958801      -0.70059270 </v>
   <v>      -0.01704591       0.03625283       0.46176492 </v>
   <v>       0.01868646      -0.07401661      -0.35450747 </v>
   <v>       0.01940966      -0.03738722       0.79273161 </v>
   <v>      -0.02490103       0.03367506      -0.34637374 </v>
   <v>       0.03233374       0.04764489       0.17271300 </v>
  </varray>
  <varray name="stress" >
   <v>      -5.65271282       0.12545870      -0.14547535 </v>
   <v>       0.12545889      -5.82681088       0.11940978 </v>
   <v>      -0.14547542       0.11940972       4.53085467 </v>
  </varray>
  <energy>
   <i name="e_fr_energy">   -190.76162428 </i>
   <i name="e_wo_entrp">   -190.65817994 </i>
   <i name="e_0_energy">     -0.20688868 </i>
  </energy>
  <time name="totalsc">  380.79  381.80</time>
 </calculation>
 <calculation>
  <scstep>
   <time name="dav">   21.64   21.69</time>
   <time name="total">   22.15   22.21</time>
   <energy>
    <i name="alphaZ">     90.10573071 </i>
    <i name="ewald">  44642.88376501 </i>
    <i name="hartreedc"> -50684.77210764 </i>
    <i name="XCdc">   -231.85388945 </i>
    <i name="pawpsdc">   4064.25194599 </i>
    <i name="pawaedc">  -3480.13868590 </i>
    <i name="eentropy">     -0.19531549 </i>
    <i name="bandstr">  -1353.83588788 </i>
    <i name="atom">   6761.44252427 </i>
    <i name="e_fr_energy">   -192.11192037 </i>
    <i name="e_wo_entrp">   -191.91660488 </i>
    <i name="e_0_energy">   -192.01426263 </i>
   </energy>
  </scstep>
  <scstep>
   <time name="dav">   28.22   28.29</time>
   <time name="total">   28.72   28.80</time>
   <energy>
    <i name="e_fr_energy">   -191.84057522 </i>
    <i name="e_wo_entrp">   -191.64384274 </i>
    <i name="e_0_energy">   -191.74220898 </i>
   </energy>
  </scstep>
  <scstep>
   <time name="dav">   29.73   29.80</time>
   <time name="total">   30.24   30.32</time>
   <energy>
    <i name="e_fr_energy">   -191.97007731 </i>
    <i name="e_wo_entrp">   -191.75862766 </i>
    <i name="e_0_energy">   -191.86435249 </i>
   </energy>
  </scstep>
  <scstep>
   <time name="dav">   27.89   27.95</time>
   <time name="total">   28.40   28.48</time>
   <energy>
    <i name="e_fr_energy">   -191.77347617 </i>
    <i name="e_wo_entrp">   -191.57390594 </i>
    <i name="e_0_energy">   -191.67369106 </i>
   </energy>
  </scstep>
  <scstep>
   <time name="dav">   30.49   30.56</time>
   <time name="total">   31.00   31.08</time>
   <energy>
    <i name="e_fr_energy">   -191.57802288 </i>
    <i name="e_wo_entrp">   -191.39192048 </i>
    <i name="e_0_energy">   -191.48497168 </i>
   </energy>
  </scstep>
  <scstep>
   <time name="dav">   30.64   30.71</time>
   <time name="total">   31.15   31.23</time>
   <energy>
    <i name="e_fr_energy">   -191.44032820 </i>
    <i name="e_wo_entrp">   -191.23703102 </i>
    <i name="e_0_energy">   -191.33867961 </i>
   </energy>
  </scstep>
  <scstep>
   <time name="dav">   30.22   30.30</time>
   <time name="total">   30.74   30.82</time>
   <energy>
    <i name="e_fr_energy">   -191.42371883 </i>
    <i name="e_wo_entrp">   -191.22105571 </i>
    <i name="e_0_energy">   -191.32238727 </i>
   </energy>
  </scstep>
  <scstep>
   <time name="dav">   26.93   27.00</time>
   <time name="total">   27.44   27.52</time>
   <energy>
    <i name="e_fr_energy">   -191.41909440 </i>
    <i name="e_wo_entrp">   -191.21681222 </i>
    <i name="e_0_energy">   -191.31795331 </i>
   </energy>
  </scstep>
  <scstep>
   <time name="dav">   31.11   31.19</time>
   <time name="total">   31.63   31.71</time>
   <energy>
    <i name="e_fr_energy">   -191.42109792 </i>
    <i name="e_wo_entrp">   -191.21860402 </i>
    <i name="e_0_energy">   -191.31985097 </i>
   </energy>
  </scstep>
  <scstep>
   <time name="dav">   28.83   28.90</time>
   <time name="total">   29.34   29.42</time>
   <energy>
    <i name="e_fr_energy">   -191.41932469 </i>
    <i name="e_wo_entrp">   -191.21665189 </i>
    <i name="e_0_energy">   -191.31798829 </i>
   </energy>
  </scstep>
  <scstep>
   <time name="dav">   26.61   26.68</time>
   <time name="total">   27.13   27.20</time>
   <energy>
    <i name="e_fr_energy">   -191.41913398 </i>
    <i name="e_wo_entrp">   -191.21619338 </i>
    <i name="e_0_energy">   -191.31766368 </i>
   </energy>
  </scstep>
  <scstep>
   <time name="dav">   18.94   18.99</time>
   <time name="total">   18.98   19.03</time>
   <energy>
    <i name="alphaZ">     90.10573071 </i>
    <i name="ewald">  44642.88376501 </i>
    <i name="hartreedc"> -50651.99205052 </i>
    <i name="XCdc">   -233.34536254 </i>
    <i name="pawpsdc">   4087.72093730 </i>
    <i name="pawaedc">  -3503.73646316 </i>
    <i name="eentropy">     -0.20300601 </i>
    <i name="bandstr">  -1384.29519776 </i>
    <i name="atom">   6761.44252427 </i>
    <i name="e_fr_energy">   -191.41912270 </i>
    <i name="e_wo_entrp">   -191.21611669 </i>
    <i name="e_0_energy">   -191.31761969 </i>
   </energy>
  </scstep>
  <structure>
   <crystal>
    <varray name="basis" >
     <v>       8.29098881       4.78626593       0.00000000 </v>
     <v>      -8.28220280       4.77109091       0.00000000 </v>
     <v>       0.00000000       0.00000000      30.00000000 </v>
    </varray>
    <i name="volume">   2375.93659426 </i>
    <varray name="rec_basis" >
     <v>       0.06024265       0.10457606       0.00000000 </v>
     <v>      -0.06043426       0.10468700       0.00000000 </v>
     <v>       0.00000000       0.00000000       0.03333333 </v>
    </varray>
   </crystal>
   <varray name="positions" >
    <v>       0.34148224       0.00397597      -0.00050684 </v>
    <v>       0.33432948       0.33537925       0.00019850 </v>
    <v>      -0.00428422       0.00393214      -0.00053138 </v>
    <v>       0.67238716       0.01153990       0.00004841 </v>
    <v>       0.98250119       0.33237672       0.00005898 </v>
    <v>       0.68318925       0.33228813       0.00008045 </v>
    <v>      -0.00895654       0.64875494      -0.00026073 </v>
    <v>       0.33596106       0.66679898       0.00033678 </v>
    <v>       0.66408670       0.66691496       0.00034219 </v>
    <v>       0.11335536       0.21961432       0.95074772 </v>
    <v>       0.22209833       0.11100759       0.04808933 </v>
    <v>       0.11142940       0.55525182       0.94712096 </v>
    <v>       0.22410730       0.44100255       0.05040391 </v>
    <v>       0.11301632       0.89277479       0.95226984 </v>
    <v>       0.22395617       0.78309232       0.05036725 </v>
    <v>       0.43954730       0.21961413       0.95074852 </v>
    <v>       0.54926264       0.10849163       0.05230617 </v>
    <v>       0.44136266       0.54953270       0.94832510 </v>
    <v>       0.55019975       0.44098234       0.05037872 </v>
    <v>       0.44136407       0.89154230       0.94861328 </v>
    <v>       0.55589539       0.77851750       0.05201370 </v>
    <v>       0.77756196       0.22184594       0.94472389 </v>
    <v>       0.89252201       0.10851474       0.05229305 </v>
    <v>       0.77703508       0.55521255       0.94714860 </v>
    <v>       0.88897833       0.44458684       0.05571591 </v>
    <v>       0.78336348       0.89155224       0.94861434 </v>
    <v>       0.89246258       0.78311718       0.05035323 </v>
   </varray>
  </structure>
  <varray name="forces" >
   <v>       0.10209770       0.22814586       0.00866170 </v>
   <v>      -0.04848118       0.08168628       0.02232285 </v>
   <v>      -0.24778818       0.02543124       0.01614521 </v>
   <v>       0.02352320      -0.03761069      -0.03120214 </v>
   <v>      -0.08330831      -0.03017351      -0.01179935 </v>
   <v>       0.06791608       0.05041032      -0.02066035 </v>
   <v>       0.18511838      -0.31391750       0.08749573 </v>
   <v>       0.20718056       0.19954010       0.00393348 </v>
   <v>      -0.28005715      -0.07877144       0.00245769 </v>
   <v>      -0.25721573       0.01488356       0.01463086 </v>
   <v>      -0.00068019       0.00562361       0.00215641 </v>
   <v>       0.09466443      -0.08914343      -0.04514649 </v>
   <v>      -0.14010920      -0.17065502      -0.09062053 </v>
   <v>       0.12530669      -0.21594072       0.20061722 </v>
   <v>      -0.01997807      -0.09628168      -0.10256161 </v>
   <v>       0.11595821       0.23011238       0.02053988 </v>
   <v>       0.00447811       0.16704627       0.08605723 </v>
   <v>      -0.01048808       0.02263322      -0.12972334 </v>
   <v>       0.21647047       0.03770645      -0.08721949 </v>
   <v>       0.09459702       0.05389529      -0.05922877 </v>
   <v>      -0.08502755       0.14272824       0.13360003 </v>
   <v>       0.02830594      -0.04984431      -0.24538970 </v>
   <v>      -0.14706622       0.07966483       0.08268257 </v>
   <v>       0.03058197      -0.12610424      -0.04332606 </v>
   <v>       0.02396941      -0.04218167       0.35467334 </v>
   <v>      -0.09115426      -0.05517592      -0.06720173 </v>
   <v>       0.09118597      -0.03370750      -0.10189464 </v>
  </varray>
  <varray name="stress" >
   <v>       0.47296405       0.27515857      -0.19906045 </v>
   <v>       0.27515875       0.20228296       0.32495787 </v>
   <v>      -0.19906052       0.32495803      -0.41738699 </v>
  </varray>
  <energy>
   <i name="e_fr_energy">   -191.41912270 </i>
   <i name="e_wo_entrp">   -191.31761969 </i>
   <i name="e_0_energy">     -0.20300601 </i>
  </energy>
  <time name="totalsc">  379.22  380.22</time>
 </calculation>
 <calculation>
  <scstep>
   <time name="dav">   21.63   21.68</time>
   <time name="total">   22.14   22.20</time>
   <energy>
    <i name="alphaZ">     89.87429094 </i>
    <i name="ewald">  44519.51173919 </i>
    <i name="hartreedc"> -50527.01875066 </i>
    <i name="XCdc">   -233.58220932 </i>
    <i name="pawpsdc">   4087.50814305 </i>
    <i name="pawaedc">  -3503.51660682 </i>
    <i name="eentropy">     -0.20556429 </i>
    <i name="bandstr">  -1385.47380136 </i>
    <i name="atom">   6761.44252427 </i>
    <i name="e_fr_energy">   -191.46023499 </i>
    <i name="e_wo_entrp">   -191.25467070 </i>
    <i name="e_0_energy">   -191.35745285 </i>
   </energy>
  </scstep>
  <scstep>
   <time name="dav">   32.38   32.46</time>
   <time name="total">   32.89   32.98</time>
   <energy>
    <i name="e_fr_energy">   -191.49597322 </i>
    <i name="e_wo_entrp">   -191.28229384 </i>
    <i name="e_0_energy">   -191.38913353 </i>
   </energy>
  </scstep>
  <scstep>
   <time name="dav">   30.77   30.84</time>
   <time name="total">   31.28   31.36</time>
   <energy>
    <i name="e_fr_energy">   -191.46876366 </i>
    <i name="e_wo_entrp">   -191.26311028 </i>
    <i name="e_0_energy">   -191.36593697 </i>
   </energy>
  </scstep>
  <scstep>
   <time name="dav">   28.88   28.95</time>
   <time name="total">   29.39   29.47</time>
   <energy>
    <i name="e_fr_energy">   -191.47003460 </i>
    <i name="e_wo_entrp">   -191.26412221 </i>
    <i name="e_0_energy">   -191.36707841 </i>
   </energy>
  </scstep>
  <scstep>
   <time name="dav">   26.29   26.36</time>
   <time name="total">   26.80   26.88</time>
   <energy>
    <i name="e_fr_energy">   -191.46682915 </i>
    <i name="e_wo_entrp">   -191.25942490 </i>
    <i name="e_0_energy">   -191.36312702 </i>
   </energy>
  </scstep>
  <scstep>
   <time name="dav">   27.99   28.06</time>
   <time name="total">   28.51   28.58</time>
   <energy>
    <i name="e_fr_energy">   -191.46637857 </i>
    <i name="e_wo_entrp">   -191.25995986 </i>
    <i name="e_0_energy">   -191.36316922 </i>
   </energy>
  </scstep>
  <scstep>
   <time name="dav">   24.07   24.13</time>
   <time name="total">   24.59   24.65</time>
   <energy>
    <i name="e_fr_energy">   -191.46623181 </i>
    <i name="e_wo_entrp">   -191.25977212 </i>
    <i name="e_0_energy">   -191.36300197 </i>
   </energy>
  </scstep>
  <scstep>
   <time name="dav">   19.00   19.05</time>
   <time name="total">   19.04   19.09</time>
   <energy>
    <i name="alphaZ">     89.87429094 </i>
    <i name="ewald">  44519.51173919 </i>
    <i name="hartreedc"> -50529.68397414 </i>
    <i name="XCdc">   -233.48855447 </i>
    <i name="pawpsdc">   4082.47322759 </i>
    <i name="pawaedc">  -3498.41766040 </i>
    <i name="eentropy">     -0.20651353 </i>
    <i name="bandstr">  -1382.97129668 </i>
    <i name="atom">   6761.44252427 </i>
    <i name="e_fr_energy">   -191.46621721 </i>
    <i name="e_wo_entrp">   -191.25970369 </i>
    <i name="e_0_energy">   -191.36296045 </i>
   </energy>
  </scstep>
  <structure>
   <crystal>
    <varray name="basis" >
     <v>       8.30761268       4.79643336       0.00000000 </v>
     <v>      -8.29237637       4.77008303       0.00000000 </v>
     <v>       0.00000000       0.00000000      30.00000000 </v>
    </varray>
    <i name="volume">   2382.05498696 </i>
    <varray name="rec_basis" >
     <v>       0.06007523       0.10443558       0.00000000 </v>
     <v>      -0.06040709       0.10462747       0.00000000 </v>
     <v>       0.00000000       0.00000000       0.03333333 </v>
    </varray>
   </crystal>
   <varray name="positions" >
    <v>       0.34273506       0.00474763      -0.00048533 </v>
    <v>       0.33455127       0.33583212       0.00023099 </v>
    <v>      -0.00476284       0.00470174      -0.00049829 </v>
    <v>       0.67219598       0.01114337      -0.00000393 </v>
    <v>       0.98240757       0.33243941       0.00004453 </v>
    <v>       0.68331551       0.33231856       0.00005213 </v>
    <v>      -0.00979370       0.64704823      -0.00012217 </v>
    <v>       0.33742351       0.66717591       0.00033390 </v>
    <v>       0.66299650       0.66730430       0.00033694 </v>
    <v>       0.11272167       0.22039458       0.95082210 </v>
    <v>       0.22212747       0.11103620       0.04804018 </v>
    <v>       0.11127569       0.55460343       0.94712925 </v>
    <v>       0.22293892       0.44062487       0.05021168 </v>
    <v>       0.11232035       0.89138572       0.95260180 </v>
    <v>       0.22343862       0.78264560       0.05016005 </v>
    <v>       0.44095795       0.22039611       0.95083290 </v>
    <v>       0.55009616       0.10927827       0.05235087 </v>
    <v>       0.44147068       0.54972618       0.94820369 </v>
    <v>       0.55099913       0.44062001       0.05019296 </v>
    <v>       0.44187345       0.89150165       0.94859521 </v>
    <v>       0.55631745       0.77938427       0.05215334 </v>
    <v>       0.77740246       0.22153262       0.94447009 </v>
    <v>       0.89247744       0.10929937       0.05233198 </v>
    <v>       0.77654522       0.55456505       0.94715923 </v>
    <v>       0.88885715       0.44434752       0.05612527 </v>
    <v>       0.78281438       0.89149939       0.94858323 </v>
    <v>       0.89251139       0.78266232       0.05014732 </v>
   </varray>
  </structure>
  <varray name="forces" >
   <v>       0.08077019       0.26200157      -0.00384925 </v>
   <v>      -0.03064366       0.05199497       0.04339578 </v>
   <v>      -0.26659328       0.06113114      -0.00379824 </v>
   <v>       0.02027752      -0.03342160      -0.03731157 </v>
   <v>      -0.21051001      -0.14472753      -0.02340714 </v>
   <v>       0.23204214       0.10655858      -0.01931994 </v>
   <v>       0.20772215      -0.35334280      -0.00472765 </v>
   <v>       0.20959825       0.23159236       0.00927056 </v>
   <v>      -0.31171751      -0.06491118       0.00861519 </v>
   <v>      -0.14232544       0.01614546       0.00895513 </v>
   <v>      -0.00416781       0.00881599      -0.04263588 </v>
   <v>       0.05655369      -0.02784889       0.02444726 </v>
   <v>      -0.07391987      -0.08222393      -0.08802263 </v>
   <v>       0.07832361      -0.13379769       0.24580050 </v>
   <v>       0.00938387      -0.05837822      -0.11649346 </v>
   <v>       0.05787550       0.13211830       0.00865833 </v>
   <v>       0.01634989       0.08452492       0.07253807 </v>
   <v>      -0.00660948       0.01463317      -0.11918206 </v>
   <v>       0.10605342       0.02385612      -0.08876563 </v>
   <v>       0.05164434       0.02918356      -0.05574515 </v>
   <v>      -0.04680337       0.07719248       0.14733247 </v>
   <v>       0.01786369      -0.02710083      -0.11572295 </v>
   <v>      -0.08222937       0.02760737       0.07374237 </v>
   <v>      -0.00304904      -0.06091376       0.02622280 </v>
   <v>       0.03817598      -0.07171718       0.22477527 </v>
   <v>      -0.04810971      -0.02878063      -0.05824524 </v>
   <v>       0.04404431      -0.04019173      -0.11652692 </v>
  </varray>
  <varray name="stress" >
   <v>      -0.37310149      -0.04124797      -0.05383527 </v>
   <v>      -0.04124779      -0.33369957       0.05024514 </v>
   <v>      -0.05383532       0.05024524      -1.15526363 </v>
  </varray>
  <energy>
   <i name="e_fr_energy">   -191.46621721 </i>
   <i name="e_wo_entrp">   -191.36296045 </i>
   <i name="e_0_energy">     -0.20651353 </i>
  </energy>
  <time name="totalsc">  256.51  257.19</time>
 </calculation>
 <calculation>
  <scstep>
   <time name="dav">   21.64   21.69</time>
   <time name="total">   22.15   22.21</time>
   <energy>
    <i name="alphaZ">     90.13310152 </i>
    <i name="ewald">  44632.10464005 </i>
    <i name="hartreedc"> -50645.21697829 </i>
    <i name="XCdc">   -233.33235039 </i>
    <i name="pawpsdc">   4082.23769395 </i>
    <i name="pawaedc">  -3498.17948608 </i>
    <i name="eentropy">     -0.20807446 </i>
    <i name="bandstr">  -1380.50022539 </i>
    <i name="atom">   6761.44252427 </i>
    <i name="e_fr_energy">   -191.51915481 </i>
    <i name="e_wo_entrp">   -191.31108035 </i>
    <i name="e_0_energy">   -191.41511758 </i>
   </energy>
  </scstep>
  <scstep>
   <time name="dav">   32.95   33.03</time>
   <time name="total">   33.46   33.54</time>
   <energy>
    <i name="e_fr_energy">   -191.54085786 </i>
    <i name="e_wo_entrp">   -191.32479354 </i>
    <i name="e_0_energy">   -191.43282570 </i>
   </energy>
  </scstep>
  <scstep>
   <time name="dav">   30.22   30.29</time>
   <time name="total">   30.73   30.81</time>
   <energy>
    <i name="e_fr_energy">   -191.52906039 </i>
    <i name="e_wo_entrp">   -191.32213630 </i>
    <i name="e_0_energy">   -191.42559835 </i>
   </energy>
  </scstep>
  <scstep>
   <time name="dav">   29.12   29.19</time>
   <time name="total">   29.63   29.71</time>
   <energy>
    <i name="e_fr_energy">   -191.52664737 </i>
    <i name="e_wo_entrp">   -191.31868427 </i>
    <i name="e_0_energy">   -191.42266582 </i>
   </energy>
  </scstep>
  <scstep>
   <time name="dav">   27.36   27.42</time>
   <time name="total">   27.87   27.94</time>
   <energy>
    <i name="e_fr_energy">   -191.52408679 </i>
    <i name="e_wo_entrp">   -191.31389493 </i>
    <i name="e_0_energy">   -191.41899086 </i>
   </energy>
  </scstep>
  <scstep>
   <time name="dav">   26.30   26.36</time>
   <time name="total">   26.81   26.88</time>
   <energy>
    <i name="e_fr_energy">   -191.52306624 </i>
    <i name="e_wo_entrp">   -191.31387455 </i>
    <i name="e_0_energy">   -191.41847039 </i>
   </energy>
  </scstep>
  <scstep>
   <time name="dav">   29.55   29.62</time>
   <time name="total">   30.06   30.14</time>
   <energy>
    <i name="e_fr_energy">   -191.52300463 </i>
    <i name="e_wo_entrp">   -191.31329834 </i>
    <i name="e_0_energy">   -191.41815148 </i>
   </energy>
  </scstep>
  <scstep>
   <time name="dav">   22.67   22.72</time>
   <time name="total">   23.17   23.24</time>
   <energy>
    <i name="e_fr_energy">   -191.52279744 </i>
    <i name="e_wo_entrp">   -191.31310606 </i>
    <i name="e_0_energy">   -191.41795175 </i>
   </energy>
  </scstep>
  <scstep>
   <time name="dav">   17.21   17.25</time>
   <time name="total">   17.25   17.30</time>
   <energy>
    <i name="alphaZ">     90.13310152 </i>
    <i name="ewald">  44632.10464005 </i>
    <i name="hartreedc"> -50643.66979338 </i>
    <i name="XCdc">   -233.39916473 </i>
    <i name="pawpsdc">   4084.96147569 </i>
    <i name="pawaedc">  -3500.93905037 </i>
    <i name="eentropy">     -0.20954673 </i>
    <i name="bandstr">  -1381.94693263 </i>
    <i name="atom">   6761.44252427 </i>
    <i name="e_fr_energy">   -191.52274631 </i>
    <i name="e_wo_entrp">   -191.31319958 </i>
    <i name="e_0_energy">   -191.41797294 </i>
   </energy>
  </scstep>
  <structure>
   <crystal>
    <varray name="basis" >
     <v>       8.29527912       4.78923518       0.00000000 </v>
     <v>      -8.28052834       4.76372623       0.00000000 </v>
     <v>       0.00000000       0.00000000      30.00000000 </v>
    </varray>
    <i name="volume">   2375.21509120 </i>
    <varray name="rec_basis" >
     <v>       0.06016793       0.10458668       0.00000000 </v>
     <v>      -0.06049012       0.10477298       0.00000000 </v>
     <v>       0.00000000       0.00000000       0.03333333 </v>
    </varray>
   </crystal>
   <varray name="positions" >
    <v>       0.34458060       0.00597582      -0.00050067 </v>
    <v>       0.33478942       0.33631663       0.00030759 </v>
    <v>      -0.00537910       0.00592635      -0.00051301 </v>
    <v>       0.67216387       0.01106837      -0.00006381 </v>
    <v>       0.98066133       0.33235029       0.00000006 </v>
    <v>       0.68495563       0.33220531       0.00001406 </v>
    <v>      -0.01126421       0.64407198      -0.00012756 </v>
    <v>       0.33944109       0.66778800       0.00036022 </v>
    <v>       0.66157427       0.66794292       0.00036215 </v>
    <v>       0.11233168       0.22096346       0.95077739 </v>
    <v>       0.22215789       0.11109720       0.04803062 </v>
    <v>       0.11127570       0.55419440       0.94707520 </v>
    <v>       0.22216798       0.44032835       0.05011902 </v>
    <v>       0.11182085       0.89036725       0.95300203 </v>
    <v>       0.22313011       0.78233257       0.05001479 </v>
[...]
      <set comment="kpoint 31">
       <r>  -17.5141    1.0000 </r>
       <r>  -17.2158    1.0000 </r>
       <r>  -16.9191    1.0000 </r>
       <r>  -16.5459    1.0000 </r>
       <r>  -16.5162    1.0000 </r>
       <r>  -16.4283    1.0000 </r>
       <r>  -16.2472    1.0000 </r>
       <r>  -16.1973    1.0000 </r>
       <r>  -16.1166    1.0000 </r>
       <r>  -16.0281    1.0000 </r>
       <r>  -15.9485    1.0000 </r>
       <r>  -15.8569    1.0000 </r>
       <r>  -15.8131    1.0000 </r>
       <r>  -15.6829    1.0000 </r>
       <r>  -15.6272    1.0000 </r>
       <r>  -15.4922    1.0000 </r>
       <r>  -15.4389    1.0000 </r>
       <r>  -15.3488    1.0000 </r>
       <r>   -9.7392    1.0000 </r>
       <r>   -9.4688    1.0000 </r>
       <r>   -9.2577    1.0000 </r>
       <r>   -8.9817    1.0000 </r>
       <r>   -8.8432    1.0000 </r>
       <r>   -8.6999    1.0000 </r>
       <r>   -8.5911    1.0000 </r>
       <r>   -8.4931    1.0000 </r>
       <r>   -8.4151    1.0000 </r>
       <r>   -8.3411    1.0000 </r>
       <r>   -8.3057    1.0000 </r>
       <r>   -8.1934    1.0000 </r>
       <r>   -8.0700    1.0000 </r>
       <r>   -8.0172    1.0000 </r>
       <r>   -7.9418    1.0000 </r>
       <r>   -7.8663    1.0000 </r>
       <r>   -7.8094    1.0000 </r>
       <r>   -7.6578    1.0000 </r>
       <r>   -7.6058    1.0000 </r>
       <r>   -7.4946    1.0000 </r>
       <r>   -7.3318    1.0000 </r>
       <r>   -7.2787    1.0000 </r>
       <r>   -7.0960    1.0000 </r>
       <r>   -6.9929    1.0000 </r>
       <r>   -6.9373    1.0000 </r>
       <r>   -6.9086    1.0000 </r>
       <r>   -6.8606    1.0000 </r>
       <r>   -6.7706    1.0000 </r>
       <r>   -6.6924    1.0000 </r>
       <r>   -6.6117    1.0000 </r>
       <r>   -6.5701    1.0000 </r>
       <r>   -6.4963    1.0000 </r>
       <r>   -6.4145    1.0000 </r>
       <r>   -6.3457    1.0000 </r>
       <r>   -6.2608    1.0000 </r>
       <r>   -6.2005    1.0000 </r>
       <r>   -6.0999    1.0000 </r>
       <r>   -6.0475    1.0000 </r>
       <r>   -5.9911    1.0000 </r>
       <r>   -5.9412    1.0000 </r>
       <r>   -5.8735    1.0000 </r>
       <r>   -5.8456    1.0000 </r>
       <r>   -5.7269    1.0000 </r>
       <r>   -5.6715    1.0000 </r>
       <r>   -5.5076    1.0000 </r>
       <r>   -5.4144    1.0000 </r>
       <r>   -5.3348    1.0000 </r>
       <r>   -5.1658    1.0000 </r>
       <r>   -5.0786    1.0000 </r>
       <r>   -5.0142    1.0000 </r>
       <r>   -4.8006    1.0000 </r>
       <r>   -4.6678    1.0000 </r>
       <r>   -4.5682    1.0000 </r>
       <r>   -4.4116    1.0000 </r>
       <r>   -4.3119    1.0000 </r>
       <r>   -4.2527    1.0000 </r>
       <r>   -4.0979    1.0000 </r>
       <r>   -4.0615    1.0000 </r>
       <r>   -3.8278    0.9999 </r>
       <r>   -3.5119    0.9362 </r>
       <r>   -3.4200    0.8089 </r>
       <r>   -3.3460    0.6369 </r>
       <r>   -3.1462    0.1440 </r>
       <r>   -2.8358    0.0006 </r>
       <r>   -2.7942    0.0002 </r>
       <r>   -2.6012    0.0000 </r>
       <r>   -2.5536    0.0000 </r>
       <r>   -2.4408    0.0000 </r>
       <r>   -2.2321    0.0000 </r>
       <r>   -2.1567    0.0000 </r>
       <r>   -2.1416    0.0000 </r>
       <r>   -2.0542    0.0000 </r>
       <r>   -1.7968    0.0000 </r>
       <r>   -1.5623    0.0000 </r>
       <r>   -1.4318    0.0000 </r>
       <r>   -1.3524    0.0000 </r>
       <r>   -1.3117    0.0000 </r>
       <r>   -1.2501    0.0000 </r>
       <r>   -1.2053    0.0000 </r>
       <r>   -1.0702    0.0000 </r>
       <r>   -0.9551    0.0000 </r>
       <r>   -0.8962    0.0000 </r>
       <r>   -0.8332    0.0000 </r>
       <r>   -0.7503    0.0000 </r>
       <r>   -0.6293    0.0000 </r>
       <r>   -0.5284    0.0000 </r>
       <r>   -0.4131    0.0000 </r>
       <r>   -0.3541    0.0000 </r>
       <r>   -0.1965    0.0000 </r>
       <r>   -0.0495    0.0000 </r>
       <r>    0.0101    0.0000 </r>
       <r>    0.1611    0.0000 </r>
       <r>    0.3281    0.0000 </r>
       <r>    0.5724    0.0000 </r>
       <r>    0.8021    0.0000 </r>
       <r>    0.9381    0.0000 </r>
       <r>    1.1560    0.0000 </r>
       <r>    1.1850    0.0000 </r>
       <r>    1.2896    0.0000 </r>
       <r>    2.1343    0.0000 </r>
       <r>    2.2788    0.0000 </r>
       <r>    2.4025    0.0000 </r>
      </set>
      <set comment="kpoint 32">
       <r>  -17.5180    1.0000 </r>
       <r>  -17.1467    1.0000 </r>
       <r>  -17.0413    1.0000 </r>
       <r>  -16.5390    1.0000 </r>
       <r>  -16.4723    1.0000 </r>
       <r>  -16.3186    1.0000 </r>
       <r>  -16.2699    1.0000 </r>
       <r>  -16.2077    1.0000 </r>
       <r>  -16.1449    1.0000 </r>
       <r>  -16.0438    1.0000 </r>
       <r>  -15.9965    1.0000 </r>
       <r>  -15.8658    1.0000 </r>
       <r>  -15.7885    1.0000 </r>
       <r>  -15.6947    1.0000 </r>
       <r>  -15.6106    1.0000 </r>
       <r>  -15.5137    1.0000 </r>
       <r>  -15.4317    1.0000 </r>
       <r>  -15.3349    1.0000 </r>
       <r>   -9.6442    1.0000 </r>
       <r>   -9.5883    1.0000 </r>
       <r>   -9.3385    1.0000 </r>
       <r>   -8.9285    1.0000 </r>
       <r>   -8.7603    1.0000 </r>
       <r>   -8.6036    1.0000 </r>
       <r>   -8.5392    1.0000 </r>
       <r>   -8.4831    1.0000 </r>
       <r>   -8.4050    1.0000 </r>
       <r>   -8.3270    1.0000 </r>
       <r>   -8.2868    1.0000 </r>
       <r>   -8.2212    1.0000 </r>
       <r>   -8.1507    1.0000 </r>
       <r>   -8.0982    1.0000 </r>
       <r>   -8.0268    1.0000 </r>
       <r>   -7.9431    1.0000 </r>
       <r>   -7.8131    1.0000 </r>
       <r>   -7.6376    1.0000 </r>
       <r>   -7.5208    1.0000 </r>
       <r>   -7.4448    1.0000 </r>
       <r>   -7.3194    1.0000 </r>
       <r>   -7.2323    1.0000 </r>
       <r>   -7.1671    1.0000 </r>
       <r>   -7.0631    1.0000 </r>
       <r>   -6.9949    1.0000 </r>
       <r>   -6.8768    1.0000 </r>
       <r>   -6.8494    1.0000 </r>
       <r>   -6.8174    1.0000 </r>
       <r>   -6.7090    1.0000 </r>
       <r>   -6.6215    1.0000 </r>
       <r>   -6.5508    1.0000 </r>
       <r>   -6.4531    1.0000 </r>
       <r>   -6.3869    1.0000 </r>
       <r>   -6.3303    1.0000 </r>
       <r>   -6.2965    1.0000 </r>
       <r>   -6.1966    1.0000 </r>
       <r>   -6.1321    1.0000 </r>
       <r>   -6.0652    1.0000 </r>
       <r>   -5.9760    1.0000 </r>
       <r>   -5.9286    1.0000 </r>
       <r>   -5.8744    1.0000 </r>
       <r>   -5.7385    1.0000 </r>
       <r>   -5.6893    1.0000 </r>
       <r>   -5.5816    1.0000 </r>
       <r>   -5.4897    1.0000 </r>
       <r>   -5.3898    1.0000 </r>
       <r>   -5.3325    1.0000 </r>
       <r>   -5.2900    1.0000 </r>
       <r>   -5.1828    1.0000 </r>
       <r>   -5.0220    1.0000 </r>
       <r>   -4.8244    1.0000 </r>
       <r>   -4.6381    1.0000 </r>
       <r>   -4.5227    1.0000 </r>
       <r>   -4.4512    1.0000 </r>
       <r>   -4.3246    1.0000 </r>
       <r>   -4.2607    1.0000 </r>
       <r>   -4.1008    1.0000 </r>
       <r>   -4.0161    1.0000 </r>
       <r>   -3.8134    0.9999 </r>
       <r>   -3.5471    0.9619 </r>
       <r>   -3.4552    0.8692 </r>
       <r>   -3.2960    0.4988 </r>
       <r>   -3.1123    0.0965 </r>
       <r>   -2.8215    0.0004 </r>
       <r>   -2.8041    0.0002 </r>
       <r>   -2.6589    0.0000 </r>
       <r>   -2.5307    0.0000 </r>
       <r>   -2.3881    0.0000 </r>
       <r>   -2.2503    0.0000 </r>
       <r>   -2.1527    0.0000 </r>
       <r>   -2.1194    0.0000 </r>
       <r>   -2.0619    0.0000 </r>
       <r>   -1.8193    0.0000 </r>
       <r>   -1.5689    0.0000 </r>
       <r>   -1.4810    0.0000 </r>
       <r>   -1.3410    0.0000 </r>
       <r>   -1.3027    0.0000 </r>
       <r>   -1.2109    0.0000 </r>
       <r>   -1.1660    0.0000 </r>
       <r>   -1.0602    0.0000 </r>
       <r>   -0.9775    0.0000 </r>
       <r>   -0.9205    0.0000 </r>
       <r>   -0.8507    0.0000 </r>
       <r>   -0.7614    0.0000 </r>
       <r>   -0.5894    0.0000 </r>
       <r>   -0.4721    0.0000 </r>
       <r>   -0.4239    0.0000 </r>
       <r>   -0.3584    0.0000 </r>
       <r>   -0.2422    0.0000 </r>
       <r>   -0.1146    0.0000 </r>
       <r>    0.0370    0.0000 </r>
       <r>    0.1745    0.0000 </r>
       <r>    0.4101    0.0000 </r>
       <r>    0.5089    0.0000 </r>
       <r>    0.8361    0.0000 </r>
       <r>    0.8909    0.0000 </r>
       <r>    1.1276    0.0000 </r>
       <r>    1.1691    0.0000 </r>
       <r>    1.2882    0.0000 </r>
       <r>    2.1018    0.0000 </r>
       <r>    2.2535    0.0000 </r>
       <r>    2.5622    0.0000 </r>
      </set>
      <set comment="kpoint 33">
       <r>  -17.4933    1.0000 </r>
       <r>  -17.2651    1.0000 </r>
       <r>  -16.8967    1.0000 </r>
       <r>  -16.5581    1.0000 </r>
       <r>  -16.4769    1.0000 </r>
       <r>  -16.4198    1.0000 </r>
       <r>  -16.2498    1.0000 </r>
       <r>  -16.1713    1.0000 </r>
       <r>  -16.1415    1.0000 </r>
       <r>  -16.0560    1.0000 </r>
       <r>  -15.9854    1.0000 </r>
       <r>  -15.8324    1.0000 </r>
       <r>  -15.7526    1.0000 </r>
       <r>  -15.7153    1.0000 </r>
       <r>  -15.6300    1.0000 </r>
       <r>  -15.5286    1.0000 </r>
       <r>  -15.4256    1.0000 </r>
       <r>  -15.3421    1.0000 </r>
       <r>   -9.7310    1.0000 </r>
       <r>   -9.4132    1.0000 </r>
       <r>   -9.3063    1.0000 </r>
       <r>   -8.9502    1.0000 </r>
       <r>   -8.8392    1.0000 </r>
       <r>   -8.7377    1.0000 </r>
       <r>   -8.5586    1.0000 </r>
       <r>   -8.5026    1.0000 </r>
       <r>   -8.3990    1.0000 </r>
       <r>   -8.3381    1.0000 </r>
       <r>   -8.2515    1.0000 </r>
       <r>   -8.1893    1.0000 </r>
       <r>   -8.1072    1.0000 </r>
       <r>   -8.0672    1.0000 </r>
       <r>   -7.9900    1.0000 </r>
       <r>   -7.9174    1.0000 </r>
       <r>   -7.7821    1.0000 </r>
       <r>   -7.6899    1.0000 </r>
       <r>   -7.5618    1.0000 </r>
       <r>   -7.4131    1.0000 </r>
       <r>   -7.2983    1.0000 </r>
       <r>   -7.1865    1.0000 </r>
       <r>   -7.1242    1.0000 </r>
       <r>   -7.0493    1.0000 </r>
       <r>   -7.0134    1.0000 </r>
       <r>   -6.9602    1.0000 </r>
       <r>   -6.8728    1.0000 </r>
       <r>   -6.7954    1.0000 </r>
       <r>   -6.7200    1.0000 </r>
       <r>   -6.6617    1.0000 </r>
       <r>   -6.5233    1.0000 </r>
       <r>   -6.4334    1.0000 </r>
       <r>   -6.3862    1.0000 </r>
       <r>   -6.3511    1.0000 </r>
       <r>   -6.2879    1.0000 </r>
       <r>   -6.1707    1.0000 </r>
       <r>   -6.0917    1.0000 </r>
       <r>   -6.0793    1.0000 </r>
       <r>   -6.0339    1.0000 </r>
       <r>   -5.9327    1.0000 </r>
       <r>   -5.8802    1.0000 </r>
       <r>   -5.8200    1.0000 </r>
       <r>   -5.7295    1.0000 </r>
       <r>   -5.6405    1.0000 </r>
       <r>   -5.5322    1.0000 </r>
       <r>   -5.4542    1.0000 </r>
       <r>   -5.3149    1.0000 </r>
       <r>   -5.1545    1.0000 </r>
       <r>   -5.1039    1.0000 </r>
       <r>   -4.9247    1.0000 </r>
       <r>   -4.8252    1.0000 </r>
       <r>   -4.6976    1.0000 </r>
       <r>   -4.5363    1.0000 </r>
       <r>   -4.3862    1.0000 </r>
       <r>   -4.3083    1.0000 </r>
       <r>   -4.2504    1.0000 </r>
       <r>   -4.1170    1.0000 </r>
       <r>   -3.9811    1.0000 </r>
       <r>   -3.8201    0.9999 </r>
       <r>   -3.6041    0.9852 </r>
       <r>   -3.5461    0.9612 </r>
       <r>   -3.2683    0.4211 </r>
       <r>   -3.0609    0.0479 </r>
       <r>   -2.8569    0.0009 </r>
       <r>   -2.7992    0.0002 </r>
       <r>   -2.6362    0.0000 </r>
       <r>   -2.5290    0.0000 </r>
       <r>   -2.3537    0.0000 </r>
       <r>   -2.2634    0.0000 </r>
       <r>   -2.1589    0.0000 </r>
       <r>   -2.1011    0.0000 </r>
       <r>   -2.0361    0.0000 </r>
       <r>   -1.8252    0.0000 </r>
       <r>   -1.5745    0.0000 </r>
       <r>   -1.5281    0.0000 </r>
       <r>   -1.3426    0.0000 </r>
       <r>   -1.2933    0.0000 </r>
       <r>   -1.1988    0.0000 </r>
       <r>   -1.1159    0.0000 </r>
       <r>   -1.0719    0.0000 </r>
       <r>   -0.9662    0.0000 </r>
       <r>   -0.9300    0.0000 </r>
       <r>   -0.8526    0.0000 </r>
       <r>   -0.7682    0.0000 </r>
       <r>   -0.5698    0.0000 </r>
       <r>   -0.5403    0.0000 </r>
       <r>   -0.4025    0.0000 </r>
       <r>   -0.3786    0.0000 </r>
       <r>   -0.2781    0.0000 </r>
       <r>   -0.1390    0.0000 </r>
       <r>    0.0126    0.0000 </r>
       <r>    0.2629    0.0000 </r>
       <r>    0.4171    0.0000 </r>
       <r>    0.5246    0.0000 </r>
       <r>    0.7948    0.0000 </r>
       <r>    0.8767    0.0000 </r>
       <r>    1.0994    0.0000 </r>
       <r>    1.2196    0.0000 </r>
       <r>    1.3192    0.0000 </r>
       <r>    2.1309    0.0000 </r>
       <r>    2.2889    0.0000 </r>
       <r>    2.3866    0.0000 </r>
      </set>
      <set comment="kpoint 34">
       <r>  -17.4631    1.0000 </r>
       <r>  -17.3351    1.0000 </r>
       <r>  -16.7408    1.0000 </r>
       <r>  -16.6624    1.0000 </r>
       <r>  -16.4993    1.0000 </r>
       <r>  -16.4508    1.0000 </r>
       <r>  -16.2605    1.0000 </r>
       <r>  -16.1592    1.0000 </r>
       <r>  -16.1207    1.0000 </r>
       <r>  -16.0575    1.0000 </r>
       <r>  -15.9759    1.0000 </r>
       <r>  -15.7857    1.0000 </r>
       <r>  -15.7369    1.0000 </r>
       <r>  -15.7190    1.0000 </r>
       <r>  -15.6694    1.0000 </r>
       <r>  -15.5297    1.0000 </r>
       <r>  -15.4253    1.0000 </r>
       <r>  -15.3503    1.0000 </r>
       <r>   -9.7672    1.0000 </r>
       <r>   -9.2662    1.0000 </r>
       <r>   -9.2310    1.0000 </r>
       <r>   -9.0301    1.0000 </r>
       <r>   -8.9543    1.0000 </r>
       <r>   -8.8243    1.0000 </r>
       <r>   -8.5804    1.0000 </r>
       <r>   -8.4844    1.0000 </r>
       <r>   -8.4254    1.0000 </r>
       <r>   -8.3346    1.0000 </r>
       <r>   -8.2737    1.0000 </r>
       <r>   -8.1707    1.0000 </r>
       <r>   -8.0480    1.0000 </r>
       <r>   -8.0317    1.0000 </r>
       <r>   -7.9944    1.0000 </r>
       <r>   -7.8281    1.0000 </r>
       <r>   -7.7460    1.0000 </r>
       <r>   -7.6963    1.0000 </r>
       <r>   -7.5511    1.0000 </r>
       <r>   -7.4930    1.0000 </r>
       <r>   -7.2414    1.0000 </r>
       <r>   -7.2339    1.0000 </r>
       <r>   -7.1539    1.0000 </r>
       <r>   -7.0252    1.0000 </r>
       <r>   -6.9903    1.0000 </r>
       <r>   -6.9620    1.0000 </r>
       <r>   -6.9017    1.0000 </r>
       <r>   -6.7460    1.0000 </r>
       <r>   -6.6920    1.0000 </r>
       <r>   -6.6519    1.0000 </r>
       <r>   -6.5420    1.0000 </r>
       <r>   -6.4470    1.0000 </r>
       <r>   -6.3834    1.0000 </r>
       <r>   -6.3405    1.0000 </r>
       <r>   -6.2841    1.0000 </r>
       <r>   -6.2107    1.0000 </r>
       <r>   -6.1711    1.0000 </r>
       <r>   -6.0707    1.0000 </r>
       <r>   -6.0160    1.0000 </r>
       <r>   -5.9637    1.0000 </r>
       <r>   -5.8895    1.0000 </r>
       <r>   -5.8142    1.0000 </r>
       <r>   -5.7869    1.0000 </r>
       <r>   -5.5798    1.0000 </r>
       <r>   -5.5432    1.0000 </r>
       <r>   -5.4983    1.0000 </r>
       <r>   -5.4385    1.0000 </r>
       <r>   -5.0463    1.0000 </r>
       <r>   -4.9603    1.0000 </r>
       <r>   -4.8907    1.0000 </r>
       <r>   -4.8231    1.0000 </r>
       <r>   -4.7692    1.0000 </r>
       <r>   -4.5235    1.0000 </r>
       <r>   -4.3538    1.0000 </r>
       <r>   -4.3101    1.0000 </r>
       <r>   -4.2173    1.0000 </r>
       <r>   -4.1275    1.0000 </r>
       <r>   -3.9817    1.0000 </r>
       <r>   -3.8183    0.9999 </r>
       <r>   -3.6419    0.9927 </r>
       <r>   -3.6040    0.9852 </r>
       <r>   -3.2579    0.3926 </r>
       <r>   -3.0224    0.0263 </r>
       <r>   -2.9015    0.0026 </r>
       <r>   -2.7948    0.0002 </r>
       <r>   -2.6069    0.0000 </r>
       <r>   -2.5341    0.0000 </r>
       <r>   -2.3338    0.0000 </r>
       <r>   -2.2763    0.0000 </r>
       <r>   -2.1523    0.0000 </r>
       <r>   -2.1034    0.0000 </r>
       <r>   -2.0169    0.0000 </r>
       <r>   -1.8222    0.0000 </r>
       <r>   -1.5768    0.0000 </r>
       <r>   -1.5474    0.0000 </r>
       <r>   -1.3568    0.0000 </r>
       <r>   -1.2698    0.0000 </r>
       <r>   -1.2015    0.0000 </r>
       <r>   -1.1052    0.0000 </r>
       <r>   -1.0906    0.0000 </r>
       <r>   -0.9616    0.0000 </r>
       <r>   -0.8940    0.0000 </r>
       <r>   -0.8463    0.0000 </r>
       <r>   -0.7281    0.0000 </r>
       <r>   -0.7005    0.0000 </r>
       <r>   -0.5568    0.0000 </r>
       <r>   -0.4003    0.0000 </r>
       <r>   -0.3378    0.0000 </r>
       <r>   -0.2627    0.0000 </r>
       <r>   -0.1598    0.0000 </r>
       <r>   -0.0289    0.0000 </r>
       <r>    0.3159    0.0000 </r>
       <r>    0.4145    0.0000 </r>
       <r>    0.5363    0.0000 </r>
       <r>    0.7823    0.0000 </r>
       <r>    0.8638    0.0000 </r>
       <r>    1.0947    0.0000 </r>
       <r>    1.2472    0.0000 </r>
       <r>    1.3438    0.0000 </r>
       <r>    2.2106    0.0000 </r>
       <r>    2.2405    0.0000 </r>
       <r>    2.3693    0.0000 </r>
      </set>
     </set>
    </set>
   </array>
  </eigenvalues>
  <separator name="orbital magnetization" >
   <v name="MAGDIPOLOUT">      0.00000000      0.00000000      0.00000000</v>
  </separator>
 </calculation>
 <structure name="finalpos" >
  <crystal>
   <varray name="basis" >
    <v>       8.38576379       4.83865648       0.00000000 </v>
    <v>      -8.36224181       4.79797728       0.00000000 </v>
    <v>       0.00000000       0.00000000      30.00000000 </v>
   </varray>
   <i name="volume">   2420.90159037 </i>
   <varray name="rec_basis" >
    <v>       0.05945691       0.10362555       0.00000000 </v>
    <v>      -0.05996101       0.10391703       0.00000000 </v>
    <v>       0.00000000       0.00000000       0.03333333 </v>
   </varray>
  </crystal>
  <varray name="positions" >
   <v>       0.35516609       0.02959816      -0.00025880 </v>
   <v>       0.34082435       0.34836669      -0.00000027 </v>
   <v>       0.00649746       0.02930650      -0.00026184 </v>
   <v>       0.67380565       0.01380299      -0.00037110 </v>
   <v>       0.97236855       0.32168792      -0.00055080 </v>
   <v>       0.68257280       0.31905579      -0.00038853 </v>
   <v>      -0.01581688       0.63052897       0.00047175 </v>
   <v>       0.35264209       0.66012862       0.00114232 </v>
   <v>       0.64099618       0.66543337       0.00078344 </v>
   <v>       0.11341792       0.22553977       0.94924972 </v>
   <v>       0.22536589       0.11777651       0.04795933 </v>
   <v>       0.11265274       0.55175072       0.94873412 </v>
   <v>       0.21835103       0.43766458       0.04932824 </v>
   <v>       0.11041368       0.88812259       0.95793356 </v>
   <v>       0.22431631       0.78150512       0.04596136 </v>
   <v>       0.44639109       0.22600517       0.94928004 </v>
   <v>       0.55182635       0.10814472       0.05361961 </v>
   <v>       0.44128443       0.54954184       0.94462958 </v>
   <v>       0.55457059       0.43942435       0.04850586 </v>
   <v>       0.43921125       0.88914816       0.95088109 </v>
   <v>       0.55720840       0.78338887       0.05476760 </v>
   <v>       0.77552806       0.21641346       0.94244704 </v>
   <v>       0.88958097       0.10872098       0.05355680 </v>
   <v>       0.77225734       0.55171044       0.94966656 </v>
   <v>       0.88368987       0.43423053       0.05712983 </v>
   <v>       0.78301034       0.88967947       0.95022011 </v>
   <v>       0.89008190       0.78153819       0.04556325 </v>
  </varray>
 </structure>
</modeling>
