unknown system                          
           1
     8.863185    5.108941    0.000000
    -8.858802    5.101401    0.000000
     0.000000    0.000000   30.000000
   V    Mo   W    S 
   3   3   3  18
Direct configuration=     1
   0.33333334  0.00000000  0.00000000
   0.33333334  0.33333334  0.00000000
   0.00000000  0.00000000  0.00000000
   0.66666669  0.00000000  0.00000000
   1.00000000  0.33333334  0.00000000
   0.66666669  0.33333334  0.00000000
   0.00000000  0.66666669  0.00000000
   0.33333334  0.66666669  0.00000000
   0.66666669  0.66666669  0.00000000
   0.11068511  0.22244981  0.95539999
   0.22244981  0.11068511  0.04460000
   0.11068511  0.55578315  0.95539999
   0.22244981  0.44401845  0.04460000
   0.11068511  0.88911647  0.95539999
   0.22244981  0.77735180  0.04460000
   0.44401845  0.22244981  0.95539999
   0.55578315  0.11068511  0.04460000
   0.44401845  0.55578315  0.95539999
   0.55578315  0.44401845  0.04460000
   0.44401845  0.88911647  0.95539999
   0.55578315  0.77735180  0.04460000
   0.77735180  0.22244981  0.95539999
   0.88911647  0.11068511  0.04460000
   0.77735180  0.55578315  0.95539999
   0.88911647  0.44401845  0.04460000
   0.77735180  0.88911647  0.95539999
   0.88911647  0.77735180  0.04460000
unknown system                          
           1
     8.673012    5.001783    0.000000
    -8.668788    4.994513    0.000000
     0.000000    0.000000   30.000000
   V    Mo   W    S 
   3   3   3  18
Direct configuration=     2
   0.33511634  0.00156727 -0.00001541
   0.33287636  0.33241137  0.00003312
  -0.00027188  0.00162243 -0.00002461
   0.66800377  0.00278370 -0.00012330
   0.99732929  0.33186412  0.00015308
   0.66790384  0.33176711  0.00017074
  -0.00114966  0.66434016  0.00007307
   0.33324141  0.66658775 -0.00015585
   0.66666463  0.66661501 -0.00015438
   0.11320657  0.21989225  0.95308056
   0.22230255  0.11093736  0.04585099
   0.11169600  0.55635274  0.95076480
   0.22492350  0.44285503  0.04794256
   0.11253278  0.89229890  0.95320727
   0.22379171  0.78137418  0.04808437
   0.43984129  0.22010672  0.95314508
   0.55098625  0.10894179  0.04807567
   0.44266101  0.55189188  0.95186390
   0.55148957  0.44307578  0.04800099
   0.44151772  0.89019112  0.95200339
   0.55504079  0.77697052  0.04917649
   0.77761773  0.22194568  0.95068828
   0.89133854  0.10874931  0.04801226
   0.77803607  0.55638027  0.95076474
   0.88931943  0.44535652  0.04936201
   0.78156979  0.88996720  0.95193928
   0.89062905  0.78136830  0.04808078
unknown system                          
           1
     8.488460    4.900761    0.000000
    -8.486062    4.896649    0.000000
     0.000000    0.000000   30.000000
   V    Mo   W    S 
   3   3   3  18
Direct configuration=     3
   0.33566482  0.00192193 -0.00006488
   0.33286397  0.33238362  0.00006612
  -0.00046813  0.00196313 -0.00007663
   0.66845724  0.00369599 -0.00013139
   0.99613662  0.33168554  0.00017088
   0.66891850  0.33158916  0.00018582
  -0.00170385  0.66323531  0.00004017
   0.33334481  0.66659417 -0.00011762
   0.66656405  0.66662718 -0.00011651
   0.11323069  0.21983779  0.95314139
   0.22229534  0.11096524  0.04576988
   0.11179462  0.55657160  0.95076867
   0.22505613  0.44304945  0.04787586
   0.11247204  0.89212095  0.95339131
   0.22371896  0.78121439  0.04799230
   0.43975726  0.22001761  0.95319909
   0.55085401  0.10887282  0.04816217
   0.44270522  0.55203659  0.95187440
   0.55152481  0.44323761  0.04792449
   0.44137187  0.89001177  0.95200303
   0.55494986  0.77675487  0.04909050
   0.77760424  0.22194285  0.95048974
   0.89140479  0.10871571  0.04810747
   0.77811683  0.55658842  0.95077191
   0.88943083  0.44555337  0.04954506
   0.78155281  0.88981694  0.95194735
   0.89059613  0.78121045  0.04798932
unknown system                          
           1
     8.290989    4.786266    0.000000
    -8.282203    4.771091    0.000000
     0.000000    0.000000   30.000000
   V    Mo   W    S 
   3   3   3  18
Direct configuration=     4
   0.33772274  0.00267644 -0.00025281
   0.33326372  0.33320233  0.00015946
  -0.00178080  0.00267684 -0.00027172
   0.66996114  0.00671693 -0.00010650
   0.99135069  0.33170953  0.00017026
   0.67371349  0.33161791  0.00017609
  -0.00408726  0.65847544 -0.00011188
   0.33396500  0.66660533  0.00007339
   0.66592053  0.66666563  0.00007510
   0.11362546  0.21944006  0.95209340
   0.22221788  0.11099036  0.04669140
   0.11174261  0.55640873  0.94915105
   0.22525611  0.44240540  0.04903793
   0.11295650  0.89290389  0.95280050
   0.22409173  0.78217074  0.04912363
   0.43898526  0.21951930  0.95212266
   0.54966317  0.10828639  0.04994114
   0.44207203  0.55093508  0.95036668
   0.55059049  0.44248057  0.04905168
   0.44102298  0.89063588  0.95054030
   0.55512094  0.77698275  0.05037478
   0.77759571  0.22198186  0.94811475
   0.89200634  0.10824114  0.04990792
   0.77788407  0.55638713  0.94916529
   0.88937889  0.44536652  0.05197159
   0.78261527  0.89054833  0.95051631
   0.89135974  0.78218396  0.04911752
unknown system                          
           1
     8.307613    4.796433    0.000000
    -8.292376    4.770083    0.000000
     0.000000    0.000000   30.000000
   V    Mo   W    S 
   3   3   3  18
Direct configuration=     5
   0.34148224  0.00397597 -0.00050684
   0.33432948  0.33537925  0.00019850
  -0.00428422  0.00393214 -0.00053138
   0.67238716  0.01153990  0.00004841
   0.98250119  0.33237672  0.00005898
   0.68318925  0.33228813  0.00008045
  -0.00895654  0.64875494 -0.00026073
   0.33596106  0.66679898  0.00033678
   0.66408670  0.66691496  0.00034219
   0.11335536  0.21961432  0.95074772
   0.22209833  0.11100759  0.04808933
   0.11142940  0.55525182  0.94712096
   0.22410730  0.44100255  0.05040391
   0.11301632  0.89277479  0.95226984
   0.22395617  0.78309232  0.05036725
   0.43954730  0.21961413  0.95074852
   0.54926264  0.10849163  0.05230617
   0.44136266  0.54953270  0.94832510
   0.55019975  0.44098234  0.05037872
   0.44136407  0.89154230  0.94861328
   0.55589539  0.77851750  0.05201370
   0.77756196  0.22184594  0.94472389
   0.89252201  0.10851474  0.05229305
   0.77703508  0.55521255  0.94714860
   0.88897833  0.44458684  0.05571591
   0.78336348  0.89155224  0.94861434
   0.89246258  0.78311718  0.05035323
unknown system                          
           1
     8.295279    4.789235    0.000000
    -8.280528    4.763726    0.000000
     0.000000    0.000000   30.000000
   V    Mo   W    S 
   3   3   3  18
Direct configuration=     6
   0.34273506  0.00474763 -0.00048533
   0.33455127  0.33583212  0.00023099
  -0.00476284  0.00470174 -0.00049829
   0.67219598  0.01114337 -0.00000393
   0.98240757  0.33243941  0.00004453
   0.68331551  0.33231856  0.00005213
  -0.00979370  0.64704823 -0.00012217
   0.33742351  0.66717591  0.00033390
   0.66299650  0.66730430  0.00033694
   0.11272167  0.22039458  0.95082210
   0.22212747  0.11103620  0.04804018
   0.11127569  0.55460343  0.94712925
   0.22293892  0.44062487  0.05021168
   0.11232035  0.89138572  0.95260180
   0.22343862  0.78264560  0.05016005
   0.44095795  0.22039611  0.95083290
   0.55009616  0.10927827  0.05235087
   0.44147068  0.54972618  0.94820369
   0.55099913  0.44062001  0.05019296
   0.44187345  0.89150165  0.94859521
   0.55631745  0.77938427  0.05215334
   0.77740246  0.22153262  0.94447009
   0.89247744  0.10929937  0.05233198
   0.77654522  0.55456505  0.94715923
   0.88885715  0.44434752  0.05612527
   0.78281438  0.89149939  0.94858323
   0.89251139  0.78266232  0.05014732
unknown system                          
           1
     8.303630    4.794061    0.000000
    -8.288165    4.767314    0.000000
     0.000000    0.000000   30.000000
   V    Mo   W    S 
   3   3   3  18
Direct configuration=     7
   0.34458060  0.00597582 -0.00050067
   0.33478942  0.33631663  0.00030759
  -0.00537910  0.00592635 -0.00051301
   0.67216387  0.01106837 -0.00006381
   0.98066133  0.33235029  0.00000006
   0.68495563  0.33220531  0.00001406
  -0.01126421  0.64407198 -0.00012756
   0.33944109  0.66778800  0.00036022
   0.66157427  0.66794292  0.00036215
   0.11233168  0.22096346  0.95077739
   0.22215789  0.11109720  0.04803062
   0.11127570  0.55419440  0.94707520
   0.22216798  0.44032835  0.05011902
   0.11182085  0.89036725  0.95300203
   0.22313011  0.78233257  0.05001479
   0.44192737  0.22096381  0.95078712
   0.55061459  0.10972413  0.05258219
   0.44149891  0.54976602  0.94790196
   0.55146736  0.44033178  0.05009787
   0.44222608  0.89154181  0.94841137
   0.55664067  0.78005117  0.05248809
   0.77730288  0.22131158  0.94411121
   0.89239660  0.10974819  0.05256571
   0.77614931  0.55416226  0.94710884
   0.88857057  0.44380402  0.05669026
   0.78252531  0.89154101  0.94839546
   0.89248769  0.78233978  0.05000175
unknown system                          
           1
     8.309578    4.797513    0.000000
    -8.292397    4.767795    0.000000
     0.000000    0.000000   30.000000
   V    Mo   W    S 
   3   3   3  18
Direct configuration=     8
   0.34521817  0.00651513 -0.00050145
   0.33480740  0.33635122  0.00034495
  -0.00547616  0.00646426 -0.00051293
   0.67191119  0.01055794 -0.00008231
   0.98044375  0.33211718  0.00000466
   0.68493639  0.33196314  0.00001774
  -0.01152650  0.64353093 -0.00011717
   0.34036326  0.66817144  0.00037160
   0.66102943  0.66833850  0.00037309
   0.11225661  0.22110946  0.95081475
   0.22217845  0.11113094  0.04794542
   0.11135581  0.55412238  0.94716293
   0.22204583  0.44036244  0.05000110
   0.11166886  0.89006800  0.95321751
   0.22306718  0.78220481  0.04988163
   0.44214826  0.22111411  0.95082486
   0.55076537  0.10981036  0.05256536
   0.44152392  0.54981398  0.94787656
   0.55162753  0.44037345  0.04998011
   0.44225776  0.89149762  0.94841465
   0.55669775  0.78017339  0.05257422
   0.77723501  0.22117329  0.94412168
   0.89233577  0.10983466  0.05254754
   0.77600203  0.55409189  0.94719964
   0.88847526  0.44361957  0.05670916
   0.78245053  0.89149477  0.94839747
   0.89241556  0.78220962  0.04986715
unknown system                          
           1
     8.305002    4.794972    0.000000
    -8.289663    4.768444    0.000000
     0.000000    0.000000   30.000000
   V    Mo   W    S 
   3   3   3  18
Direct configuration=     9
   0.34667063  0.00764985 -0.00051535
   0.33488790  0.33651303  0.00042069
  -0.00579694  0.00759480 -0.00052497
   0.67153279  0.00978514 -0.00011673
   0.97947334  0.33169369 -0.00000509
   0.68547384  0.33152182  0.00000725
  -0.01233592  0.64187534 -0.00011396
   0.34231475  0.66899312  0.00039500
   0.65988588  0.66918789  0.00039575
   0.11209173  0.22141272  0.95080628
   0.22221324  0.11119670  0.04786261
   0.11147848  0.55389594  0.94723677
   0.22172535  0.44034929  0.04984485
   0.11138054  0.88948456  0.95360310
   0.22293901  0.78201376  0.04969328
   0.44262153  0.22141987  0.95081651
   0.55103421  0.10997952  0.05266820
   0.44153980  0.54984231  0.94771968
   0.55193662  0.44037020  0.04982174
   0.44234103  0.89146585  0.94831132
   0.55685784  0.78050932  0.05285761
   0.77709696  0.22089045  0.94396530
   0.89223803  0.11000773  0.05265015
   0.77565975  0.55386771  0.94727977
   0.88826816  0.44321727  0.05695259
   0.78234482  0.89146388  0.94829133
   0.89234108  0.78201270  0.04967623
unknown system                          
           1
     8.291255    4.787541    0.000000
    -8.278164    4.764903    0.000000
     0.000000    0.000000   30.000000
   V    Mo   W    S 
   3   3   3  18
Direct configuration=    10
   0.34477956  0.00618922 -0.00049981
   0.33480764  0.33642210  0.00031517
  -0.00546469  0.00617835 -0.00051187
   0.67223491  0.01099651 -0.00007900
   0.98067104  0.33239100  0.00000744
   0.68504516  0.33232759  0.00001682
  -0.01147479  0.64367033 -0.00010651
   0.33976860  0.66767720  0.00036945
   0.66118923  0.66789924  0.00037511
   0.11221986  0.22110264  0.95083960
   0.22214615  0.11112637  0.04797356
   0.11129865  0.55415042  0.94708576
   0.22200119  0.44024494  0.05007099
   0.11161794  0.89004001  0.95311859
   0.22302425  0.78217868  0.04995065
   0.44220836  0.22116608  0.95083847
   0.55082612  0.10992289  0.05255471
   0.44150936  0.54978024  0.94787408
   0.55155807  0.44025584  0.05004641
   0.44234289  0.89150501  0.94843854
   0.55670611  0.78018469  0.05247408
   0.77730630  0.22131759  0.94410874
   0.89241221  0.10992088  0.05252725
   0.77608300  0.55410495  0.94711954
   0.88851981  0.44370821  0.05673812
   0.78241768  0.89152775  0.94842654
   0.89245985  0.78222572  0.04992749
unknown system                          
           1
     8.293291    4.788886    0.000000
    -8.281177    4.767940    0.000000
     0.000000    0.000000   30.000000
   V    Mo   W    S 
   3   3   3  18
Direct configuration=    11
   0.34207594  0.00409848 -0.00050065
   0.33489004  0.33674821  0.00013529
  -0.00513764  0.00419853 -0.00050660
   0.67384436  0.01373037 -0.00005144
   0.98224732  0.33383126  0.00001272
   0.68506085  0.33398579  0.00003100
  -0.01057890  0.64557994 -0.00006060
   0.33569333  0.66490480  0.00035705
   0.66265021  0.66522639  0.00038580
   0.11223450  0.22087128  0.95095723
   0.22203513  0.11107411  0.04811103
   0.11099632  0.55450762  0.94678327
   0.22219223  0.43989066  0.05043812
   0.11165169  0.89033124  0.95251069
   0.22298610  0.78212671  0.05026083
   0.44200468  0.22105485  0.95095799
   0.55081426  0.11016225  0.05235043
   0.44145723  0.54962318  0.94802377
   0.55100493  0.43989063  0.05038941
   0.44256085  0.89148669  0.94872968
   0.55659025  0.77993649  0.05178029
   0.77771845  0.22214450  0.94423430
   0.89275826  0.11011453  0.05236225
   0.77673653  0.55446250  0.94678688
   0.88887292  0.44437211  0.05660854
   0.78230100  0.89155743  0.94868457
   0.89255360  0.78230392  0.05022806
unknown system                          
           1
     8.293249    4.788811    0.000000
    -8.280957    4.767558    0.000000
     0.000000    0.000000   30.000000
   V    Mo   W    S 
   3   3   3  18
Direct configuration=    12
   0.34105088  0.00322607 -0.00051577
   0.33507560  0.33715514  0.00004899
  -0.00505061  0.00337654 -0.00051461
   0.67477956  0.01551959 -0.00003567
   0.98304676  0.33460119  0.00002630
   0.68507606  0.33480148  0.00003830
  -0.01024223  0.64628651 -0.00002016
   0.33345192  0.66323049  0.00036500
   0.66325514  0.66357399  0.00039290
   0.11220325  0.22086851  0.95099824
   0.22200875  0.11104186  0.04816347
   0.11086186  0.55466269  0.94658186
   0.22216161  0.43963394  0.05064322
   0.11162159  0.89031279  0.95229267
   0.22291509  0.78204060  0.05038277
   0.44201457  0.22104168  0.95102254
   0.55084454  0.11034948  0.05228343
   0.44141757  0.54949851  0.94801360
   0.55077089  0.43962745  0.05058604
   0.44270062  0.89143828  0.94888092
   0.55661949  0.77999712  0.05143641
   0.77794226  0.22260290  0.94420142
   0.89294518  0.11032240  0.05233678
   0.77703523  0.55464063  0.94657744
   0.88902384  0.44464038  0.05665090
   0.78212428  0.89149257  0.94880335
   0.89256076  0.78223168  0.05035956
unknown system                          
           1
     8.296409    4.790628    0.000000
    -8.283872    4.768948    0.000000
     0.000000    0.000000   30.000000
   V    Mo   W    S 
   3   3   3  18
Direct configuration=    13
   0.34235514  0.00408607 -0.00057045
   0.33541329  0.33780039  0.00007112
  -0.00543476  0.00425717 -0.00056255
   0.67524893  0.01657597 -0.00005139
   0.98256933  0.33452805  0.00003244
   0.68547149  0.33467644  0.00003570
  -0.01088548  0.64494882  0.00001675
   0.33345007  0.66265402  0.00040742
   0.66264332  0.66301148  0.00042288
   0.11203915  0.22117096  0.95103591
   0.22204969  0.11106141  0.04803463
   0.11094607  0.55457619  0.94657037
   0.22182543  0.43952407  0.05058859
   0.11134443  0.88970570  0.95269453
   0.22274627  0.78171451  0.05017836
   0.44244370  0.22127559  0.95108770
   0.55109811  0.11060154  0.05233673
   0.44142198  0.54948334  0.94787354
   0.55099436  0.43951976  0.05052827
   0.44283278  0.89123986  0.94895921
   0.55682199  0.78042595  0.05137385
   0.77798880  0.22269239  0.94403892
   0.89292688  0.11062278  0.05242138
   0.77688964  0.55459006  0.94657597
   0.88888422  0.44435822  0.05687360
   0.78176393  0.89126096  0.94885941
   0.89236572  0.78185272  0.05016700
unknown system                          
           1
     8.300581    4.793098    0.000000
    -8.288369    4.771982    0.000000
     0.000000    0.000000   30.000000
   V    Mo   W    S 
   3   3   3  18
Direct configuration=    14
   0.34285478  0.00447837 -0.00057792
   0.33545121  0.33787586  0.00009098
  -0.00553717  0.00464399 -0.00056976
   0.67519101  0.01646189 -0.00006510
   0.98236423  0.33437137  0.00002961
   0.68551761  0.33451179  0.00003271
  -0.01108827  0.64452983  0.00001686
   0.33387678  0.66278999  0.00041080
   0.66234801  0.66315935  0.00042565
   0.11202105  0.22123781  0.95102353
   0.22206101  0.11107767  0.04800400
   0.11097867  0.55452147  0.94659285
   0.22176245  0.43951633  0.05055641
   0.11128534  0.88958233  0.95282008
   0.22271503  0.78167144  0.05012154
   0.44253044  0.22134107  0.95107426
   0.55114621  0.11061578  0.05237730
   0.44141711  0.54947796  0.94783440
   0.55105221  0.43951490  0.05049530
   0.44286300  0.89122306  0.94894028
   0.55686654  0.78052062  0.05143084
   0.77795883  0.22262792  0.94400009
   0.89288655  0.11063892  0.05245888
   0.77680641  0.55453675  0.94660133
   0.88882084  0.44423685  0.05692405
   0.78171769  0.89124643  0.94884266
   0.89234685  0.78180470  0.05010826
unknown system                          
           1
     8.295525    4.790173    0.000000
    -8.284273    4.770720    0.000000
     0.000000    0.000000   30.000000
   V    Mo   W    S 
   3   3   3  18
Direct configuration=    15
   0.34366787  0.00507688 -0.00061286
   0.33567152  0.33834950  0.00009257
  -0.00578603  0.00526400 -0.00060223
   0.67563572  0.01726892 -0.00009136
   0.98224891  0.33435105  0.00002914
   0.68564761  0.33451879  0.00002960
  -0.01146485  0.64376422  0.00003981
   0.33365238  0.66215354  0.00042441
   0.66195708  0.66258134  0.00043837
   0.11196419  0.22140161  0.95103061
   0.22207464  0.11110887  0.04793153
   0.11100003  0.55446842  0.94655499
   0.22158575  0.43937167  0.05057123
   0.11110672  0.88924783  0.95305856
   0.22258888  0.78148167  0.05002539
   0.44275706  0.22151126  0.95108345
   0.55130041  0.11076479  0.05245132
   0.44138509  0.54941269  0.94774829
   0.55109004  0.43937361  0.05050357
   0.44302176  0.89111286  0.94899141
   0.55699687  0.78079474  0.05134657
   0.77801446  0.22272787  0.94388946
   0.89287611  0.11079317  0.05253576
   0.77674776  0.55449352  0.94656793
   0.88872878  0.44405932  0.05706292
   0.78146895  0.89114704  0.94889212
   0.89227672  0.78161528  0.05000734
unknown system                          
           1
     8.301193    4.793400    0.000000
    -8.288785    4.771944    0.000000
     0.000000    0.000000   30.000000
   V    Mo   W    S 
   3   3   3  18
Direct configuration=    16
   0.34418658  0.00551281 -0.00064189
   0.33591830  0.33883592  0.00008118
  -0.00583332  0.00571436 -0.00062724
   0.67608659  0.01821697 -0.00010471
   0.98237625  0.33450263  0.00003489
   0.68567042  0.33464685  0.00003589
  -0.01168763  0.64329138  0.00006711
   0.33302720  0.66127302  0.00044508
   0.66168484  0.66171403  0.00045916
   0.11199640  0.22153460  0.95104106
   0.22211712  0.11117850  0.04786864
   0.11098140  0.55445890  0.94650875
   0.22151775  0.43922256  0.05060327
   0.11100308  0.88902932  0.95321956
   0.22248500  0.78132292  0.04994808
   0.44284373  0.22162314  0.95110502
   0.55140727  0.11086975  0.05248974
   0.44133121  0.54930130  0.94770607
   0.55101092  0.43922487  0.05052910
   0.44316762  0.89102087  0.94907827
   0.55707045  0.78095859  0.05118202
   0.77809813  0.22288971  0.94382869
   0.89286784  0.11091502  0.05258936
   0.77676541  0.55449605  0.94652339
   0.88868178  0.44396585  0.05712798
   0.78122839  0.89105223  0.94896759
   0.89221171  0.78144229  0.04993386
unknown system                          
           1
     8.308455    4.797665    0.000000
    -8.295515    4.775288    0.000000
     0.000000    0.000000   30.000000
   V    Mo   W    S 
   3   3   3  18
Direct configuration=    17
   0.34543169  0.00644834 -0.00065704
   0.33591946  0.33883609  0.00013261
  -0.00613342  0.00663483 -0.00064058
   0.67599835  0.01804372 -0.00013260
   0.98184323  0.33406636  0.00002710
   0.68575719  0.33418291  0.00002881
  -0.01213463  0.64235721  0.00006254
   0.33399356  0.66163953  0.00045912
   0.66106658  0.66210935  0.00047268
   0.11193734  0.22160842  0.95100699
   0.22211079  0.11116428  0.04780094
   0.11103358  0.55435325  0.94658668
   0.22141717  0.43924806  0.05053664
   0.11090827  0.88883878  0.95350465
   0.22245333  0.78127015  0.04980761
   0.44298922  0.22170892  0.95106646
   0.55148303  0.11084041  0.05254054
   0.44133805  0.54932373  0.94764623
   0.55114199  0.43925771  0.05045884
   0.44322594  0.89101260  0.94905796
   0.55713029  0.78109193  0.05128306
   0.77804248  0.22276645  0.94380645
   0.89275386  0.11088253  0.05263243
   0.77661149  0.55439126  0.94660589
   0.88854207  0.44369435  0.05716760
   0.78116906  0.89105296  0.94895115
   0.89218449  0.78139035  0.04978713
unknown system                          
           1
     8.307417    4.797046    0.000000
    -8.294913    4.775425    0.000000
     0.000000    0.000000   30.000000
   V    Mo   W    S 
   3   3   3  18
Direct configuration=    18
   0.34769100  0.00829706 -0.00070999
   0.33606584  0.33919516  0.00020990
  -0.00661891  0.00849618 -0.00068970
   0.67630887  0.01848022 -0.00019119
   0.98143251  0.33352078  0.00002045
   0.68566776  0.33366002  0.00001768
  -0.01288788  0.64078669  0.00005610
   0.33479678  0.66126019  0.00050002
   0.65989372  0.66185855  0.00051355
   0.11189948  0.22177254  0.95092614
   0.22209407  0.11118190  0.04767124
   0.11109347  0.55419475  0.94663679
   0.22123938  0.43912497  0.05050286
   0.11069323  0.88847440  0.95406623
   0.22232658  0.78109915  0.04954767
   0.44324042  0.22194404  0.95097080
   0.55167212  0.11085053  0.05270147
   0.44128043  0.54921926  0.94750275
   0.55121291  0.43914799  0.05041161
   0.44344670  0.89093405  0.94908625
   0.55727650  0.78142142  0.05131313
   0.77804120  0.22273973  0.94368759
   0.89258282  0.11087570  0.05277768
   0.77640501  0.55422962  0.94667058
   0.88827775  0.44317569  0.05730622
   0.78092946  0.89102083  0.94898594
   0.89215326  0.78125302  0.04950811
unknown system                          
           1
     8.301896    4.793679    0.000000
    -8.290596    4.774143    0.000000
     0.000000    0.000000   30.000000
   V    Mo   W    S 
   3   3   3  18
Direct configuration=    19
   0.34695546  0.00769231 -0.00069671
   0.33606261  0.33917229  0.00017450
  -0.00646111  0.00789685 -0.00067753
   0.67634007  0.01859760 -0.00017199
   0.98166605  0.33376927  0.00002473
   0.68567341  0.33390713  0.00002169
  -0.01264796  0.64129013  0.00006456
   0.33425531  0.66114820  0.00048605
   0.66032212  0.66170510  0.00049865
   0.11191769  0.22173167  0.95095299
   0.22210507  0.11118623  0.04771373
   0.11106614  0.55425741  0.94659152
   0.22127970  0.43911884  0.05054201
   0.11074853  0.88856387  0.95388317
   0.22235083  0.78113235  0.04963912
   0.44316524  0.22187983  0.95100259
   0.55161857  0.11087229  0.05265830
   0.44128826  0.54923179  0.94753749
   0.55116155  0.43913647  0.05045559
   0.44340564  0.89094141  0.94909397
   0.55724439  0.78134487  0.05125621
   0.77806967  0.22280465  0.94371090
   0.89265298  0.11090311  0.05273799
   0.77649160  0.55429287  0.94662108
   0.88836545  0.44334836  0.05728031
   0.78096033  0.89101493  0.94899309
   0.89215685  0.78127462  0.04960590
unknown system                          
           1
     8.307073    4.796759    0.000000
    -8.294641    4.775263    0.000000
     0.000000    0.000000   30.000000
   V    Mo   W    S 
   3   3   3  18
Direct configuration=    20
   0.34747666  0.00816383 -0.00072183
   0.33632892  0.33964533  0.00015350
  -0.00638165  0.00834904 -0.00069921
   0.67677798  0.01969133 -0.00017906
   0.98187994  0.33395848  0.00003051
   0.68558908  0.33399803  0.00003191
  -0.01283205  0.64088816  0.00008699
   0.33338939  0.66012047  0.00050325
   0.66010169  0.66063569  0.00051588
   0.11203764  0.22188027  0.95094450
   0.22216928  0.11124160  0.04767857
   0.11105029  0.55428728  0.94654374
   0.22125134  0.43897741  0.05059694
   0.11070778  0.88841045  0.95399633
   0.22226771  0.78100934  0.04957040
   0.44315160  0.22195615  0.95101286
   0.55169021  0.11093978  0.05268074
   0.44122169  0.54910372  0.94752322
   0.55104366  0.43899296  0.05050909
   0.44353800  0.89086940  0.94920108
   0.55728767  0.78144511  0.05104554
   0.77817774  0.22301486  0.94369528
   0.89262267  0.11100154  0.05277864
   0.77654116  0.55433701  0.94657343
   0.88832548  0.44327305  0.05729082
   0.78071465  0.89091665  0.94908914
   0.89208592  0.78110752  0.04954767
unknown system                          
           1
     8.315791    4.801549    0.000000
    -8.303620    4.780507    0.000000
     0.000000    0.000000   30.000000
   V    Mo   W    S 
   3   3   3  18
Direct configuration=    21
   0.34879831  0.00928075 -0.00074240
   0.33626978  0.33958128  0.00022733
  -0.00669230  0.00946781 -0.00071647
   0.67662744  0.01920546 -0.00021896
   0.98140420  0.33339261  0.00001909
   0.68554089  0.33346077  0.00002131
  -0.01322087  0.64005940  0.00007361
   0.33464998  0.66052522  0.00052524
   0.65926562  0.66115445  0.00054097
   0.11198954  0.22192685  0.95087909
   0.22213043  0.11122607  0.04760610
   0.11111708  0.55415670  0.94663134
   0.22119615  0.43900033  0.05052230
   0.11062765  0.88832126  0.95432890
   0.22225372  0.78098769  0.04940590
   0.44329009  0.22207237  0.95093688
   0.55177626  0.11086531  0.05276575
   0.44120794  0.54907290  0.94745065
   0.55113502  0.43902972  0.05042018
   0.44358227  0.89087130  0.94916650
   0.55733546  0.78157057  0.05121790
   0.77809489  0.22283434  0.94365401
   0.89248805  0.11091078  0.05286074
   0.77635097  0.55420547  0.94666954
   0.88816889  0.44295706  0.05733680
   0.78072312  0.89095020  0.94904960
   0.89210388  0.78112778  0.04936799
unknown system                          
           1
     8.314388    4.800658    0.000000
    -8.302499    4.780103    0.000000
     0.000000    0.000000   30.000000
   V    Mo   W    S 
   3   3   3  18
Direct configuration=    22
   0.35076539  0.01106512 -0.00079290
   0.33648141  0.33999682  0.00028942
  -0.00682273  0.01120342 -0.00076317
   0.67694345  0.01991629 -0.00026886
   0.98131960  0.33299570  0.00001225
   0.68519496  0.33295424  0.00001058
  -0.01372898  0.63894400  0.00007229
   0.33493624  0.65967740  0.00056694
   0.65808105  0.66040073  0.00057876
   0.11208243  0.22214022  0.95076054
   0.22216360  0.11125816  0.04751812
   0.11118276  0.55405854  0.94663116
   0.22109401  0.43880368  0.05055397
   0.11055981  0.88814916  0.95479374
   0.22217584  0.78089103  0.04916631
   0.44340751  0.22227170  0.95082424
   0.55190940  0.11082813  0.05291990
   0.44109752  0.54886068  0.94731273
   0.55105151  0.43884446  0.05044058
   0.44376527  0.89081207  0.94924284
   0.55743997  0.78183407  0.05119042
   0.77812936  0.22288463  0.94356182
   0.89230121  0.11089880  0.05301669
   0.77619748  0.55411406  0.94668808
   0.88794255  0.44250862  0.05743149
   0.78047955  0.89089068  0.94911691
   0.89206427  0.78101204  0.04912504
unknown system                          
           1
     8.314803    4.800799    0.000000
    -8.303341    4.780984    0.000000
     0.000000    0.000000   30.000000
   V    Mo   W    S 
   3   3   3  18
Direct configuration=    23
   0.35170618  0.01197389 -0.00081874
   0.33656500  0.34019934  0.00032032
  -0.00687835  0.01212232 -0.00078844
   0.67721686  0.02037694 -0.00029080
   0.98122716  0.33277343  0.00000896
   0.68508519  0.33272748  0.00000626
  -0.01399044  0.63836418  0.00007441
   0.33504887  0.65915706  0.00059151
   0.65743576  0.65995799  0.00060445
   0.11212160  0.22222507  0.95070760
   0.22215720  0.11126179  0.04746928
   0.11122698  0.55403318  0.94664853
   0.22105838  0.43872028  0.05056864
   0.11052317  0.88809508  0.95503991
   0.22214196  0.78081713  0.04902432
   0.44347675  0.22239078  0.95076402
   0.55200148  0.11081257  0.05298564
   0.44104184  0.54875597  0.94725555
   0.55101768  0.43877477  0.05044564
   0.44385346  0.89076161  0.94930705
   0.55747661  0.78193438  0.05114780
   0.77815599  0.22292182  0.94353963
   0.89219649  0.11087763  0.05307315
   0.77612926  0.55408349  0.94671708
   0.88782862  0.44228869  0.05744188
   0.78036438  0.89086000  0.94918234
   0.89202639  0.78094758  0.04897391
unknown system                          
           1
     8.317334    4.802485    0.000000
    -8.305387    4.781829    0.000000
     0.000000    0.000000   30.000000
   V    Mo   W    S 
   3   3   3  18
Direct configuration=    24
   0.35290071  0.01315183 -0.00085202
   0.33667634  0.34045863  0.00035870
  -0.00691630  0.01330422 -0.00082028
   0.67755487  0.02096933 -0.00031818
   0.98114843  0.33249699  0.00000409
   0.68490484  0.33243187  0.00000092
  -0.01430792  0.63765132  0.00007640
   0.33517150  0.65845352  0.00062099
   0.65658804  0.65935236  0.00063604
   0.11218042  0.22234350  0.95063319
   0.22215224  0.11126590  0.04741140
   0.11128788  0.55400099  0.94666299
   0.22100798  0.43859756  0.05059648
   0.11048814  0.88804224  0.95535115
   0.22210651  0.78073420  0.04884515
   0.44356199  0.22254451  0.95068316
   0.55211415  0.11079148  0.05307382
   0.44096367  0.54860853  0.94717470
   0.55096218  0.43866937  0.05046021
   0.44396375  0.89070202  0.94939054