   27   27  100    1
  0.9710400E+02  0.1002848E-08  0.1002848E-08  0.3000000E-08  0.5000000E-15
  1.000000000000000E-004
  CAR 
 unknown system                          
    159     34    120
 
  0.0000000E+00  0.0000000E+00  0.0000000E+00  0.1562500E-01
    1      -17.787127   1.000000
    2      -16.694847   1.000000
    3      -16.596350   1.000000
    4      -16.583637   1.000000
    5      -16.491597   1.000000
    6      -16.477158   1.000000
    7      -16.414286   1.000000
    8      -16.348275   1.000000
    9      -16.132378   1.000000
   10      -16.125477   1.000000
   11      -16.097594   1.000000
   12      -16.013654   1.000000
   13      -15.885441   1.000000
   14      -15.660556   1.000000
   15      -15.635232   1.000000
   16      -15.527875   1.000000
   17      -15.317365   1.000000
   18      -15.271195   1.000000
   19       -9.214593   1.000000
   20       -8.962909   1.000000
   21       -8.934493   1.000000
   22       -8.824789   1.000000
   23       -8.743375   1.000000
   24       -8.712621   1.000000
   25       -8.648989   1.000000
   26       -8.602278   1.000000
   27       -8.498404   1.000000
   28       -8.444024   1.000000
   29       -8.383927   1.000000
   30       -8.348995   1.000000
   31       -8.315842   1.000000
   32       -8.170771   1.000000
   33       -7.992436   1.000000
   34       -7.976697   1.000000
   35       -7.859662   1.000000
   36       -7.795218   1.000000
   37       -7.778681   1.000000
   38       -7.538058   1.000000
   39       -7.406664   1.000000
   40       -7.391154   1.000000
   41       -7.344050   1.000000
   42       -7.276025   1.000000
   43       -7.099928   1.000000
   44       -6.959790   1.000000
   45       -6.830999   1.000000
   46       -6.792916   1.000000
   47       -6.736530   1.000000
   48       -6.584183   1.000000
   49       -6.567899   1.000000
   50       -6.501468   1.000000
   51       -6.424419   1.000000
   52       -6.381024   1.000000
   53       -6.291722   1.000000
   54       -6.284805   1.000000
   55       -6.227812   1.000000
   56       -6.198133   1.000000
   57       -6.045604   1.000000
   58       -5.931426   1.000000
   59       -5.707537   1.000000
   60       -5.561725   1.000000
   61       -5.524136   1.000000
   62       -5.430432   1.000000
   63       -5.322055   1.000000
   64       -5.181661   1.000000
   65       -5.111971   1.000000
   66       -5.022029   1.000000
   67       -4.994576   1.000000
   68       -4.838532   1.000000
   69       -4.809788   1.000000
   70       -4.733675   1.000000
   71       -4.651991   1.000000
   72       -4.579326   1.000000
   73       -4.481274   1.000000
   74       -4.190099   1.000000
   75       -4.160625   1.000000
   76       -4.055919   1.000000
   77       -3.718879   0.999548
   78       -3.534969   0.978224
   79       -3.521982   0.972981
   80       -3.419290   0.885007
   81       -3.318992   0.688351
   82       -2.877523   0.004263
   83       -2.628098   0.000006
   84       -2.579316   0.000001
   85       -2.437525   0.000000
   86       -2.420495   0.000000
   87       -2.246062   0.000000
   88       -2.172419   0.000000
   89       -2.138811   0.000000
   90       -2.031232   0.000000
   91       -1.964724   0.000000
   92       -1.875325   0.000000
   93       -1.468562   0.000000
   94       -1.217540   0.000000
   95       -1.111991   0.000000
   96       -1.044380   0.000000
   97       -0.997154   0.000000
   98       -0.851286   0.000000
   99       -0.715887   0.000000
  100       -0.670453   0.000000
  101       -0.650498   0.000000
  102       -0.436897   0.000000
  103       -0.402039   0.000000
  104       -0.383401   0.000000
  105       -0.267700   0.000000
  106       -0.104182   0.000000
  107       -0.076672   0.000000
  108        0.029057   0.000000
  109        0.060510   0.000000
  110        0.193015   0.000000
  111        0.317149   0.000000
  112        0.411733   0.000000
  113        0.728645   0.000000
  114        0.869368   0.000000
  115        0.994014   0.000000
  116        1.096641   0.000000
  117        1.150970   0.000000
  118        1.631741   0.000000
  119        1.825338   0.000000
  120        2.135835   0.000000
 
  0.1250000E+00  0.2775558E-16  0.0000000E+00  0.3125000E-01
    1      -17.762001   1.000000
    2      -16.771871   1.000000
    3      -16.674851   1.000000
    4      -16.601579   1.000000
    5      -16.516384   1.000000
    6      -16.433377   1.000000
    7      -16.370046   1.000000
    8      -16.292341   1.000000
    9      -16.195566   1.000000
   10      -16.109902   1.000000
   11      -16.031863   1.000000
   12      -15.981421   1.000000
   13      -15.861093   1.000000
   14      -15.677025   1.000000
   15      -15.636428   1.000000
   16      -15.533714   1.000000
   17      -15.324060   1.000000
   18      -15.275897   1.000000
   19       -9.212656   1.000000
   20       -9.132516   1.000000
   21       -8.994010   1.000000
   22       -8.931045   1.000000
   23       -8.775592   1.000000
   24       -8.718735   1.000000
   25       -8.684260   1.000000
   26       -8.548914   1.000000
   27       -8.487308   1.000000
   28       -8.447342   1.000000
   29       -8.394298   1.000000
   30       -8.264301   1.000000
   31       -8.201594   1.000000
   32       -8.062734   1.000000
   33       -7.975749   1.000000
   34       -7.887536   1.000000
   35       -7.821300   1.000000
   36       -7.748305   1.000000
   37       -7.709872   1.000000
   38       -7.570593   1.000000
   39       -7.478445   1.000000
   40       -7.385042   1.000000
   41       -7.294507   1.000000
   42       -7.238424   1.000000
   43       -7.138838   1.000000
   44       -7.007854   1.000000
   45       -6.874510   1.000000
   46       -6.823782   1.000000
   47       -6.751945   1.000000
   48       -6.622345   1.000000
   49       -6.545479   1.000000
   50       -6.447468   1.000000
   51       -6.430552   1.000000
   52       -6.385592   1.000000
   53       -6.331283   1.000000
   54       -6.264754   1.000000
   55       -6.209858   1.000000
   56       -6.169447   1.000000
   57       -5.968877   1.000000
   58       -5.942908   1.000000
   59       -5.712253   1.000000
   60       -5.566184   1.000000
   61       -5.548668   1.000000
   62       -5.437535   1.000000
   63       -5.303804   1.000000
   64       -5.293758   1.000000
   65       -5.202445   1.000000
   66       -5.082685   1.000000
   67       -5.012123   1.000000
   68       -4.853367   1.000000
   69       -4.813192   1.000000
   70       -4.708860   1.000000
   71       -4.598733   1.000000
   72       -4.492230   1.000000
   73       -4.453102   1.000000
   74       -4.169200   1.000000
   75       -4.075989   1.000000
   76       -4.041320   1.000000
   77       -3.889225   0.999997
   78       -3.694361   0.999171
   79       -3.466267   0.937309
   80       -3.413740   0.877209
   81       -3.181727   0.315817
   82       -2.847437   0.002233
   83       -2.621504   0.000004
   84       -2.584325   0.000001
   85       -2.425103   0.000000
   86       -2.409282   0.000000
   87       -2.230645   0.000000
   88       -2.156542   0.000000
   89       -2.130916   0.000000
   90       -2.022604   0.000000
   91       -1.963588   0.000000
   92       -1.876550   0.000000
   93       -1.467577   0.000000
   94       -1.228301   0.000000
   95       -1.103999   0.000000
   96       -1.044132   0.000000
   97       -0.987631   0.000000
   98       -0.863339   0.000000
   99       -0.761662   0.000000
  100       -0.726532   0.000000
  101       -0.661119   0.000000
  102       -0.507537   0.000000
  103       -0.477075   0.000000
  104       -0.430549   0.000000
  105       -0.306655   0.000000
  106       -0.178344   0.000000
  107       -0.133571   0.000000
  108       -0.010942   0.000000
  109        0.100678   0.000000
  110        0.207956   0.000000
  111        0.391250   0.000000
  112        0.492939   0.000000
  113        0.695809   0.000000
  114        0.861824   0.000000
  115        1.023723   0.000000
  116        1.100754   0.000000
  117        1.193732   0.000000
  118        1.675789   0.000000
  119        1.864740   0.000000
  120        2.170813   0.000000
 
  0.2500000E+00  0.5551115E-16  0.0000000E+00  0.3125000E-01
    1      -17.687652   1.000000
    2      -16.981524   1.000000
    3      -16.701960   1.000000
    4      -16.640229   1.000000
    5      -16.576241   1.000000
    6      -16.370247   1.000000
    7      -16.330272   1.000000
    8      -16.248946   1.000000
    9      -16.173475   1.000000
   10      -16.071893   1.000000
   11      -16.013727   1.000000
   12      -15.909220   1.000000
   13      -15.796062   1.000000
   14      -15.712360   1.000000
   15      -15.629766   1.000000
   16      -15.551022   1.000000
   17      -15.341967   1.000000
   18      -15.286987   1.000000
   19       -9.455448   1.000000
   20       -9.189643   1.000000
   21       -9.099624   1.000000
   22       -9.029147   1.000000
   23       -8.856837   1.000000
   24       -8.780028   1.000000
   25       -8.636515   1.000000
   26       -8.514020   1.000000
   27       -8.487234   1.000000
   28       -8.383583   1.000000
   29       -8.300518   1.000000
   30       -8.184376   1.000000
   31       -8.133858   1.000000
   32       -8.073940   1.000000
   33       -7.881184   1.000000
   34       -7.777101   1.000000
   35       -7.737411   1.000000
   36       -7.688925   1.000000
   37       -7.592366   1.000000
   38       -7.491925   1.000000
   39       -7.466743   1.000000
   40       -7.378509   1.000000
   41       -7.306617   1.000000
   42       -7.174722   1.000000
   43       -7.147649   1.000000
   44       -7.019810   1.000000
   45       -6.905088   1.000000
   46       -6.865997   1.000000
   47       -6.777733   1.000000
   48       -6.642631   1.000000
   49       -6.571418   1.000000
   50       -6.465371   1.000000
   51       -6.432319   1.000000
   52       -6.377181   1.000000
   53       -6.293179   1.000000
   54       -6.231908   1.000000
   55       -6.152451   1.000000
   56       -6.076866   1.000000
   57       -5.973152   1.000000
   58       -5.893379   1.000000
   59       -5.743233   1.000000
   60       -5.666771   1.000000
   61       -5.628156   1.000000
   62       -5.583066   1.000000
   63       -5.530715   1.000000
   64       -5.307799   1.000000
   65       -5.207910   1.000000
   66       -5.097277   1.000000
   67       -5.042568   1.000000
   68       -4.896768   1.000000
   69       -4.792030   1.000000
   70       -4.637315   1.000000
   71       -4.504800   1.000000
   72       -4.380818   1.000000
   73       -4.371478   1.000000
   74       -4.267193   1.000000
   75       -4.098014   1.000000
   76       -4.028245   1.000000
   77       -3.966354   1.000000
   78       -3.830977   0.999980
   79       -3.439113   0.909969
   80       -3.371623   0.806024
   81       -3.032624   0.062546
   82       -2.779983   0.000450
   83       -2.616937   0.000004
   84       -2.573538   0.000001
   85       -2.405946   0.000000
   86       -2.391274   0.000000
   87       -2.234977   0.000000
   88       -2.124435   0.000000
   89       -2.063356   0.000000
   90       -2.015523   0.000000
   91       -1.934196   0.000000
   92       -1.858769   0.000000
   93       -1.471644   0.000000
   94       -1.251593   0.000000
   95       -1.096454   0.000000
   96       -1.044100   0.000000
   97       -1.001496   0.000000
   98       -0.948230   0.000000
   99       -0.850579   0.000000
  100       -0.812407   0.000000
  101       -0.689705   0.000000
  102       -0.661390   0.000000
  103       -0.595556   0.000000
  104       -0.523601   0.000000
  105       -0.431732   0.000000
  106       -0.257720   0.000000
  107       -0.223894   0.000000
  108       -0.099486   0.000000
  109        0.120621   0.000000
  110        0.254485   0.000000
  111        0.399744   0.000000
  112        0.576671   0.000000
  113        0.716522   0.000000
  114        0.916274   0.000000
  115        1.037972   0.000000
  116        1.133930   0.000000
  117        1.314138   0.000000
  118        1.798387   0.000000
  119        1.976237   0.000000
  120        2.274499   0.000000
 
  0.3750000E+00  0.0000000E+00  0.0000000E+00  0.3125000E-01
    1      -17.567914   1.000000
    2      -17.197379   1.000000
    3      -16.738606   1.000000
    4      -16.654726   1.000000
    5      -16.596656   1.000000
    6      -16.384974   1.000000
    7      -16.315179   1.000000
    8      -16.199509   1.000000
    9      -16.119925   1.000000
   10      -16.011934   1.000000
   11      -15.979731   1.000000
   12      -15.887900   1.000000
   13      -15.779478   1.000000
   14      -15.757462   1.000000
   15      -15.583448   1.000000
   16      -15.556436   1.000000
   17      -15.371244   1.000000
   18      -15.294539   1.000000
   19       -9.668722   1.000000
   20       -9.277238   1.000000
   21       -9.176810   1.000000
   22       -9.002897   1.000000
   23       -8.914521   1.000000
   24       -8.820446   1.000000
   25       -8.569338   1.000000
   26       -8.472997   1.000000
   27       -8.420481   1.000000
   28       -8.316909   1.000000
   29       -8.287032   1.000000
   30       -8.198777   1.000000
   31       -8.144553   1.000000
   32       -8.021460   1.000000
   33       -7.940752   1.000000
   34       -7.797799   1.000000
   35       -7.722518   1.000000
   36       -7.654238   1.000000
   37       -7.570983   1.000000
   38       -7.463214   1.000000
   39       -7.385867   1.000000
   40       -7.258484   1.000000
   41       -7.211086   1.000000
   42       -7.145347   1.000000
   43       -7.070919   1.000000
   44       -7.028715   1.000000
   45       -6.871858   1.000000
   46       -6.818361   1.000000
   47       -6.694082   1.000000
   48       -6.595538   1.000000
   49       -6.580631   1.000000
   50       -6.510151   1.000000
   51       -6.408950   1.000000
   52       -6.341441   1.000000
   53       -6.262056   1.000000
   54       -6.179400   1.000000
   55       -6.150523   1.000000
   56       -6.073507   1.000000
   57       -5.993755   1.000000
   58       -5.940861   1.000000
   59       -5.864367   1.000000
   60       -5.824370   1.000000
   61       -5.758903   1.000000
   62       -5.673468   1.000000
   63       -5.593989   1.000000
   64       -5.383823   1.000000
   65       -5.189664   1.000000
   66       -5.019696   1.000000
   67       -5.002265   1.000000
   68       -4.905293   1.000000
   69       -4.836735   1.000000
   70       -4.709424   1.000000
   71       -4.516083   1.000000
   72       -4.436893   1.000000
   73       -4.300235   1.000000
   74       -4.231021   1.000000
   75       -4.152780   1.000000
   76       -4.068145   1.000000
   77       -3.943069   1.000000
   78       -3.726070   0.999624
   79       -3.475015   0.944580
   80       -3.322680   0.697512
   81       -2.928055   0.011508
   82       -2.725764   0.000106
   83       -2.627543   0.000005
   84       -2.542265   0.000000
   85       -2.396053   0.000000
   86       -2.363418   0.000000
   87       -2.265864   0.000000
   88       -2.090829   0.000000
   89       -2.016975   0.000000
   90       -1.972708   0.000000
   91       -1.897034   0.000000
   92       -1.796946   0.000000
   93       -1.483745   0.000000
   94       -1.269124   0.000000
   95       -1.171453   0.000000
   96       -1.078826   0.000000
   97       -1.054484   0.000000
   98       -0.972539   0.000000
   99       -0.897584   0.000000
  100       -0.892750   0.000000
  101       -0.821950   0.000000
  102       -0.746006   0.000000
  103       -0.675463   0.000000
  104       -0.592754   0.000000
  105       -0.490156   0.000000
  106       -0.320480   0.000000
  107       -0.284673   0.000000
  108       -0.188218   0.000000
  109        0.066875   0.000000
  110        0.238129   0.000000
  111        0.418734   0.000000
  112        0.606216   0.000000
  113        0.742160   0.000000
  114        0.979082   0.000000
  115        1.080480   0.000000
  116        1.201194   0.000000
  117        1.416817   0.000000
  118        1.981741   0.000000
  119        2.147458   0.000000
  120        2.443238   0.000000
 
  0.5000000E+00  0.1110223E-15  0.0000000E+00  0.1562500E-01
    1      -17.440279   1.000000
    2      -17.358847   1.000000
    3      -16.752895   1.000000
    4      -16.663784   1.000000
    5      -16.594842   1.000000
    6      -16.401016   1.000000
    7      -16.308282   1.000000
    8      -16.183302   1.000000
    9      -16.091164   1.000000
   10      -15.995946   1.000000
   11      -15.929039   1.000000
   12      -15.895004   1.000000
   13      -15.800701   1.000000
   14      -15.776837   1.000000
   15      -15.590731   1.000000
   16      -15.511995   1.000000
   17      -15.395620   1.000000
   18      -15.295614   1.000000
   19       -9.745395   1.000000
   20       -9.314266   1.000000
   21       -9.209638   1.000000
   22       -8.994842   1.000000
   23       -8.925637   1.000000
   24       -8.805639   1.000000
   25       -8.539388   1.000000
   26       -8.472908   1.000000
   27       -8.421266   1.000000
   28       -8.290543   1.000000
   29       -8.256426   1.000000
   30       -8.199009   1.000000
   31       -8.106338   1.000000
   32       -8.058671   1.000000
   33       -7.927362   1.000000
   34       -7.876128   1.000000
   35       -7.764759   1.000000
   36       -7.647153   1.000000
   37       -7.578118   1.000000
   38       -7.436333   1.000000
   39       -7.379093   1.000000
   40       -7.197729   1.000000
   41       -7.161430   1.000000
   42       -7.113973   1.000000
   43       -7.045451   1.000000
   44       -6.965833   1.000000
   45       -6.867410   1.000000
   46       -6.731985   1.000000
   47       -6.635512   1.000000
   48       -6.597618   1.000000
   49       -6.544922   1.000000
   50       -6.472830   1.000000
   51       -6.386964   1.000000
   52       -6.354620   1.000000
   53       -6.284876   1.000000
   54       -6.269255   1.000000
   55       -6.229971   1.000000
   56       -6.127869   1.000000
   57       -5.991536   1.000000
   58       -5.929242   1.000000
   59       -5.872520   1.000000
   60       -5.809406   1.000000
   61       -5.765371   1.000000
   62       -5.654025   1.000000
   63       -5.604235   1.000000
   64       -5.467644   1.000000
   65       -5.253524   1.000000
   66       -5.044854   1.000000
   67       -4.973190   1.000000
   68       -4.957156   1.000000
   69       -4.889493   1.000000
   70       -4.681939   1.000000
   71       -4.512241   1.000000
   72       -4.412510   1.000000
   73       -4.279629   1.000000
   74       -4.236390   1.000000
   75       -4.199640   1.000000
   76       -4.055542   1.000000
   77       -3.910314   0.999999
   78       -3.649515   0.997660
   79       -3.520126   0.972152
   80       -3.304430   0.651070
   81       -2.884966   0.004971
   82       -2.718553   0.000087
   83       -2.619234   0.000004
   84       -2.537748   0.000000
   85       -2.391967   0.000000
   86       -2.338826   0.000000
   87       -2.283712   0.000000
   88       -2.085793   0.000000
   89       -1.994019   0.000000
   90       -1.954018   0.000000
   91       -1.882447   0.000000
   92       -1.752672   0.000000
   93       -1.491221   0.000000
   94       -1.258479   0.000000
   95       -1.245142   0.000000
   96       -1.087355   0.000000
   97       -1.070987   0.000000
   98       -1.021487   0.000000
   99       -0.916172   0.000000
  100       -0.891118   0.000000
  101       -0.881796   0.000000
  102       -0.777425   0.000000
  103       -0.710274   0.000000
  104       -0.606558   0.000000
  105       -0.510873   0.000000
  106       -0.347922   0.000000
  107       -0.302451   0.000000
  108       -0.225062   0.000000
  109        0.034399   0.000000
  110        0.223646   0.000000
  111        0.431257   0.000000
  112        0.621646   0.000000
  113        0.737967   0.000000
  114        1.000135   0.000000
  115        1.111905   0.000000
  116        1.228526   0.000000
  117        1.456429   0.000000
  118        2.203800   0.000000
  119        2.222770   0.000000
  120        2.364411   0.000000
 
  0.0000000E+00  0.1250000E+00  0.0000000E+00  0.3125000E-01
    1      -17.762083   1.000000
    2      -16.767367   1.000000
    3      -16.652346   1.000000
    4      -16.619988   1.000000
    5      -16.547847   1.000000
    6      -16.413038   1.000000
    7      -16.360367   1.000000
    8      -16.308322   1.000000
    9      -16.184575   1.000000
   10      -16.114762   1.000000
   11      -16.032553   1.000000
   12      -15.964351   1.000000
   13      -15.881638   1.000000
   14      -15.679860   1.000000
   15      -15.630310   1.000000
   16      -15.526830   1.000000
   17      -15.320886   1.000000
   18      -15.281627   1.000000
   19       -9.232234   1.000000
   20       -9.114711   1.000000
   21       -8.989220   1.000000
   22       -8.951157   1.000000
   23       -8.782928   1.000000
   24       -8.727174   1.000000
   25       -8.646764   1.000000
   26       -8.586202   1.000000
   27       -8.488429   1.000000
   28       -8.399719   1.000000
   29       -8.379308   1.000000
   30       -8.330096   1.000000
   31       -8.163631   1.000000
   32       -8.056375   1.000000
   33       -7.982043   1.000000
   34       -7.928598   1.000000
   35       -7.803470   1.000000
   36       -7.735624   1.000000
   37       -7.671789   1.000000
   38       -7.555242   1.000000
   39       -7.529627   1.000000
   40       -7.388287   1.000000
   41       -7.314484   1.000000
   42       -7.227357   1.000000
   43       -7.109782   1.000000
   44       -6.974439   1.000000
   45       -6.925438   1.000000
   46       -6.844391   1.000000
   47       -6.730287   1.000000
   48       -6.597033   1.000000
   49       -6.489821   1.000000
   50       -6.467262   1.000000
   51       -6.417791   1.000000
   52       -6.390705   1.000000
   53       -6.325791   1.000000
   54       -6.278255   1.000000
   55       -6.227058   1.000000
   56       -6.193788   1.000000
   57       -5.993315   1.000000
   58       -5.943314   1.000000
   59       -5.689803   1.000000
   60       -5.605463   1.000000
   61       -5.540346   1.000000
   62       -5.435767   1.000000
   63       -5.358421   1.000000
   64       -5.246890   1.000000
   65       -5.137516   1.000000
   66       -5.020889   1.000000
   67       -4.993227   1.000000
   68       -4.917896   1.000000
   69       -4.801393   1.000000
   70       -4.732033   1.000000
   71       -4.703554   1.000000
   72       -4.508703   1.000000
   73       -4.434108   1.000000
   74       -4.169769   1.000000
   75       -4.050203   1.000000
   76       -4.037332   1.000000
   77       -3.823468   0.999975
   78       -3.744172   0.999765
   79       -3.532850   0.977432
   80       -3.321254   0.693983
   81       -3.186027   0.326708
   82       -2.848087   0.002265
   83       -2.613510   0.000003
   84       -2.599421   0.000002
   85       -2.440247   0.000000
   86       -2.382243   0.000000
   87       -2.249139   0.000000
   88       -2.156843   0.000000
   89       -2.132034   0.000000
   90       -2.010980   0.000000
   91       -1.997644   0.000000
   92       -1.857540   0.000000
   93       -1.461246   0.000000
   94       -1.212216   0.000000
   95       -1.115271   0.000000
   96       -1.033104   0.000000
   97       -0.994723   0.000000
   98       -0.872889   0.000000
   99       -0.768228   0.000000
  100       -0.723907   0.000000
  101       -0.679896   0.000000
  102       -0.548885   0.000000
  103       -0.462590   0.000000
  104       -0.417739   0.000000
  105       -0.324948   0.000000
  106       -0.122372   0.000000
  107       -0.089426   0.000000
  108        0.015856   0.000000
  109        0.064320   0.000000
  110        0.229471   0.000000
  111        0.408050   0.000000
  112        0.499668   0.000000
  113        0.738434   0.000000
  114        0.840035   0.000000
  115        0.989450   0.000000
  116        1.102505   0.000000
  117        1.125577   0.000000
  118        1.675794   0.000000
  119        1.863537   0.000000
  120        2.170939   0.000000
 
  0.1250000E+00  0.1250000E+00  0.0000000E+00  0.3125000E-01
    1      -17.711732   1.000000
    2      -16.903821   1.000000
    3      -16.755905   1.000000
    4      -16.628402   1.000000
    5      -16.498638   1.000000
    6      -16.403005   1.000000
    7      -16.317598   1.000000
    8      -16.283432   1.000000
    9      -16.185880   1.000000
   10      -16.105880   1.000000
   11      -16.002128   1.000000
   12      -15.905427   1.000000
   13      -15.837766   1.000000
   14      -15.700473   1.000000
   15      -15.635051   1.000000
   16      -15.530335   1.000000
   17      -15.337207   1.000000
   18      -15.287226   1.000000
   19       -9.380484   1.000000
   20       -9.210057   1.000000
   21       -9.104673   1.000000
   22       -9.023361   1.000000
   23       -8.796624   1.000000
   24       -8.701287   1.000000
   25       -8.665364   1.000000
   26       -8.564457   1.000000
   27       -8.455960   1.000000
   28       -8.388036   1.000000
   29       -8.316357   1.000000
   30       -8.246473   1.000000
   31       -8.130125   1.000000
   32       -8.062776   1.000000
   33       -7.916791   1.000000
   34       -7.826143   1.000000
   35       -7.764063   1.000000
   36       -7.690635   1.000000
   37       -7.643174   1.000000
   38       -7.492772   1.000000
   39       -7.440041   1.000000
   40       -7.355567   1.000000
   41       -7.310437   1.000000
   42       -7.223787   1.000000
   43       -7.126557   1.000000
   44       -7.016567   1.000000
   45       -6.951462   1.000000
   46       -6.839389   1.000000
   47       -6.755787   1.000000
   48       -6.616801   1.000000
   49       -6.571725   1.000000
   50       -6.459783   1.000000
   51       -6.424255   1.000000
   52       -6.359474   1.000000
   53       -6.311828   1.000000
   54       -6.232283   1.000000
   55       -6.174148   1.000000
   56       -6.153267   1.000000
   57       -6.004710   1.000000
   58       -5.887768   1.000000
   59       -5.747664   1.000000
   60       -5.682517   1.000000
   61       -5.580377   1.000000
   62       -5.471898   1.000000
   63       -5.403565   1.000000
   64       -5.278919   1.000000
   65       -5.236614   1.000000
   66       -5.106555   1.000000
   67       -5.052497   1.000000
   68       -4.936923   1.000000
   69       -4.778322   1.000000
   70       -4.679094   1.000000
   71       -4.595288   1.000000
   72       -4.429628   1.000000
   73       -4.369846   1.000000
   74       -4.160105   1.000000
   75       -4.145317   1.000000
   76       -4.036128   1.000000
   77       -3.907394   0.999998
   78       -3.824202   0.999976
   79       -3.488104   0.954197
   80       -3.302740   0.646638
   81       -3.046362   0.075415
   82       -2.803856   0.000813
   83       -2.631505   0.000006
   84       -2.574741   0.000001
   85       -2.430981   0.000000
   86       -2.375011   0.000000
   87       -2.257123   0.000000
   88       -2.127045   0.000000
   89       -2.088669   0.000000
   90       -2.049726   0.000000
   91       -1.954627   0.000000
   92       -1.835437   0.000000
   93       -1.460231   0.000000
   94       -1.231601   0.000000
   95       -1.116044   0.000000
   96       -1.037070   0.000000
   97       -0.968412   0.000000
   98       -0.924248   0.000000
   99       -0.856204   0.000000
  100       -0.789297   0.000000
  101       -0.697636   0.000000
  102       -0.660045   0.000000
  103       -0.544174   0.000000
  104       -0.495801   0.000000
  105       -0.389669   0.000000
  106       -0.191580   0.000000
  107       -0.155904   0.000000
  108       -0.038132   0.000000
  109        0.082716   0.000000
  110        0.254040   0.000000
  111        0.451662   0.000000
  112        0.588477   0.000000
  113        0.765191   0.000000
  114        0.861318   0.000000
  115        1.019586   0.000000
  116        1.064369   0.000000
  117        1.190266   0.000000
  118        1.759299   0.000000
  119        1.938521   0.000000
  120        2.240480   0.000000
 
  0.2500000E+00  0.1250000E+00  0.0000000E+00  0.3125000E-01
    1      -17.613973   1.000000
    2      -17.091671   1.000000
    3      -16.857842   1.000000
    4      -16.618141   1.000000
    5      -16.493078   1.000000
    6      -16.357325   1.000000
    7      -16.330892   1.000000
    8      -16.241324   1.000000
    9      -16.142268   1.000000
   10      -16.077249   1.000000
   11      -15.965310   1.000000
   12      -15.895721   1.000000
   13      -15.787043   1.000000
   14      -15.724625   1.000000
   15      -15.612579   1.000000
   16      -15.539726   1.000000
   17      -15.365527   1.000000
   18      -15.289111   1.000000
   19       -9.584061   1.000000
   20       -9.366168   1.000000
   21       -9.181447   1.000000
   22       -9.019139   1.000000
   23       -8.793112   1.000000
   24       -8.729216   1.000000
   25       -8.594514   1.000000
   26       -8.481362   1.000000
   27       -8.426980   1.000000
   28       -8.371236   1.000000
   29       -8.284835   1.000000
   30       -8.179884   1.000000
   31       -8.131418   1.000000
   32       -8.086490   1.000000
   33       -7.960307   1.000000
   34       -7.840962   1.000000
   35       -7.754872   1.000000
   36       -7.626505   1.000000
   37       -7.551587   1.000000
   38       -7.482963   1.000000
   39       -7.345450   1.000000
   40       -7.302597   1.000000
   41       -7.215679   1.000000
   42       -7.174851   1.000000
   43       -7.125629   1.000000
   44       -6.947729   1.000000
   45       -6.912672   1.000000
   46       -6.804617   1.000000
   47       -6.716600   1.000000