       N       E                     dE             d eps       ncg     rms          rms(c)
DAV:   1     0.112394203893E+04    0.11239E+04   -0.35868E+04  8160   0.577E+02
DAV:   2     0.757391406587E-01   -0.11239E+04   -0.10787E+04 11080   0.173E+02
DAV:   3    -0.199643203238E+03   -0.19972E+03   -0.19181E+03 10960   0.824E+01
DAV:   4    -0.208861328978E+03   -0.92181E+01   -0.88973E+01 11800   0.260E+01
DAV:   5    -0.209222003560E+03   -0.36067E+00   -0.35971E+00 11440   0.390E+00    0.274E+01
DAV:   6    -0.236371002116E+03   -0.27149E+02   -0.11191E+02 12720   0.602E+01    0.592E+01
DAV:   7    -0.196822363027E+03    0.39549E+02   -0.17545E+02 13320   0.151E+02    0.206E+01
DAV:   8    -0.190299536343E+03    0.65228E+01   -0.21196E+01 11560   0.135E+01    0.140E+01
DAV:   9    -0.188295660409E+03    0.20039E+01   -0.37488E+00 12120   0.644E+00    0.935E+00
DAV:  10    -0.187100415447E+03    0.11952E+01   -0.17515E+00 13320   0.770E+00    0.325E+00
DAV:  11    -0.187014176894E+03    0.86239E-01   -0.66070E-01 12320   0.235E+00    0.243E+00
DAV:  12    -0.186973939402E+03    0.40237E-01   -0.37732E-01 12840   0.252E+00    0.273E+00
DAV:  13    -0.186930291120E+03    0.43648E-01   -0.19339E-01 13280   0.280E+00    0.206E+00
DAV:  14    -0.186892021268E+03    0.38270E-01   -0.95609E-02 13000   0.183E+00    0.614E-01
DAV:  15    -0.186887533506E+03    0.44878E-02   -0.15484E-02 11920   0.430E-01    0.492E-01
DAV:  16    -0.186887390244E+03    0.14326E-03   -0.10942E-02 13160   0.518E-01    0.593E-01
DAV:  17    -0.186885112615E+03    0.22776E-02   -0.10394E-02 12560   0.543E-01    0.294E-01
DAV:  18    -0.186884014797E+03    0.10978E-02   -0.26133E-03 12800   0.230E-01    0.187E-01
DAV:  19    -0.186883812424E+03    0.20237E-03   -0.87421E-04 11400   0.149E-01    0.476E-02
DAV:  20    -0.186884679582E+03   -0.86716E-03   -0.84595E-04  9040   0.583E-02    0.460E-02
DAV:  21    -0.186885433445E+03   -0.75386E-03   -0.22873E-04  8200   0.515E-02    0.335E-02
DAV:  22    -0.186886288031E+03   -0.85459E-03   -0.11969E-04  7160   0.315E-02    0.384E-02
DAV:  23    -0.186887532371E+03   -0.12443E-02   -0.15345E-04  7440   0.484E-02    0.222E-02
DAV:  24    -0.186888064875E+03   -0.53250E-03   -0.29668E-05  6800   0.234E-02    0.509E-03
DAV:  25    -0.186888473106E+03   -0.40823E-03   -0.20747E-05  5440   0.101E-02    0.521E-03
DAV:  26    -0.186888710666E+03   -0.23756E-03   -0.91593E-06  6840   0.799E-03    0.163E-03
DAV:  27    -0.186888798141E+03   -0.87475E-04   -0.31702E-06  7200   0.388E-03
   1 F= -.18688880E+03 E0= -.18671741E+03  d E =-.186889E+03
       N       E                     dE             d eps       ncg     rms          rms(c)
DAV:   1    -0.187544160863E+03   -0.65545E+00   -0.27353E+02  8160   0.352E+01    0.470E+00
DAV:   2    -0.189651980946E+03   -0.21078E+01   -0.20594E+01 12320   0.160E+01    0.103E+01
DAV:   3    -0.189341331672E+03    0.31065E+00   -0.45754E+00 12400   0.127E+01    0.618E+00
DAV:   4    -0.188806504070E+03    0.53483E+00   -0.57724E-01 12520   0.429E+00    0.188E+00
DAV:   5    -0.188959674095E+03   -0.15317E+00   -0.52448E-01 12360   0.372E+00    0.590E+00
DAV:   6    -0.188779376178E+03    0.18030E+00   -0.85746E-01 12800   0.448E+00    0.215E+00
DAV:   7    -0.188766324298E+03    0.13052E-01   -0.20681E-01 11600   0.228E+00    0.227E+00
DAV:   8    -0.188735959215E+03    0.30365E-01   -0.12818E-01 13000   0.214E+00    0.147E+00
DAV:   9    -0.188715953242E+03    0.20006E-01   -0.35992E-02 12280   0.950E-01    0.342E-01
DAV:  10    -0.188715241696E+03    0.71155E-03   -0.45872E-03 10840   0.224E-01    0.198E-01
DAV:  11    -0.188714731012E+03    0.51068E-03   -0.25223E-03 12560   0.164E-01    0.102E-01
DAV:  12    -0.188714875550E+03   -0.14454E-03   -0.79052E-04 11680   0.839E-02    0.895E-02
DAV:  13    -0.188714808499E+03    0.67051E-04   -0.25224E-04  7920   0.579E-02
   2 F= -.18871481E+03 E0= -.18857528E+03  d E =-.182601E+01
       N       E                     dE             d eps       ncg     rms          rms(c)
DAV:   1    -0.190645791493E+03   -0.19309E+01   -0.31670E+01  9080   0.143E+01    0.442E+00
DAV:   2    -0.190564621268E+03    0.81170E-01   -0.27497E+00 11120   0.928E+00    0.703E+00
DAV:   3    -0.190135629521E+03    0.42899E+00   -0.13635E+00 12320   0.856E+00    0.427E+00
DAV:   4    -0.189923233682E+03    0.21240E+00   -0.76136E-01 12800   0.437E+00    0.253E+00
DAV:   5    -0.189900343323E+03    0.22890E-01   -0.37957E-01 12240   0.307E+00    0.282E+00
DAV:   6    -0.189825945436E+03    0.74398E-01   -0.15628E-01 12360   0.251E+00    0.856E-01
DAV:   7    -0.189817289902E+03    0.86555E-02   -0.17687E-02 11760   0.630E-01    0.248E-01
DAV:   8    -0.189818320307E+03   -0.10304E-02   -0.51017E-03 12520   0.397E-01    0.404E-01
DAV:   9    -0.189817177535E+03    0.11428E-02   -0.27380E-03 11200   0.331E-01    0.137E-01
DAV:  10    -0.189817443609E+03   -0.26607E-03   -0.91987E-04 10080   0.121E-01    0.128E-01
DAV:  11    -0.189817227965E+03    0.21564E-03   -0.45071E-04  8600   0.763E-02    0.206E-02
DAV:  12    -0.189817250947E+03   -0.22982E-04   -0.76851E-05  6920   0.289E-02
   3 F= -.18981725E+03 E0= -.18969784E+03  d E =-.110244E+01
       N       E                     dE             d eps       ncg     rms          rms(c)
DAV:   1    -0.191415462168E+03   -0.15982E+01   -0.82488E+01  8160   0.206E+01    0.459E+00
DAV:   2    -0.191225815795E+03    0.18965E+00   -0.54481E+00 13160   0.749E+00    0.439E+00
DAV:   3    -0.191375769764E+03   -0.14995E+00   -0.16035E+00 12240   0.895E+00    0.657E+00
DAV:   4    -0.190998462498E+03    0.37731E+00   -0.13947E+00 12320   0.777E+00    0.299E+00
DAV:   5    -0.190920775920E+03    0.77687E-01   -0.39169E-01 12400   0.344E+00    0.252E+00
DAV:   6    -0.190869233909E+03    0.51542E-01   -0.21075E-01 12400   0.305E+00    0.160E+00
DAV:   7    -0.190846298766E+03    0.22935E-01   -0.61053E-02 12640   0.138E+00    0.418E-01
DAV:   8    -0.190844639209E+03    0.16596E-02   -0.86849E-03 11520   0.462E-01    0.360E-01
DAV:   9    -0.190843734666E+03    0.90454E-03   -0.28679E-03 10560   0.357E-01    0.172E-01
DAV:  10    -0.190843968906E+03   -0.23424E-03   -0.13473E-03 11240   0.157E-01    0.113E-01
DAV:  11    -0.190843779660E+03    0.18925E-03   -0.59891E-04 10320   0.887E-02    0.433E-02
DAV:  12    -0.190843786828E+03   -0.71677E-05   -0.10266E-04  7040   0.394E-02
   4 F= -.19084379E+03 E0= -.19073582E+03  d E =-.102654E+01
       N       E                     dE             d eps       ncg     rms          rms(c)
DAV:   1    -0.192145560884E+03   -0.13018E+01   -0.17167E+02  8160   0.290E+01    0.547E+00
DAV:   2    -0.191923979042E+03    0.22158E+00   -0.90984E+00 10880   0.769E+00    0.341E+00
DAV:   3    -0.191798445443E+03    0.12553E+00   -0.14600E+00 11800   0.608E+00    0.368E+00
DAV:   4    -0.191821166656E+03   -0.22721E-01   -0.10758E+00 12360   0.755E+00    0.435E+00
DAV:   5    -0.191552097507E+03    0.26907E+00   -0.43867E-01 12360   0.453E+00    0.814E-01
DAV:   6    -0.191542464918E+03    0.96326E-02   -0.80402E-02 11440   0.116E+00    0.546E-01
DAV:   7    -0.191547119579E+03   -0.46547E-02   -0.38107E-02 11960   0.117E+00    0.102E+00
DAV:   8    -0.191537696694E+03    0.94229E-02   -0.20499E-02 11560   0.870E-01    0.171E-01
DAV:   9    -0.191538488608E+03   -0.79191E-03   -0.29008E-03 11520   0.290E-01    0.293E-01
DAV:  10    -0.191538006198E+03    0.48241E-03   -0.29901E-03 11800   0.351E-01    0.183E-01
DAV:  11    -0.191537738263E+03    0.26794E-03   -0.89929E-04 10040   0.160E-01    0.512E-02
DAV:  12    -0.191537709939E+03    0.28324E-04   -0.11565E-04  6480   0.431E-02
   5 F= -.19153771E+03 E0= -.19142713E+03  d E =-.693923E+00
       N       E                     dE             d eps       ncg     rms          rms(c)
DAV:   1    -0.191611278198E+03   -0.73540E-01   -0.52819E+00  8160   0.486E+00    0.640E-01
DAV:   2    -0.191663713366E+03   -0.52435E-01   -0.28050E-01 13440   0.274E+00    0.206E+00
DAV:   3    -0.191622566044E+03    0.41147E-01   -0.98300E-02 12520   0.207E+00    0.458E-01
DAV:   4    -0.191625489095E+03   -0.29231E-02   -0.21570E-02 10240   0.919E-01    0.766E-01
DAV:   5    -0.191619560864E+03    0.59282E-02   -0.13271E-02 11160   0.743E-01    0.232E-01
DAV:   6    -0.191620293091E+03   -0.73223E-03   -0.52904E-03 11120   0.386E-01    0.381E-01
DAV:   7    -0.191619350147E+03    0.94294E-03   -0.46431E-03 11200   0.440E-01    0.218E-01
DAV:   8    -0.191618844759E+03    0.50539E-03   -0.10078E-03  9840   0.174E-01    0.337E-02
DAV:   9    -0.191618854847E+03   -0.10088E-04   -0.98044E-05  6320   0.345E-02
   6 F= -.19161885E+03 E0= -.19150734E+03  d E =-.811449E-01
       N       E                     dE             d eps       ncg     rms          rms(c)
DAV:   1    -0.191692462718E+03   -0.73618E-01   -0.54196E+00  8160   0.490E+00    0.544E-01
DAV:   2    -0.191727386896E+03   -0.34924E-01   -0.18113E-01 13040   0.190E+00    0.171E+00
DAV:   3    -0.191699813011E+03    0.27574E-01   -0.79349E-02 12480   0.179E+00    0.495E-01
DAV:   4    -0.191700376780E+03   -0.56377E-03   -0.15739E-02 11000   0.752E-01    0.565E-01
DAV:   5    -0.191697112950E+03    0.32638E-02   -0.80315E-03 11120   0.609E-01    0.203E-01
DAV:   6    -0.191697175637E+03   -0.62688E-04   -0.30801E-03 11400   0.292E-01    0.259E-01
DAV:   7    -0.191697176943E+03   -0.13059E-05   -0.34823E-03 10600   0.379E-01    0.264E-01
DAV:   8    -0.191696489749E+03    0.68719E-03   -0.12456E-03  9200   0.212E-01    0.283E-02
DAV:   9    -0.191696513850E+03   -0.24101E-04   -0.85609E-05  5960   0.331E-02
   7 F= -.19169651E+03 E0= -.19158515E+03  d E =-.776590E-01
       N       E                     dE             d eps       ncg     rms          rms(c)
DAV:   1    -0.191764153365E+03   -0.67664E-01   -0.43630E+00  8160   0.443E+00    0.547E-01
DAV:   2    -0.191807650033E+03   -0.43497E-01   -0.19207E-01 11720   0.233E+00    0.204E+00
DAV:   3    -0.191769905253E+03    0.37745E-01   -0.93540E-02 12440   0.192E+00    0.395E-01
DAV:   4    -0.191771328294E+03   -0.14230E-02   -0.13363E-02 11400   0.742E-01    0.564E-01
DAV:   5    -0.191768070670E+03    0.32576E-02   -0.82314E-03 11080   0.609E-01    0.230E-01
DAV:   6    -0.191768762829E+03   -0.69216E-03   -0.45090E-03 11720   0.404E-01    0.385E-01
DAV:   7    -0.191767709692E+03    0.10531E-02   -0.36517E-03 11200   0.394E-01    0.148E-01
DAV:   8    -0.191767397026E+03    0.31267E-03   -0.61408E-04  9680   0.121E-01    0.211E-02
DAV:   9    -0.191767409564E+03   -0.12538E-04   -0.65593E-05  6840   0.259E-02
   8 F= -.19176741E+03 E0= -.19165737E+03  d E =-.708957E-01
       N       E                     dE             d eps       ncg     rms          rms(c)
DAV:   1    -0.191905514299E+03   -0.13812E+00   -0.34263E+01  8160   0.125E+01    0.143E+00
DAV:   2    -0.192193057769E+03   -0.28754E+00   -0.13495E+00 11440   0.574E+00    0.538E+00
DAV:   3    -0.191960053189E+03    0.23300E+00   -0.72102E-01 12320   0.513E+00    0.111E+00
DAV:   4    -0.191972814985E+03   -0.12762E-01   -0.94728E-02 12200   0.201E+00    0.177E+00
DAV:   5    -0.191943020454E+03    0.29795E-01   -0.66850E-02 11360   0.172E+00    0.650E-01
DAV:   6    -0.191944330430E+03   -0.13100E-02   -0.22684E-02 11760   0.101E+00    0.781E-01
DAV:   7    -0.191939762981E+03    0.45674E-02   -0.19310E-02 11720   0.104E+00    0.385E-01
DAV:   8    -0.191937297942E+03    0.24650E-02   -0.39676E-03 11160   0.361E-01    0.613E-02
DAV:   9    -0.191937327134E+03   -0.29192E-04   -0.56212E-04 10120   0.722E-02
   9 F= -.19193733E+03 E0= -.19183356E+03  d E =-.169918E+00
       N       E                     dE             d eps       ncg     rms          rms(c)
DAV:   1    -0.191975005465E+03   -0.37708E-01   -0.23167E+00  8160   0.327E+00    0.478E-01
DAV:   2    -0.191993755721E+03   -0.18750E-01   -0.11531E-01 12160   0.163E+00    0.135E+00
DAV:   3    -0.191978006783E+03    0.15749E-01   -0.43786E-02 12320   0.139E+00    0.386E-01
DAV:   4    -0.191978764442E+03   -0.75766E-03   -0.95801E-03 12240   0.674E-01    0.534E-01
DAV:   5    -0.191976399657E+03    0.23648E-02   -0.81336E-03 11200   0.626E-01    0.304E-01
DAV:   6    -0.191976709236E+03   -0.30958E-03   -0.40386E-03 11520   0.440E-01    0.353E-01
DAV:   7    -0.191975518588E+03    0.11906E-02   -0.23987E-03 10920   0.356E-01    0.676E-02
DAV:   8    -0.191975458441E+03    0.60148E-04   -0.16425E-04  6160   0.652E-02
  10 F= -.19197546E+03 E0= -.19187268E+03  d E =-.381313E-01
       N       E                     dE             d eps       ncg     rms          rms(c)
DAV:   1    -0.192031025580E+03   -0.55507E-01   -0.90888E+00  8160   0.635E+00    0.697E-01
DAV:   2    -0.192088849717E+03   -0.57824E-01   -0.30362E-01 11760   0.257E+00    0.225E+00
DAV:   3    -0.192045295326E+03    0.43554E-01   -0.11517E-01 12280   0.226E+00    0.562E-01
DAV:   4    -0.192048729269E+03   -0.34339E-02   -0.19473E-02 11240   0.922E-01    0.893E-01
DAV:   5    -0.192041552152E+03    0.71771E-02   -0.14458E-02 10840   0.851E-01    0.286E-01
DAV:   6    -0.192041535197E+03    0.16955E-04   -0.37707E-03 12200   0.336E-01    0.239E-01
DAV:   7    -0.192041084184E+03    0.45101E-03   -0.26204E-03 11960   0.393E-01    0.180E-01
DAV:   8    -0.192040658519E+03    0.42566E-03   -0.71700E-04  9680   0.195E-01    0.303E-02
DAV:   9    -0.192040659437E+03   -0.91802E-06   -0.10301E-04  6800   0.378E-02
  11 F= -.19204066E+03 E0= -.19194066E+03  d E =-.652010E-01
       N       E                     dE             d eps       ncg     rms          rms(c)
DAV:   1    -0.192054954999E+03   -0.14296E-01   -0.61355E-01  8160   0.166E+00    0.174E-01
DAV:   2    -0.192055925447E+03   -0.97045E-03   -0.15372E-02 13320   0.429E-01    0.217E-01
DAV:   3    -0.192055822212E+03    0.10324E-03   -0.26011E-03 12280   0.372E-01    0.210E-01
DAV:   4    -0.192055507998E+03    0.31421E-03   -0.14048E-03  9960   0.249E-01    0.164E-01
DAV:   5    -0.192055437804E+03    0.70195E-04   -0.10623E-03  9120   0.228E-01    0.147E-01
DAV:   6    -0.192055278584E+03    0.15922E-03   -0.56452E-04  8720   0.152E-01    0.719E-02
DAV:   7    -0.192055287755E+03   -0.91706E-05   -0.25481E-04  8440   0.122E-01
  12 F= -.19205529E+03 E0= -.19195568E+03  d E =-.146283E-01
       N       E                     dE             d eps       ncg     rms          rms(c)
DAV:   1    -0.192057672979E+03   -0.23944E-02   -0.12535E-02  8160   0.249E-01    0.288E-02
DAV:   2    -0.192057735521E+03   -0.62541E-04   -0.37761E-04 10080   0.805E-02
  13 F= -.19205774E+03 E0= -.19195810E+03  d E =-.244777E-02
       N       E                     dE             d eps       ncg     rms          rms(c)
DAV:   1    -0.192085851173E+03   -0.28178E-01   -0.19184E+00  8160   0.291E+00    0.286E-01
DAV:   2    -0.192091839655E+03   -0.59885E-02   -0.49591E-02 11560   0.805E-01    0.620E-01
DAV:   3    -0.192088967566E+03    0.28721E-02   -0.11954E-02 12440   0.753E-01    0.315E-01
DAV:   4    -0.192088744270E+03    0.22330E-03   -0.30707E-03 11480   0.371E-01    0.297E-01
DAV:   5    -0.192088059282E+03    0.68499E-03   -0.22116E-03  9840   0.342E-01    0.165E-01
DAV:   6    -0.192088283496E+03   -0.22421E-03   -0.12239E-03 10400   0.254E-01    0.203E-01
DAV:   7    -0.192087859828E+03    0.42367E-03   -0.82269E-04 10000   0.231E-01    0.502E-02
DAV:   8    -0.192087823132E+03    0.36696E-04   -0.77495E-05  5880   0.530E-02
  14 F= -.19208782E+03 E0= -.19198989E+03  d E =-.300876E-01
       N       E                     dE             d eps       ncg     rms          rms(c)
DAV:   1    -0.192079594182E+03    0.82656E-02   -0.17752E-01  8160   0.900E-01    0.118E-01
DAV:   2    -0.192080086922E+03   -0.49274E-03   -0.69143E-03 11480   0.282E-01    0.194E-01
DAV:   3    -0.192080080745E+03    0.61771E-05   -0.19772E-03 10520   0.296E-01    0.208E-01
DAV:   4    -0.192079659196E+03    0.42155E-03   -0.67338E-04  8160   0.170E-01    0.472E-02
DAV:   5    -0.192079722711E+03   -0.63516E-04   -0.26486E-04  7240   0.118E-01
  15 F= -.19207972E+03 E0= -.19198134E+03  d E =0.810042E-02
       N       E                     dE             d eps       ncg     rms          rms(c)
DAV:   1    -0.192110790818E+03   -0.31132E-01   -0.21104E+00  8160   0.307E+00    0.313E-01
DAV:   2    -0.192116322231E+03   -0.55314E-02   -0.52592E-02 11600   0.881E-01    0.606E-01
DAV:   3    -0.192113618342E+03    0.27039E-02   -0.11639E-02 12560   0.792E-01    0.325E-01
DAV:   4    -0.192112451724E+03    0.11666E-02   -0.24437E-03 11320   0.317E-01    0.123E-01
DAV:   5    -0.192112539053E+03   -0.87329E-04   -0.14430E-03 12280   0.221E-01    0.191E-01
DAV:   6    -0.192112468403E+03    0.70650E-04   -0.14995E-03 10160   0.280E-01    0.175E-01
DAV:   7    -0.192112267696E+03    0.20071E-03   -0.68849E-04  8320   0.181E-01    0.102E-01
DAV:   8    -0.192112161084E+03    0.10661E-03   -0.17289E-04  6480   0.108E-01    0.184E-02
DAV:   9    -0.192112161988E+03   -0.90380E-06   -0.29109E-05  6800   0.251E-02
  16 F= -.19211216E+03 E0= -.19201540E+03  d E =-.324393E-01
       N       E                     dE             d eps       ncg     rms          rms(c)
DAV:   1    -0.192136436197E+03   -0.24275E-01   -0.11887E+00  8160   0.231E+00    0.220E-01
DAV:   2    -0.192138444759E+03   -0.20086E-02   -0.29717E-02 11800   0.510E-01    0.221E-01
DAV:   3    -0.192139187166E+03   -0.74241E-03   -0.42817E-03 12200   0.469E-01    0.365E-01
DAV:   4    -0.192138113118E+03    0.10740E-02   -0.26232E-03 10040   0.371E-01    0.191E-01
DAV:   5    -0.192137925267E+03    0.18785E-03   -0.10775E-03  9560   0.245E-01    0.138E-01
DAV:   6    -0.192137842604E+03    0.82663E-04   -0.67162E-04  9960   0.169E-01
  17 F= -.19213784E+03 E0= -.19204291E+03  d E =-.256806E-01
       N       E                     dE             d eps       ncg     rms          rms(c)
DAV:   1    -0.192125385502E+03    0.12540E-01   -0.25472E-01  8160   0.109E+00    0.154E-01
DAV:   2    -0.192128945612E+03   -0.35601E-02   -0.12343E-02 12760   0.642E-01    0.563E-01
DAV:   3    -0.192125647208E+03    0.32984E-02   -0.49748E-03 11400   0.568E-01    0.843E-02
DAV:   4    -0.192125652200E+03   -0.49922E-05   -0.37724E-04  8640   0.117E-01
  18 F= -.19212565E+03 E0= -.19202978E+03  d E =0.121904E-01
       N       E                     dE             d eps       ncg     rms          rms(c)
DAV:   1    -0.192120343030E+03    0.53042E-02   -0.79044E-01  8160   0.195E+00    0.319E-01
DAV:   2    -0.192119452568E+03    0.89046E-03   -0.22302E-02 11880   0.478E-01    0.257E-01
DAV:   3    -0.192120073097E+03   -0.62053E-03   -0.57715E-03 11360   0.565E-01    0.389E-01
DAV:   4    -0.192118767893E+03    0.13052E-02   -0.46498E-03 11240   0.524E-01    0.242E-01
DAV:   5    -0.192118773039E+03   -0.51467E-05   -0.26425E-03 11440   0.361E-01    0.277E-01
DAV:   6    -0.192118088527E+03    0.68451E-03   -0.14831E-03  9520   0.291E-01    0.960E-02
DAV:   7    -0.192118096095E+03   -0.75677E-05   -0.39737E-04  8200   0.135E-01
  19 F= -.19211810E+03 E0= -.19202152E+03  d E =0.755611E-02
       N       E                     dE             d eps       ncg     rms          rms(c)
DAV:   1    -0.192162819992E+03   -0.44731E-01   -0.37778E+00  8160   0.423E+00    0.502E-01
DAV:   2    -0.192167205498E+03   -0.43855E-02   -0.10472E-01 11640   0.966E-01    0.491E-01
DAV:   3    -0.192171499037E+03   -0.42935E-02   -0.20241E-02 12080   0.109E+00    0.829E-01
DAV:   4    -0.192164450104E+03    0.70489E-02   -0.11577E-02 11120   0.831E-01    0.310E-01
DAV:   5    -0.192165547264E+03   -0.10972E-02   -0.63754E-03 10280   0.559E-01    0.491E-01
DAV:   6    -0.192163703081E+03    0.18442E-02   -0.50232E-03 10840   0.489E-01    0.187E-01
DAV:   7    -0.192163517093E+03    0.18599E-03   -0.13051E-03  9760   0.274E-01    0.140E-01
DAV:   8    -0.192163270032E+03    0.24706E-03   -0.38071E-04  9320   0.157E-01    0.317E-02
DAV:   9    -0.192163257232E+03    0.12800E-04   -0.50443E-05  6200   0.357E-02
  20 F= -.19216326E+03 E0= -.19206954E+03  d E =-.451611E-01
       N       E                     dE             d eps       ncg     rms          rms(c)
DAV:   1    -0.192201731724E+03   -0.38462E-01   -0.25989E+00  8160   0.345E+00    0.370E-01
DAV:   2    -0.192207539548E+03   -0.58078E-02   -0.71270E-02 11400   0.883E-01    0.583E-01
DAV:   3    -0.192207041264E+03    0.49828E-03   -0.14008E-02 12480   0.852E-01    0.549E-01
DAV:   4    -0.192204314986E+03    0.27263E-02   -0.52743E-03 11600   0.491E-01    0.195E-01
DAV:   5    -0.192204380364E+03   -0.65378E-04   -0.22257E-03 11600   0.350E-01    0.235E-01
DAV:   6    -0.192203945595E+03    0.43477E-03   -0.17178E-03 12080   0.328E-01    0.115E-01
DAV:   7    -0.192203748119E+03    0.19748E-03   -0.42449E-04  8920   0.133E-01    0.572E-02
DAV:   8    -0.192203724237E+03    0.23881E-04   -0.10526E-04  6880   0.846E-02
  21 F= -.19220372E+03 E0= -.19211295E+03  d E =-.404670E-01
       N       E                     dE             d eps       ncg     rms          rms(c)
DAV:   1    -0.192214579031E+03   -0.10831E-01   -0.17420E-01  8160   0.894E-01    0.102E-01
DAV:   2    -0.192215215071E+03   -0.63604E-03   -0.52707E-03 11400   0.277E-01    0.219E-01
DAV:   3    -0.192214880969E+03    0.33410E-03   -0.12555E-03 10920   0.256E-01    0.116E-01
DAV:   4    -0.192214816015E+03    0.64954E-04   -0.31113E-04  8360   0.126E-01
  22 F= -.19221482E+03 E0= -.19212477E+03  d E =-.110918E-01
       N       E                     dE             d eps       ncg     rms          rms(c)
DAV:   1    -0.192229768591E+03   -0.14888E-01   -0.43706E-01  8160   0.144E+00    0.208E-01
DAV:   2    -0.192232390516E+03   -0.26219E-02   -0.17422E-02 11440   0.622E-01    0.523E-01
DAV:   3    -0.192230196291E+03    0.21942E-02   -0.56362E-03 11480   0.570E-01    0.212E-01
DAV:   4    -0.192229962448E+03    0.23384E-03   -0.13531E-03  9680   0.252E-01    0.164E-01
DAV:   5    -0.192229875685E+03    0.86762E-04   -0.10726E-03 10080   0.269E-01    0.149E-01
DAV:   6    -0.192229683341E+03    0.19234E-03   -0.55949E-04  8760   0.170E-01    0.733E-02
DAV:   7    -0.192229679980E+03    0.33609E-05   -0.25682E-04  8480   0.131E-01
  23 F= -.19222968E+03 E0= -.19214098E+03  d E =-.148640E-01
       N       E                     dE             d eps       ncg     rms          rms(c)
DAV:   1    -0.192256958173E+03   -0.27275E-01   -0.94465E-01  8160   0.212E+00    0.297E-01
DAV:   2    -0.192258907901E+03   -0.19497E-02   -0.29021E-02 11240   0.648E-01    0.459E-01
DAV:   3    -0.192258172876E+03    0.73502E-03   -0.88423E-03 11840   0.723E-01    0.410E-01
DAV:   4    -0.192256833372E+03    0.13395E-02   -0.36520E-03 11240   0.424E-01    0.232E-01
DAV:   5    -0.192256746459E+03    0.86913E-04   -0.20719E-03 10120   0.370E-01    0.238E-01
DAV:   6    -0.192256210149E+03    0.53631E-03   -0.11253E-03  9520   0.245E-01    0.715E-02
DAV:   7    -0.192256193776E+03    0.16373E-04   -0.26316E-04  7560   0.109E-01
  24 F= -.19225619E+03 E0= -.19216978E+03  d E =-.265138E-01
       N       E                     dE             d eps       ncg     rms          rms(c)
DAV:   1    -0.192302167011E+03   -0.45957E-01   -0.29807E+00  8160   0.372E+00    0.445E-01
DAV:   2    -0.192317076533E+03   -0.14910E-01   -0.96549E-02 11400   0.135E+00    0.105E+00
DAV:   3    -0.192306743987E+03    0.10333E-01   -0.22908E-02 12120   0.120E+00    0.405E-01
DAV:   4    -0.192306432261E+03    0.31173E-03   -0.57367E-03 11400   0.544E-01    0.402E-01
DAV:   5    -0.192305031463E+03    0.14008E-02   -0.35665E-03 10640   0.493E-01    0.211E-01
DAV:   6    -0.192304929094E+03    0.10237E-03   -0.17732E-03 11440   0.306E-01    0.176E-01
DAV:   7    -0.192304804692E+03    0.12440E-03   -0.11708E-03 10760   0.293E-01    0.150E-01
DAV:   8    -0.192304504310E+03    0.30038E-03   -0.35786E-04  8840   0.150E-01    0.204E-02
DAV:   9    -0.192304507453E+03   -0.31430E-05   -0.45037E-05  6240   0.247E-02
  25 F= -.19230451E+03 E0= -.19222149E+03  d E =-.483137E-01
       N       E                     dE             d eps       ncg     rms          rms(c)
DAV:   1    -0.192312128161E+03   -0.76239E-02   -0.74396E-02  8160   0.590E-01    0.774E-02
DAV:   2    -0.192312515439E+03   -0.38728E-03   -0.26480E-03 11240   0.226E-01    0.182E-01
DAV:   3    -0.192312227386E+03    0.28805E-03   -0.74583E-04  9960   0.213E-01    0.763E-02
DAV:   4    -0.192312202036E+03    0.25350E-04   -0.16064E-04  6640   0.881E-02
  26 F= -.19231220E+03 E0= -.19222957E+03  d E =-.769458E-02
       N       E                     dE             d eps       ncg     rms          rms(c)
DAV:   1    -0.192283777651E+03    0.28450E-01   -0.14056E+00  8160   0.261E+00    0.423E-01
DAV:   2    -0.192290179125E+03   -0.64015E-02   -0.54708E-02 11840   0.110E+00    0.844E-01
DAV:   3    -0.192284025770E+03    0.61534E-02   -0.20039E-02 12320   0.116E+00    0.427E-01
DAV:   4    -0.192281863321E+03    0.21624E-02   -0.44368E-03 10920   0.436E-01    0.155E-01
DAV:   5    -0.192282072390E+03   -0.20907E-03   -0.22579E-03 11600   0.316E-01    0.271E-01
DAV:   6    -0.192281501171E+03    0.57122E-03   -0.16511E-03 10360   0.319E-01    0.131E-01
DAV:   7    -0.192281411651E+03    0.89520E-04   -0.44212E-04  8480   0.154E-01
  27 F= -.19228141E+03 E0= -.19219727E+03  d E =0.307904E-01
       N       E                     dE             d eps       ncg     rms          rms(c)
DAV:   1    -0.192278444248E+03    0.30569E-02   -0.12269E-02  8160   0.267E-01    0.536E-02
DAV:   2    -0.192278712530E+03   -0.26828E-03   -0.85990E-04 11840   0.195E-01    0.145E-01
DAV:   3    -0.192278448801E+03    0.26373E-03   -0.39012E-04  8880   0.176E-01    0.388E-02
DAV:   4    -0.192278447837E+03    0.96408E-06   -0.53359E-05  5920   0.521E-02
  28 F= -.19227845E+03 E0= -.19219421E+03  d E =0.296381E-02
       N       E                     dE             d eps       ncg     rms          rms(c)
DAV:   1    -0.192300437554E+03   -0.21989E-01   -0.11022E+00  8160   0.223E+00    0.294E-01
DAV:   2    -0.192312455287E+03   -0.12018E-01   -0.52375E-02 11120   0.125E+00    0.977E-01
DAV:   3    -0.192302548708E+03    0.99066E-02   -0.15408E-02 12160   0.101E+00    0.182E-01
DAV:   4    -0.192302810383E+03   -0.26167E-03   -0.17702E-03 11320   0.307E-01    0.266E-01
DAV:   5    -0.192302167908E+03    0.64247E-03   -0.12810E-03  9840   0.303E-01    0.107E-01
DAV:   6    -0.192302148434E+03    0.19474E-04   -0.51119E-04  9960   0.131E-01
  29 F= -.19230215E+03 E0= -.19221930E+03  d E =-.237006E-01
       N       E                     dE             d eps       ncg     rms          rms(c)
DAV:   1    -0.192304238307E+03   -0.20704E-02   -0.68534E-01  8160   0.187E+00    0.422E-01
DAV:   2    -0.192311184443E+03   -0.69461E-02   -0.45282E-02 10440   0.120E+00    0.107E+00
DAV:   3    -0.192301916216E+03    0.92682E-02   -0.23491E-02 11520   0.118E+00    0.396E-01
DAV:   4    -0.192301304834E+03    0.61138E-03   -0.59636E-03 11880   0.584E-01    0.403E-01
DAV:   5    -0.192300238735E+03    0.10661E-02   -0.47276E-03 10040   0.555E-01    0.283E-01
DAV:   6    -0.192299495212E+03    0.74352E-03   -0.22988E-03 11240   0.337E-01    0.169E-01
DAV:   7    -0.192299206779E+03    0.28843E-03   -0.69678E-04  9520   0.211E-01    0.507E-02
DAV:   8    -0.192299180134E+03    0.26646E-04   -0.66197E-05  6360   0.615E-02
  30 F= -.19229918E+03 E0= -.19221566E+03  d E =0.296830E-02
       N       E                     dE             d eps       ncg     rms          rms(c)
DAV:   1    -0.192332459655E+03   -0.33253E-01   -0.16155E+00  8160   0.272E+00    0.344E-01
DAV:   2    -0.192343162557E+03   -0.10703E-01   -0.57287E-02 11240   0.121E+00    0.895E-01
DAV:   3    -0.192334708884E+03    0.84537E-02   -0.14461E-02 11440   0.992E-01    0.266E-01
DAV:   4    -0.192335102422E+03   -0.39354E-03   -0.36614E-03 11240   0.466E-01    0.350E-01
DAV:   5    -0.192333947560E+03    0.11549E-02   -0.24042E-03 10320   0.406E-01    0.153E-01
DAV:   6    -0.192333981153E+03   -0.33594E-04   -0.10299E-03 10400   0.239E-01    0.161E-01
DAV:   7    -0.192333835647E+03    0.14551E-03   -0.79804E-04 10400   0.241E-01    0.108E-01
DAV:   8    -0.192333677772E+03    0.15787E-03   -0.19863E-04  7280   0.995E-02    0.153E-02
DAV:   9    -0.192333681025E+03   -0.32523E-05   -0.31814E-05  6320   0.201E-02
  31 F= -.19233368E+03 E0= -.19225267E+03  d E =-.345009E-01
       N       E                     dE             d eps       ncg     rms          rms(c)
DAV:   1    -0.192363744733E+03   -0.30067E-01   -0.13016E+00  8160   0.246E+00    0.317E-01
DAV:   2    -0.192371452869E+03   -0.77081E-02   -0.44963E-02 11240   0.101E+00    0.777E-01
DAV:   3    -0.192365403072E+03    0.60498E-02   -0.12531E-02 11920   0.910E-01    0.265E-01
DAV:   4    -0.192365264018E+03    0.13905E-03   -0.27376E-03 11520   0.363E-01    0.267E-01
DAV:   5    -0.192364643856E+03    0.62016E-03   -0.17312E-03 10400   0.340E-01    0.151E-01
DAV:   6    -0.192364546391E+03    0.97464E-04   -0.79577E-04 10120   0.209E-01
  32 F= -.19236455E+03 E0= -.19228512E+03  d E =-.308654E-01
       N       E                     dE             d eps       ncg     rms          rms(c)
DAV:   1    -0.192443836858E+03   -0.79193E-01   -0.18259E+01  8160   0.933E+00    0.113E+00
DAV:   2    -0.192533188719E+03   -0.89352E-01   -0.61473E-01 11720   0.351E+00    0.235E+00
DAV:   3    -0.192470762662E+03    0.62426E-01   -0.12902E-01 11960   0.301E+00    0.875E-01
DAV:   4    -0.192467041076E+03    0.37216E-02   -0.29451E-02 12320   0.129E+00    0.807E-01
DAV:   5    -0.192460757762E+03    0.62833E-02   -0.17922E-02 12320   0.118E+00    0.452E-01
DAV:   6    -0.192459673168E+03    0.10846E-02   -0.85223E-03 12160   0.599E-01    0.331E-01
DAV:   7    -0.192459409606E+03    0.26356E-03   -0.52482E-03 12080   0.578E-01    0.375E-01
DAV:   8    -0.192457874940E+03    0.15347E-02   -0.20343E-03 11800   0.368E-01    0.543E-02
DAV:   9    -0.192457850929E+03    0.24011E-04   -0.20737E-04  7440   0.569E-02
  33 F= -.19245785E+03 E0= -.19238186E+03  d E =-.933045E-01
       N       E                     dE             d eps       ncg     rms          rms(c)
DAV:   1    -0.192476995789E+03   -0.19121E-01   -0.25661E+00  8160   0.341E+00    0.409E-01
DAV:   2    -0.192488957924E+03   -0.11962E-01   -0.10260E-01 11360   0.120E+00    0.724E-01
DAV:   3    -0.192483726316E+03    0.52316E-02   -0.18194E-02 12040   0.111E+00    0.409E-01
DAV:   4    -0.192482422274E+03    0.13040E-02   -0.48459E-03 12400   0.512E-01    0.269E-01
DAV:   5    -0.192481889168E+03    0.53311E-03   -0.23918E-03 12040   0.409E-01    0.198E-01
DAV:   6    -0.192481578068E+03    0.31110E-03   -0.12319E-03 10600   0.241E-01    0.106E-01
DAV:   7    -0.192481634891E+03   -0.56823E-04   -0.72705E-04 10240   0.190E-01
  34 F= -.19248163E+03 E0= -.19240614E+03  d E =-.237840E-01
       N       E                     dE             d eps       ncg     rms          rms(c)
DAV:   1    -0.192490539367E+03   -0.89613E-02   -0.20291E+00  8160   0.302E+00    0.343E-01
DAV:   2    -0.192499285262E+03   -0.87459E-02   -0.89948E-02 11320   0.103E+00    0.494E-01
DAV:   3    -0.192497515778E+03    0.17695E-02   -0.12069E-02 12200   0.877E-01    0.369E-01
DAV:   4    -0.192496132457E+03    0.13833E-02   -0.33032E-03 12040   0.442E-01    0.181E-01
DAV:   5    -0.192495962660E+03    0.16980E-03   -0.13175E-03 10320   0.301E-01    0.172E-01
DAV:   6    -0.192495789496E+03    0.17316E-03   -0.96434E-04 10480   0.239E-01    0.104E-01
DAV:   7    -0.192495710109E+03    0.79387E-04   -0.46613E-04  9360   0.127E-01
  35 F= -.19249571E+03 E0= -.19242027E+03  d E =-.140752E-01
       N       E                     dE             d eps       ncg     rms          rms(c)
DAV:   1    -0.192500744892E+03   -0.49554E-02   -0.86273E+00  8160   0.638E+00    0.816E-01
DAV:   2    -0.192548355939E+03   -0.47611E-01   -0.31286E-01 11560   0.265E+00    0.179E+00
DAV:   3    -0.192512828894E+03    0.35527E-01   -0.82506E-02 12200   0.237E+00    0.638E-01
DAV:   4    -0.192510286412E+03    0.25425E-02   -0.15496E-02 12040   0.902E-01    0.524E-01
DAV:   5    -0.192507565635E+03    0.27208E-02   -0.83306E-03 11680   0.834E-01    0.350E-01
DAV:   6    -0.192506632534E+03    0.93310E-03   -0.45255E-03 11880   0.483E-01    0.223E-01
DAV:   7    -0.192506659972E+03   -0.27437E-04   -0.29213E-03 11760   0.406E-01    0.266E-01
DAV:   8    -0.192505868960E+03    0.79101E-03   -0.12496E-03 10120   0.281E-01    0.497E-02
DAV:   9    -0.192505841880E+03    0.27080E-04   -0.91152E-05  5960   0.447E-02
  36 F= -.19250584E+03 E0= -.19243073E+03  d E =-.101318E-01
       N       E                     dE             d eps       ncg     rms          rms(c)
DAV:   1    -0.192508274799E+03   -0.24058E-02   -0.10875E+00  8160   0.223E+00    0.312E-01
DAV:   2    -0.192517783763E+03   -0.95090E-02   -0.39944E-02 10960   0.117E+00    0.899E-01
DAV:   3    -0.192509076286E+03    0.87075E-02   -0.15788E-02 11840   0.106E+00    0.208E-01
DAV:   4    -0.192509084651E+03   -0.83649E-05   -0.22065E-03 11480   0.337E-01    0.225E-01
DAV:   5    -0.192508522820E+03    0.56183E-03   -0.13297E-03 10320   0.311E-01    0.113E-01
DAV:   6    -0.192508445227E+03    0.77592E-04   -0.58860E-04 10400   0.156E-01
  37 F= -.19250845E+03 E0= -.19243357E+03  d E =-.260335E-02
       N       E                     dE             d eps       ncg     rms          rms(c)
DAV:   1    -0.192509510682E+03   -0.98786E-03   -0.34082E-01  8160   0.126E+00    0.169E-01
DAV:   2    -0.192513150545E+03   -0.36399E-02   -0.17120E-02 12320   0.647E-01    0.510E-01
DAV:   3    -0.192510269443E+03    0.28811E-02   -0.52232E-03 11520   0.595E-01    0.119E-01
DAV:   4    -0.192510121551E+03    0.14789E-03   -0.52231E-04  9920   0.126E-01    0.549E-02
DAV:   5    -0.192510078823E+03    0.42729E-04   -0.13712E-04  7480   0.701E-02
  38 F= -.19251008E+03 E0= -.19243530E+03  d E =-.163360E-02
       N       E                     dE             d eps       ncg     rms          rms(c)
DAV:   1    -0.192509748094E+03    0.37346E-03   -0.45167E-02  8160   0.462E-01    0.777E-02
DAV:   2    -0.192510738011E+03   -0.98992E-03   -0.30961E-03 11440   0.359E-01    0.279E-01
DAV:   3    -0.192509799250E+03    0.93876E-03   -0.13461E-03  9760   0.315E-01    0.492E-02
DAV:   4    -0.192509797414E+03    0.18364E-05   -0.86424E-05  5720   0.761E-02
  39 F= -.19250980E+03 E0= -.19243507E+03  d E =0.281409E-03
