<?xml version="1.0" encoding="ISO-8859-1"?>
<modeling>
 <generator>
  <i name="program" type="string">vasp </i>
  <i name="version" type="string">5.4.1  </i>
  <i name="subversion" type="string">05Feb16 (build Jul 05 2020 17:13:04) complex                          parallel </i>
  <i name="platform" type="string">IFC91_ompi </i>
  <i name="date" type="string">2024 04 27 </i>
  <i name="time" type="string">18:45:14 </i>
 </generator>
 <incar>
  <i type="int" name="ISTART">     0</i>
  <i type="string" name="PREC">normal</i>
  <i type="string" name="ALGO"> Normal</i>
  <i type="int" name="ISPIN">     1</i>
  <i type="int" name="ICHARG">     2</i>
  <i type="int" name="IBRION">     1</i>
  <i type="int" name="NSW">   100</i>
  <i type="int" name="ISIF">     3</i>
  <i type="int" name="ISYM">     0</i>
  <i name="SYMPREC">      0.00000001</i>
  <i name="POTIM">      0.50000000</i>
  <i type="logical" name="LREAL"> F  </i>
  <i type="logical" name="LPLANE"> F  </i>
  <i type="int" name="ISMEAR">     0</i>
  <i type="logical" name="LWAVE"> F  </i>
  <i type="logical" name="LCHARG"> F  </i>
  <v type="int" name="KPOINT_BSE">    -1     0     0     0</v>
 </incar>
 <kpoints>
  <generation param="Gamma">
   <v type="int" name="divisions">       8        8        1 </v>
   <v name="usershift">      0.00000000       0.00000000       0.00000000 </v>
   <v name="genvec1">      0.12500000       0.00000000       0.00000000 </v>
   <v name="genvec2">     -0.00000000       0.12500000       0.00000000 </v>
   <v name="genvec3">      0.00000000       0.00000000       1.00000000 </v>
   <v name="shift">      0.00000000       0.00000000       0.00000000 </v>
  </generation>
  <varray name="kpointlist" >
   <v>       0.00000000       0.00000000       0.00000000 </v>
   <v>       0.12500000       0.00000000       0.00000000 </v>
   <v>       0.25000000       0.00000000       0.00000000 </v>
   <v>       0.37500000       0.00000000       0.00000000 </v>
   <v>       0.50000000       0.00000000       0.00000000 </v>
   <v>       0.00000000       0.12500000       0.00000000 </v>
   <v>       0.12500000       0.12500000       0.00000000 </v>
   <v>       0.25000000       0.12500000       0.00000000 </v>
   <v>       0.37500000       0.12500000       0.00000000 </v>
   <v>       0.50000000       0.12500000       0.00000000 </v>
   <v>      -0.37500000       0.12500000       0.00000000 </v>
   <v>      -0.25000000       0.12500000       0.00000000 </v>
   <v>      -0.12500000       0.12500000       0.00000000 </v>
   <v>       0.00000000       0.25000000       0.00000000 </v>
   <v>       0.12500000       0.25000000       0.00000000 </v>
   <v>       0.25000000       0.25000000       0.00000000 </v>
   <v>       0.37500000       0.25000000       0.00000000 </v>
   <v>       0.50000000       0.25000000       0.00000000 </v>
   <v>      -0.37500000       0.25000000       0.00000000 </v>
   <v>      -0.25000000       0.25000000       0.00000000 </v>
   <v>      -0.12500000       0.25000000       0.00000000 </v>
   <v>      -0.00000000       0.37500000       0.00000000 </v>
   <v>       0.12500000       0.37500000       0.00000000 </v>
   <v>       0.25000000       0.37500000       0.00000000 </v>
   <v>       0.37500000       0.37500000       0.00000000 </v>
   <v>       0.50000000       0.37500000       0.00000000 </v>
   <v>      -0.37500000       0.37500000       0.00000000 </v>
   <v>      -0.25000000       0.37500000       0.00000000 </v>
   <v>      -0.12500000       0.37500000       0.00000000 </v>
   <v>       0.00000000       0.50000000       0.00000000 </v>
   <v>       0.12500000       0.50000000       0.00000000 </v>
   <v>       0.25000000       0.50000000       0.00000000 </v>
   <v>       0.37500000       0.50000000       0.00000000 </v>
   <v>       0.50000000       0.50000000       0.00000000 </v>
  </varray>
  <varray name="weights" >
   <v>       0.01562500 </v>
   <v>       0.03125000 </v>
   <v>       0.03125000 </v>
   <v>       0.03125000 </v>
   <v>       0.01562500 </v>
   <v>       0.03125000 </v>
   <v>       0.03125000 </v>
   <v>       0.03125000 </v>
   <v>       0.03125000 </v>
   <v>       0.03125000 </v>
   <v>       0.03125000 </v>
   <v>       0.03125000 </v>
   <v>       0.03125000 </v>
   <v>       0.03125000 </v>
   <v>       0.03125000 </v>
   <v>       0.03125000 </v>
   <v>       0.03125000 </v>
   <v>       0.03125000 </v>
   <v>       0.03125000 </v>
   <v>       0.03125000 </v>
   <v>       0.03125000 </v>
   <v>       0.03125000 </v>
   <v>       0.03125000 </v>
   <v>       0.03125000 </v>
   <v>       0.03125000 </v>
   <v>       0.03125000 </v>
   <v>       0.03125000 </v>
   <v>       0.03125000 </v>
   <v>       0.03125000 </v>
   <v>       0.01562500 </v>
   <v>       0.03125000 </v>
   <v>       0.03125000 </v>
   <v>       0.03125000 </v>
   <v>       0.01562500 </v>
  </varray>
 </kpoints>
 <parameters>
  <separator name="general" >
   <i type="string" name="SYSTEM">unknown system</i>
   <i type="logical" name="LCOMPAT"> F  </i>
  </separator>
  <separator name="electronic" >
   <i type="string" name="PREC">normal</i>
   <i name="ENMAX">    280.00000000</i>
   <i name="ENAUG">    373.43800000</i>
   <i name="EDIFF">      0.00010000</i>
   <i type="int" name="IALGO">    38</i>
   <i type="int" name="IWAVPR">    11</i>
   <i type="int" name="NBANDS">   120</i>
   <i name="NELECT">    159.00000000</i>
   <i type="int" name="TURBO">     0</i>
   <i type="int" name="IRESTART">     0</i>
   <i type="int" name="NREBOOT">     0</i>
   <i type="int" name="NMIN">     0</i>
   <i name="EREF">      0.00000000</i>
   <separator name="electronic smearing" >
    <i type="int" name="ISMEAR">     0</i>
    <i name="SIGMA">      0.20000000</i>
    <i name="KSPACING">      0.50000000</i>
    <i type="logical" name="KGAMMA"> T  </i>
   </separator>
   <separator name="electronic projectors" >
    <i type="logical" name="LREAL"> F  </i>
    <v name="ROPT">      0.00000000      0.00000000      0.00000000      0.00000000</v>
    <i type="int" name="LMAXPAW">  -100</i>
    <i type="int" name="LMAXMIX">     2</i>
    <i type="logical" name="NLSPLINE"> F  </i>
   </separator>
   <separator name="electronic startup" >
    <i type="int" name="ISTART">     0</i>
    <i type="int" name="ICHARG">     2</i>
    <i type="int" name="INIWAV">     1</i>
   </separator>
   <separator name="electronic spin" >
    <i type="int" name="ISPIN">     1</i>
    <i type="logical" name="LNONCOLLINEAR"> F  </i>
    <v name="MAGMOM">      1.00000000      1.00000000      1.00000000      1.00000000      1.00000000      1.00000000      1.00000000      1.00000000      1.00000000      1.00000000      1.00000000      1.00000000      1.00000000      1.00000000      1.00000000      1.00000000      1.00000000      1.00000000      1.00000000      1.00000000
      1.00000000      1.00000000      1.00000000      1.00000000      1.00000000      1.00000000      1.00000000</v>
    <i name="NUPDOWN">     -1.00000000</i>
    <i type="logical" name="LSORBIT"> F  </i>
    <v name="SAXIS">      0.00000000      0.00000000      1.00000000</v>
    <i type="logical" name="LSPIRAL"> F  </i>
    <v name="QSPIRAL">      0.00000000      0.00000000      0.00000000</v>
    <i type="logical" name="LZEROZ"> F  </i>
   </separator>
   <separator name="electronic exchange-correlation" >
    <i type="logical" name="LASPH"> F  </i>
    <i type="logical" name="LMETAGGA"> F  </i>
   </separator>
   <separator name="electronic convergence" >
    <i type="int" name="NELM">    60</i>
    <i type="int" name="NELMDL">    -5</i>
    <i type="int" name="NELMIN">     2</i>
    <i name="ENINI">    280.00000000</i>
    <separator name="electronic convergence detail" >
     <i type="logical" name="LDIAG"> T  </i>
     <i type="logical" name="LSUBROT"> F  </i>
     <i name="WEIMIN">      0.00100000</i>
     <i name="EBREAK">      0.00000021</i>
     <i name="DEPER">      0.30000000</i>
     <i type="int" name="NRMM">     4</i>
     <i name="TIME">      0.40000000</i>
    </separator>
   </separator>
   <separator name="electronic mixer" >
    <i name="AMIX">      0.40000000</i>
    <i name="BMIX">      1.00000000</i>
    <i name="AMIN">      0.10000000</i>
    <i name="AMIX_MAG">      1.60000000</i>
    <i name="BMIX_MAG">      1.00000000</i>
    <separator name="electronic mixer details" >
     <i type="int" name="IMIX">     4</i>
     <i type="logical" name="MIXFIRST"> F  </i>
     <i type="int" name="MAXMIX">   -45</i>
     <i name="WC">    100.00000000</i>
     <i type="int" name="INIMIX">     1</i>
     <i type="int" name="MIXPRE">     1</i>
     <i type="int" name="MREMOVE">     5</i>
    </separator>
   </separator>
   <separator name="electronic dipolcorrection" >
    <i type="logical" name="LDIPOL"> F  </i>
    <i type="logical" name="LMONO"> F  </i>
    <i type="int" name="IDIPOL">     0</i>
    <i name="EPSILON">      1.00000000</i>
    <v name="DIPOL">   -100.00000000   -100.00000000   -100.00000000</v>
    <i name="EFIELD">      0.00000000</i>
   </separator>
  </separator>
  <separator name="grids" >
   <i type="int" name="NGX">    42</i>
   <i type="int" name="NGY">    42</i>
   <i type="int" name="NGZ">   126</i>
   <i type="int" name="NGXF">    84</i>
   <i type="int" name="NGYF">    84</i>
   <i type="int" name="NGZF">   252</i>
   <i type="logical" name="ADDGRID"> F  </i>
  </separator>
  <separator name="ionic" >
   <i type="int" name="NSW">   100</i>
   <i type="int" name="IBRION">     1</i>
   <i type="int" name="ISIF">     3</i>
   <i name="PSTRESS">      0.00000000</i>
   <i name="EDIFFG">      0.00100000</i>
   <i type="int" name="NFREE">     0</i>
   <i name="POTIM">      0.50000000</i>
   <i name="SMASS">     -3.00000000</i>
   <i name="SCALEE">      1.00000000</i>
  </separator>
  <separator name="ionic md" >
   <i name="TEBEG">      0.00010000</i>
   <i name="TEEND">      0.00010000</i>
   <i type="int" name="NBLOCK">     1</i>
   <i type="int" name="KBLOCK">   100</i>
   <i type="int" name="NPACO">   256</i>
   <i name="APACO">     16.00000000</i>
  </separator>
  <separator name="symmetry" >
   <i type="int" name="ISYM">     0</i>
   <i name="SYMPREC">      0.00000001</i>
  </separator>
  <separator name="dos" >
   <i type="logical" name="LORBIT"> F  </i>
   <v name="RWIGS">     -1.00000000     -1.00000000     -1.00000000     -1.00000000</v>
   <i type="int" name="NEDOS">   301</i>
   <i name="EMIN">     10.00000000</i>
   <i name="EMAX">    -10.00000000</i>
   <i name="EFERMI">      0.00000000</i>
  </separator>
  <separator name="writing" >
   <i type="int" name="NWRITE">     2</i>
   <i type="logical" name="LWAVE"> F  </i>
   <i type="logical" name="LCHARG"> F  </i>
   <i type="logical" name="LPARD"> F  </i>
   <i type="logical" name="LVTOT"> F  </i>
   <i type="logical" name="LVHAR"> F  </i>
   <i type="logical" name="LELF"> F  </i>
   <i type="logical" name="LOPTICS"> F  </i>
   <v name="STM">      0.00000000      0.00000000      0.00000000      0.00000000      0.00000000      0.00000000      0.00000000</v>
  </separator>
  <separator name="performance" >
   <i type="int" name="NPAR">    40</i>
   <i type="int" name="NSIM">     4</i>
   <i type="int" name="NBLK">    -1</i>
   <i type="logical" name="LPLANE"> F  </i>
   <i type="logical" name="LSCALAPACK"> T  </i>
   <i type="logical" name="LSCAAWARE"> F  </i>
   <i type="logical" name="LSCALU"> F  </i>
   <i type="logical" name="LASYNC"> F  </i>
   <i type="logical" name="LORBITALREAL"> F  </i>
  </separator>
  <separator name="miscellaneous" >
   <i type="int" name="IDIOT">     3</i>
   <i type="logical" name="LMUSIC"> F  </i>
   <v name="POMASS">     50.94100000     95.94000000    183.85000000     32.06600000</v>
   <v name="DARWINR">      0.00000000      0.00000000      0.00000000      0.00000000</v>
   <v name="DARWINV">      1.00000000      1.00000000      1.00000000      1.00000000</v>
   <i type="logical" name="LCORR"> T  </i>
  </separator>
  <i type="logical" name="GGA_COMPAT"> T  </i>
  <i type="logical" name="LBERRY"> F  </i>
  <i type="int" name="ICORELEVEL">     0</i>
  <i type="logical" name="LDAU"> F  </i>
  <i type="int" name="I_CONSTRAINED_M">     0</i>
  <separator name="electronic exchange-correlation" >
   <i type="string" name="GGA">--</i>
   <i type="int" name="VOSKOWN">     0</i>
   <i type="logical" name="LHFCALC"> F  </i>
   <i type="string" name="PRECFOCK"></i>
   <i type="logical" name="LSYMGRAD"> F  </i>
   <i type="logical" name="LHFONE"> F  </i>
   <i type="logical" name="LRHFCALC"> F  </i>
   <i type="logical" name="LTHOMAS"> F  </i>
   <i type="logical" name="LMODELHF"> F  </i>
   <i name="ENCUT4O">     -1.00000000</i>
   <i type="int" name="EXXOEP">     0</i>
   <i type="int" name="FOURORBIT">     0</i>
   <i name="AEXX">      0.00000000</i>
   <i name="HFALPHA">      0.00000000</i>
   <i name="MCALPHA">      0.00000000</i>
   <i name="ALDAX">      1.00000000</i>
   <i name="AGGAX">      1.00000000</i>
   <i name="ALDAC">      1.00000000</i>
   <i name="AGGAC">      1.00000000</i>
   <i type="int" name="NKREDX">     1</i>
   <i type="int" name="NKREDY">     1</i>
   <i type="int" name="NKREDZ">     1</i>
   <i type="logical" name="SHIFTRED"> F  </i>
   <i type="logical" name="ODDONLY"> F  </i>
   <i type="logical" name="EVENONLY"> F  </i>
   <i type="int" name="LMAXFOCK">     0</i>
   <i type="int" name="NMAXFOCKAE">     0</i>
   <i type="logical" name="LFOCKAEDFT"> F  </i>
   <i name="HFSCREEN">      0.00000000</i>
   <i name="HFSCREENC">      0.00000000</i>
   <i type="int" name="NBANDSGWLOW">     0</i>
  </separator>
  <separator name="vdW DFT" >
   <i type="logical" name="LUSE_VDW"> F  </i>
   <i name="Zab_VDW">     -0.84910000</i>
   <i name="PARAM1">      0.12340000</i>
   <i name="PARAM2">      1.00000000</i>
   <i name="PARAM3">      0.00000000</i>
  </separator>
  <separator name="model GW" >
   <i type="int" name="MODEL_GW">     0</i>
   <i name="MODEL_EPS0">     58.26239943</i>
   <i name="MODEL_ALPHA">      1.00000000</i>
  </separator>
  <separator name="linear response parameters" >
   <i type="logical" name="LEPSILON"> F  </i>
   <i type="logical" name="LRPA"> F  </i>
   <i type="logical" name="LNABLA"> F  </i>
   <i type="logical" name="LVEL"> F  </i>
   <i type="int" name="KINTER">     0</i>
   <i name="CSHIFT">      0.10000000</i>
   <i name="OMEGAMAX">     -1.00000000</i>
   <i name="DEG_THRESHOLD">      0.00200000</i>
  </separator>
  <separator name="orbital magnetization" >
   <i type="logical" name="NUCIND"> F  </i>
   <v name="MAGPOS">      0.00000000      0.00000000      0.00000000</v>
   <i type="logical" name="LNICSALL"> T  </i>
   <i type="logical" name="ORBITALMAG"> F  </i>
   <i type="logical" name="LMAGBLOCH"> F  </i>
   <i type="logical" name="LCHIMAG"> F  </i>
   <i type="logical" name="LGAUGE"> T  </i>
   <i type="int" name="MAGATOM">     0</i>
   <v name="MAGDIPOL">      0.00000000      0.00000000      0.00000000</v>
   <v name="AVECCONST">      0.00000000      0.00000000      0.00000000</v>
  </separator>
  <separator name="response functions" >
   <i type="logical" name="LADDER"> F  </i>
   <i type="logical" name="LFXC"> F  </i>
   <i type="logical" name="LHARTREE"> T  </i>
   <i type="int" name="IBSE">     0</i>
   <v type="int" name="KPOINT">    -1     0     0     0</v>
   <i type="logical" name="LTCTE"> F  </i>
   <i type="logical" name="LTETE"> F  </i>
   <i type="logical" name="LTRIPLET"> F  </i>
   <i type="logical" name="LFXCEPS"> F  </i>
   <i type="logical" name="LFXHEG"> F  </i>
   <i type="int" name="NATURALO">     0</i>
   <i type="logical" name="L2ORDER"> F  </i>
   <i type="logical" name="LUSEW"> F  </i>
   <i name="ENCUTGW">     -2.00000000</i>
   <i name="ENCUTGWSOFT">     -2.00000000</i>
   <i name="ENCUTLF">     -1.00000000</i>
   <i type="int" name="LMAXMP2">    -1</i>
   <i name="SCISSOR">      0.00000000</i>
   <i type="int" name="NOMEGA">     0</i>
   <i type="int" name="NOMEGAR">     0</i>
   <i type="int" name="NBANDSGW">    -1</i>
   <i type="int" name="NBANDSO">    -1</i>
   <i type="int" name="NBANDSV">    -1</i>
   <i type="int" name="NELM">     1</i>
   <i type="int" name="NELMHF">     1</i>
   <i type="int" name="DIM">     3</i>
   <i type="int" name="ANTIRES">     0</i>
   <i name="OMEGAMAX">    -30.00000000</i>
   <i name="OMEGAMIN">    -30.00000000</i>
   <i name="OMEGATL">   -200.00000000</i>
   <i type="int" name="OMEGAGRID">     0</i>
   <i name="CSHIFT">     -0.10000000</i>
   <i type="logical" name="SELFENERGY"> F  </i>
   <i type="logical" name="LSPECTRAL"> F  </i>
   <i type="logical" name="LSPECTRALGW"> F  </i>
   <i type="logical" name="LSINGLES"> F  </i>
   <i type="logical" name="LFERMIGW"> F  </i>
   <i type="logical" name="ODDONLYGW"> F  </i>
   <i type="logical" name="EVENONLYGW"> F  </i>
   <i type="int" name="NKREDLFX">     1</i>
   <i type="int" name="NKREDLFY">     1</i>
   <i type="int" name="NKREDLFZ">     1</i>
   <i type="int" name="MAXMEM">  1800</i>
   <i type="int" name="TELESCOPE">     0</i>
   <i type="int" name="TAUPAR">     1</i>
   <i type="int" name="OMEGAPAR">    -1</i>
   <i name="LAMBDA">      1.00000000</i>
  </separator>
  <separator name="External order field" >
   <i name="OFIELD_KAPPA">      0.00000000</i>
   <v name="OFIELD_K">      0.00000000      0.00000000      0.00000000</v>
   <i name="OFIELD_Q6_NEAR">      0.00000000</i>
   <i name="OFIELD_Q6_FAR">      0.00000000</i>
   <i name="OFIELD_A">      0.00000000</i>
  </separator>
 </parameters>
 <atominfo>
  <atoms>      27 </atoms>
  <types>       4 </types>
  <array name="atoms" >
   <dimension dim="1">ion</dimension>
   <field type="string">element</field>
   <field type="int">atomtype</field>
   <set>
    <rc><c>V </c><c>   1</c></rc>
    <rc><c>V </c><c>   1</c></rc>
    <rc><c>V </c><c>   1</c></rc>
    <rc><c>Mo</c><c>   2</c></rc>
    <rc><c>Mo</c><c>   2</c></rc>
    <rc><c>Mo</c><c>   2</c></rc>
    <rc><c>W </c><c>   3</c></rc>
    <rc><c>W </c><c>   3</c></rc>
    <rc><c>W </c><c>   3</c></rc>
    <rc><c>S </c><c>   4</c></rc>
    <rc><c>S </c><c>   4</c></rc>
    <rc><c>S </c><c>   4</c></rc>
    <rc><c>S </c><c>   4</c></rc>
    <rc><c>S </c><c>   4</c></rc>
    <rc><c>S </c><c>   4</c></rc>
    <rc><c>S </c><c>   4</c></rc>
    <rc><c>S </c><c>   4</c></rc>
    <rc><c>S </c><c>   4</c></rc>
    <rc><c>S </c><c>   4</c></rc>
    <rc><c>S </c><c>   4</c></rc>
    <rc><c>S </c><c>   4</c></rc>
    <rc><c>S </c><c>   4</c></rc>
    <rc><c>S </c><c>   4</c></rc>
    <rc><c>S </c><c>   4</c></rc>
    <rc><c>S </c><c>   4</c></rc>
    <rc><c>S </c><c>   4</c></rc>
    <rc><c>S </c><c>   4</c></rc>
   </set>
  </array>
  <array name="atomtypes" >
   <dimension dim="1">type</dimension>
   <field type="int">atomspertype</field>
   <field type="string">element</field>
   <field>mass</field>
   <field>valence</field>
   <field type="string">pseudopotential</field>
   <set>
    <rc><c>   3</c><c>V </c><c>     50.94100000</c><c>      5.00000000</c><c> PAW_PBE V 08Apr2002                    </c></rc>
    <rc><c>   3</c><c>Mo</c><c>     95.94000000</c><c>      6.00000000</c><c> PAW_PBE Mo 08Apr2002                   </c></rc>
    <rc><c>   3</c><c>W </c><c>    183.85000000</c><c>      6.00000000</c><c> PAW_PBE W 08Apr2002                    </c></rc>
    <rc><c>  18</c><c>S </c><c>     32.06600000</c><c>      6.00000000</c><c>  PAW_PBE S 17Jan2003                   </c></rc>
   </set>
  </array>
 </atominfo>
 <structure name="initialpos" >
  <crystal>
   <varray name="basis" >
    <v>       8.66999996       5.03999989       0.00000000 </v>
    <v>      -8.66999982       5.04000013       0.00000000 </v>
    <v>       0.00000000       0.00000000      30.00000000 </v>
   </varray>
   <i name="volume">   2621.80797419 </i>
   <varray name="rec_basis" >
    <v>       0.05767013       0.09920635       0.00000000 </v>
    <v>      -0.05767013       0.09920635       0.00000000 </v>
    <v>       0.00000000       0.00000000       0.03333333 </v>
   </varray>
  </crystal>
  <varray name="positions" >
   <v>       0.66666669       0.66666669       0.00000000 </v>
   <v>       0.33333334       0.33333334       0.00000000 </v>
   <v>       0.66666669       0.00000000       0.00000000 </v>
   <v>       1.00000000       0.33333334       0.00000000 </v>
   <v>       0.33333334       0.66666669       0.00000000 </v>
   <v>       0.00000000       0.66666669       0.00000000 </v>
   <v>       0.00000000       0.00000000       0.00000000 </v>
   <v>       0.33333334       0.00000000       0.00000000 </v>
   <v>       0.66666669       0.33333334       0.00000000 </v>
   <v>       0.11068511       0.22244981       0.95539999 </v>
   <v>       0.22244981       0.11068511       0.04460000 </v>
   <v>       0.11068511       0.55578315       0.95539999 </v>
   <v>       0.22244981       0.44401845       0.04460000 </v>
   <v>       0.11068511       0.88911647       0.95539999 </v>
   <v>       0.22244981       0.77735180       0.04460000 </v>
   <v>       0.44401845       0.22244981       0.95539999 </v>
   <v>       0.55578315       0.11068511       0.04460000 </v>
   <v>       0.44401845       0.55578315       0.95539999 </v>
   <v>       0.55578315       0.44401845       0.04460000 </v>
   <v>       0.44401845       0.88911647       0.95539999 </v>
   <v>       0.55578315       0.77735180       0.04460000 </v>
   <v>       0.77735180       0.22244981       0.95539999 </v>
   <v>       0.88911647       0.11068511       0.04460000 </v>
   <v>       0.77735180       0.55578315       0.95539999 </v>
   <v>       0.88911647       0.44401845       0.04460000 </v>
   <v>       0.77735180       0.88911647       0.95539999 </v>
   <v>       0.88911647       0.77735180       0.04460000 </v>
  </varray>
 </structure>
 <calculation>
  <scstep>
   <time name="dav">   21.67   21.72</time>
   <time name="total">   21.71   21.78</time>
   <energy>
    <i name="alphaZ">     81.65567618 </i>
    <i name="ewald">  41890.23010383 </i>
    <i name="hartreedc"> -47722.85866360 </i>
    <i name="XCdc">   -242.92971632 </i>
    <i name="pawpsdc">   3467.42045192 </i>
    <i name="pawaedc">  -2871.19716117 </i>
    <i name="eentropy">     -0.53525690 </i>
    <i name="bandstr">   -239.28591928 </i>
    <i name="atom">   6761.44252427 </i>
    <i name="e_fr_energy">   1123.94203893 </i>
    <i name="e_wo_entrp">   1124.47729583 </i>
    <i name="e_0_energy">   1124.20966738 </i>
   </energy>
  </scstep>
  <scstep>
   <time name="dav">   27.89   27.95</time>
   <time name="total">   27.89   27.96</time>
   <energy>
    <i name="e_fr_energy">      0.07573914 </i>
    <i name="e_wo_entrp">      0.25899115 </i>
    <i name="e_0_energy">      0.16736514 </i>
   </energy>
  </scstep>
  <scstep>
   <time name="dav">   27.65   27.71</time>
   <time name="total">   27.65   27.72</time>
   <energy>
    <i name="e_fr_energy">   -199.64320324 </i>
    <i name="e_wo_entrp">   -199.35708483 </i>
    <i name="e_0_energy">   -199.50014403 </i>
   </energy>
  </scstep>
  <scstep>
   <time name="dav">   29.35   29.43</time>
   <time name="total">   29.36   29.43</time>
   <energy>
    <i name="e_fr_energy">   -208.86132898 </i>
    <i name="e_wo_entrp">   -208.53832914 </i>
    <i name="e_0_energy">   -208.69982906 </i>
   </energy>
  </scstep>
  <scstep>
   <time name="dav">   28.53   28.60</time>
   <time name="total">   28.99   29.07</time>
   <energy>
    <i name="e_fr_energy">   -209.22200356 </i>
    <i name="e_wo_entrp">   -208.90265344 </i>
    <i name="e_0_energy">   -209.06232850 </i>
   </energy>
  </scstep>
  <scstep>
   <time name="dav">   31.17   31.24</time>
   <time name="total">   31.66   31.75</time>
   <energy>
    <i name="e_fr_energy">   -236.37100212 </i>
    <i name="e_wo_entrp">   -236.09387128 </i>
    <i name="e_0_energy">   -236.23243670 </i>
   </energy>
  </scstep>
  <scstep>
   <time name="dav">   32.47   32.55</time>
   <time name="total">   32.97   33.06</time>
   <energy>
    <i name="e_fr_energy">   -196.82236303 </i>
    <i name="e_wo_entrp">   -196.49203364 </i>
    <i name="e_0_energy">   -196.65719833 </i>
   </energy>
  </scstep>
  <scstep>
   <time name="dav">   28.75   28.82</time>
   <time name="total">   29.25   29.33</time>
   <energy>
    <i name="e_fr_energy">   -190.29953634 </i>
    <i name="e_wo_entrp">   -190.03195558 </i>
    <i name="e_0_energy">   -190.16574596 </i>
   </energy>
  </scstep>
  <scstep>
   <time name="dav">   29.98   30.05</time>
   <time name="total">   30.50   30.58</time>
   <energy>
    <i name="e_fr_energy">   -188.29566041 </i>
    <i name="e_wo_entrp">   -187.96092471 </i>
    <i name="e_0_energy">   -188.12829256 </i>
   </energy>
  </scstep>
  <scstep>
   <time name="dav">   32.46   32.54</time>
   <time name="total">   32.99   33.08</time>
   <energy>
    <i name="e_fr_energy">   -187.10041545 </i>
    <i name="e_wo_entrp">   -186.75389936 </i>
    <i name="e_0_energy">   -186.92715741 </i>
   </energy>
  </scstep>
  <scstep>
   <time name="dav">   30.40   30.48</time>
   <time name="total">   30.94   31.02</time>
   <energy>
    <i name="e_fr_energy">   -187.01417689 </i>
    <i name="e_wo_entrp">   -186.66750457 </i>
    <i name="e_0_energy">   -186.84084073 </i>
   </energy>
  </scstep>
  <scstep>
   <time name="dav">   31.44   31.52</time>
   <time name="total">   31.97   32.06</time>
   <energy>
    <i name="e_fr_energy">   -186.97393940 </i>
    <i name="e_wo_entrp">   -186.63754168 </i>
    <i name="e_0_energy">   -186.80574054 </i>
   </energy>
  </scstep>
  <scstep>
   <time name="dav">   32.43   32.50</time>
   <time name="total">   32.96   33.05</time>
   <energy>
    <i name="e_fr_energy">   -186.93029112 </i>
    <i name="e_wo_entrp">   -186.59141874 </i>
    <i name="e_0_energy">   -186.76085493 </i>
   </energy>
  </scstep>
  <scstep>
   <time name="dav">   31.82   31.90</time>
   <time name="total">   32.35   32.44</time>
   <energy>
    <i name="e_fr_energy">   -186.89202127 </i>
    <i name="e_wo_entrp">   -186.54843235 </i>
    <i name="e_0_energy">   -186.72022681 </i>
   </energy>
  </scstep>
  <scstep>
   <time name="dav">   29.57   29.64</time>
   <time name="total">   30.10   30.18</time>
   <energy>
    <i name="e_fr_energy">   -186.88753351 </i>
    <i name="e_wo_entrp">   -186.54312034 </i>
    <i name="e_0_energy">   -186.71532692 </i>
   </energy>
  </scstep>
  <scstep>
   <time name="dav">   32.12   32.20</time>
   <time name="total">   32.65   32.74</time>
   <energy>
    <i name="e_fr_energy">   -186.88739024 </i>
    <i name="e_wo_entrp">   -186.54385625 </i>
    <i name="e_0_energy">   -186.71562325 </i>
   </energy>
  </scstep>
  <scstep>
   <time name="dav">   30.82   30.89</time>
   <time name="total">   31.35   31.43</time>
   <energy>
    <i name="e_fr_energy">   -186.88511262 </i>
    <i name="e_wo_entrp">   -186.54201881 </i>
    <i name="e_0_energy">   -186.71356571 </i>
   </energy>
  </scstep>
  <scstep>
   <time name="dav">   31.33   31.41</time>
   <time name="total">   31.87   31.96</time>
   <energy>
    <i name="e_fr_energy">   -186.88401480 </i>
    <i name="e_wo_entrp">   -186.54146288 </i>
    <i name="e_0_energy">   -186.71273884 </i>
   </energy>
  </scstep>
  <scstep>
   <time name="dav">   28.42   28.49</time>
   <time name="total">   28.96   29.03</time>
   <energy>
    <i name="e_fr_energy">   -186.88381242 </i>
    <i name="e_wo_entrp">   -186.54075028 </i>
    <i name="e_0_energy">   -186.71228135 </i>
   </energy>
  </scstep>
  <scstep>
   <time name="dav">   23.45   23.50</time>
   <time name="total">   23.98   24.05</time>
   <energy>
    <i name="e_fr_energy">   -186.88467958 </i>
    <i name="e_wo_entrp">   -186.54194578 </i>
    <i name="e_0_energy">   -186.71331268 </i>
   </energy>
  </scstep>
  <scstep>
   <time name="dav">   21.81   21.87</time>
   <time name="total">   22.35   22.41</time>
   <energy>
    <i name="e_fr_energy">   -186.88543344 </i>
    <i name="e_wo_entrp">   -186.54258497 </i>
    <i name="e_0_energy">   -186.71400921 </i>
   </energy>
  </scstep>
  <scstep>
   <time name="dav">   19.67   19.72</time>
   <time name="total">   20.20   20.26</time>
   <energy>
    <i name="e_fr_energy">   -186.88628803 </i>
    <i name="e_wo_entrp">   -186.54345123 </i>
    <i name="e_0_energy">   -186.71486963 </i>
   </energy>
  </scstep>
  <scstep>
   <time name="dav">   20.23   20.28</time>
   <time name="total">   20.77   20.83</time>
   <energy>
    <i name="e_fr_energy">   -186.88753237 </i>
    <i name="e_wo_entrp">   -186.54483130 </i>
    <i name="e_0_energy">   -186.71618183 </i>
   </energy>
  </scstep>
  <scstep>
   <time name="dav">   18.98   19.02</time>
   <time name="total">   19.51   19.57</time>
   <energy>
    <i name="e_fr_energy">   -186.88806488 </i>
    <i name="e_wo_entrp">   -186.54528935 </i>
    <i name="e_0_energy">   -186.71667711 </i>
   </energy>
  </scstep>
  <scstep>
   <time name="dav">   16.19   16.23</time>
   <time name="total">   16.72   16.77</time>
   <energy>
    <i name="e_fr_energy">   -186.88847311 </i>
    <i name="e_wo_entrp">   -186.54567792 </i>
    <i name="e_0_energy">   -186.71707552 </i>
   </energy>
  </scstep>
  <scstep>
   <time name="dav">   19.10   19.14</time>
   <time name="total">   19.63   19.69</time>
   <energy>
    <i name="e_fr_energy">   -186.88871067 </i>
    <i name="e_wo_entrp">   -186.54593618 </i>
    <i name="e_0_energy">   -186.71732342 </i>
   </energy>
  </scstep>
  <scstep>
   <time name="dav">   19.87   19.92</time>
   <time name="total">   19.90   19.96</time>
   <energy>
    <i name="alphaZ">     81.65567618 </i>
    <i name="ewald">  41890.23010383 </i>
    <i name="hartreedc"> -47833.14138207 </i>
    <i name="XCdc">   -231.59824879 </i>
    <i name="pawpsdc">   4192.18671938 </i>
    <i name="pawaedc">  -3610.21246067 </i>
    <i name="eentropy">     -0.34277643 </i>
    <i name="bandstr">  -1437.10895384 </i>
    <i name="atom">   6761.44252427 </i>
    <i name="e_fr_energy">   -186.88879814 </i>
    <i name="e_wo_entrp">   -186.54602171 </i>
    <i name="e_0_energy">   -186.71740993 </i>
   </energy>
  </scstep>
  <structure>
   <crystal>
    <varray name="basis" >
     <v>       8.66999996       5.03999989       0.00000000 </v>
     <v>      -8.66999982       5.04000013       0.00000000 </v>
     <v>       0.00000000       0.00000000      30.00000000 </v>
    </varray>
    <i name="volume">   2621.80797419 </i>
    <varray name="rec_basis" >
     <v>       0.05767013       0.09920635       0.00000000 </v>
     <v>      -0.05767013       0.09920635       0.00000000 </v>
     <v>       0.00000000       0.00000000       0.03333333 </v>
    </varray>
   </crystal>
   <varray name="positions" >
    <v>       0.66666669       0.66666669       0.00000000 </v>
    <v>       0.33333334       0.33333334       0.00000000 </v>
    <v>       0.66666669       0.00000000       0.00000000 </v>
    <v>       1.00000000       0.33333334       0.00000000 </v>
    <v>       0.33333334       0.66666669       0.00000000 </v>
    <v>       0.00000000       0.66666669       0.00000000 </v>
    <v>       0.00000000       0.00000000       0.00000000 </v>
    <v>       0.33333334       0.00000000       0.00000000 </v>
    <v>       0.66666669       0.33333334       0.00000000 </v>
    <v>       0.11068511       0.22244981       0.95539999 </v>
    <v>       0.22244981       0.11068511       0.04460000 </v>
    <v>       0.11068511       0.55578315       0.95539999 </v>
    <v>       0.22244981       0.44401845       0.04460000 </v>
    <v>       0.11068511       0.88911647       0.95539999 </v>
    <v>       0.22244981       0.77735180       0.04460000 </v>
    <v>       0.44401845       0.22244981       0.95539999 </v>
    <v>       0.55578315       0.11068511       0.04460000 </v>
    <v>       0.44401845       0.55578315       0.95539999 </v>
    <v>       0.55578315       0.44401845       0.04460000 </v>
    <v>       0.44401845       0.88911647       0.95539999 </v>
    <v>       0.55578315       0.77735180       0.04460000 </v>
    <v>       0.77735180       0.22244981       0.95539999 </v>
    <v>       0.88911647       0.11068511       0.04460000 </v>
    <v>       0.77735180       0.55578315       0.95539999 </v>
    <v>       0.88911647       0.44401845       0.04460000 </v>
    <v>       0.77735180       0.88911647       0.95539999 </v>
    <v>       0.88911647       0.77735180       0.04460000 </v>
   </varray>
  </structure>
  <varray name="forces" >
   <v>      -0.08201480      -0.04461839       0.03017639 </v>
   <v>      -0.43771005       0.06480871       0.06237860 </v>
   <v>       0.06499315      -0.04895739      -0.06166866 </v>
   <v>      -0.26171422       0.43455264      -0.09585474 </v>
   <v>      -0.17246265      -0.38473266       0.02023478 </v>
   <v>       0.52669963       0.00358863       0.01002230 </v>
   <v>      -0.05825825      -0.04869233       0.01770939 </v>
   <v>       0.29497853      -0.44971789       0.07080256 </v>
   <v>       0.21331035       0.46898387      -0.02634889 </v>
   <v>       0.59763661       0.54050110      -2.14274868 </v>
   <v>      -0.46806190       0.59753797       2.19837364 </v>
   <v>       0.11914674      -0.01943967      -2.94665012 </v>
   <v>       0.77627008       0.01216875       2.13746586 </v>
   <v>       0.04671600       0.10659109      -2.89827557 </v>
   <v>      -0.23121816       0.16409311       2.93412436 </v>
   <v>      -0.59978922       0.00388550      -2.03483449 </v>
   <v>       0.57634498      -0.01162781       2.10117272 </v>
   <v>       0.89811875      -0.00174070      -1.45910789 </v>
   <v>      -0.75684220      -0.02241468       1.47661560 </v>
   <v>       0.37998349       0.72975175      -2.17336411 </v>
   <v>       0.32517953       0.66807306       1.39234062 </v>
   <v>       0.37241999      -0.71541908      -2.18099103 </v>
   <v>      -0.36137616      -0.69557915       2.10539826 </v>
   <v>      -0.65819434      -0.14673673      -2.10765530 </v>
   <v>      -0.23310377      -0.14433670       2.91508995 </v>
   <v>      -0.26323061      -0.52270590      -1.45166248 </v>
   <v>      -0.60782149      -0.53781713       2.10725694 </v>
  </varray>
  <varray name="stress" >
   <v>       7.35327149       0.09744530      -1.52877989 </v>
   <v>       0.09744540       4.42577989       0.04529712 </v>
   <v>      -1.52877986       0.04529714      30.28143447 </v>
  </varray>
  <energy>
   <i name="e_fr_energy">   -186.88879814 </i>
   <i name="e_wo_entrp">   -186.71740993 </i>
   <i name="e_0_energy">     -0.34277643 </i>
  </energy>
  <time name="totalsc">  781.10  783.20</time>
 </calculation>
 <calculation>
  <scstep>
   <time name="dav">   21.64   21.69</time>
   <time name="total">   22.18   22.24</time>
   <energy>
    <i name="alphaZ">     78.91583478 </i>
    <i name="ewald">  39377.57307307 </i>
    <i name="hartreedc"> -45335.13002807 </i>
    <i name="XCdc">   -239.05724457 </i>
    <i name="pawpsdc">   4192.17205934 </i>
    <i name="pawaedc">  -3610.19791436 </i>
    <i name="eentropy">     -0.28177323 </i>
    <i name="bandstr">  -1412.98069210 </i>
    <i name="atom">   6761.44252427 </i>
    <i name="e_fr_energy">   -187.54416086 </i>
    <i name="e_wo_entrp">   -187.26238764 </i>
    <i name="e_0_energy">   -187.40327425 </i>
   </energy>
  </scstep>
  <scstep>
   <time name="dav">   30.43   30.50</time>
   <time name="total">   30.96   31.04</time>
   <energy>
    <i name="e_fr_energy">   -189.65198095 </i>
    <i name="e_wo_entrp">   -189.31200196 </i>
    <i name="e_0_energy">   -189.48199145 </i>
   </energy>
  </scstep>
  <scstep>
   <time name="dav">   30.43   30.50</time>
   <time name="total">   30.98   31.06</time>
   <energy>
    <i name="e_fr_energy">   -189.34133167 </i>
    <i name="e_wo_entrp">   -189.06731171 </i>
    <i name="e_0_energy">   -189.20432169 </i>
   </energy>
  </scstep>
  <scstep>
   <time name="dav">   30.67   30.75</time>
   <time name="total">   31.21   31.30</time>
   <energy>
    <i name="e_fr_energy">   -188.80650407 </i>
    <i name="e_wo_entrp">   -188.52564500 </i>
    <i name="e_0_energy">   -188.66607454 </i>
   </energy>
  </scstep>
  <scstep>
   <time name="dav">   30.38   30.45</time>
   <time name="total">   30.92   31.00</time>
   <energy>
    <i name="e_fr_energy">   -188.95967409 </i>
    <i name="e_wo_entrp">   -188.66570329 </i>
    <i name="e_0_energy">   -188.81268869 </i>
   </energy>
  </scstep>
  <scstep>
   <time name="dav">   31.30   31.37</time>
   <time name="total">   31.84   31.93</time>
   <energy>
    <i name="e_fr_energy">   -188.77937618 </i>
    <i name="e_wo_entrp">   -188.49987670 </i>
    <i name="e_0_energy">   -188.63962644 </i>
   </energy>
  </scstep>
  <scstep>
   <time name="dav">   28.76   28.83</time>
   <time name="total">   29.31   29.39</time>
   <energy>
    <i name="e_fr_energy">   -188.76632430 </i>
    <i name="e_wo_entrp">   -188.48532884 </i>
    <i name="e_0_energy">   -188.62582657 </i>
   </energy>
  </scstep>
  <scstep>
   <time name="dav">   31.75   31.83</time>
   <time name="total">   32.30   32.38</time>
   <energy>
    <i name="e_fr_energy">   -188.73595921 </i>
    <i name="e_wo_entrp">   -188.45541934 </i>
    <i name="e_0_energy">   -188.59568928 </i>
   </energy>
  </scstep>
  <scstep>
   <time name="dav">   30.24   30.31</time>
   <time name="total">   30.78   30.86</time>
   <energy>
    <i name="e_fr_energy">   -188.71595324 </i>
    <i name="e_wo_entrp">   -188.43637416 </i>
    <i name="e_0_energy">   -188.57616370 </i>
   </energy>
  </scstep>
  <scstep>
   <time name="dav">   27.24   27.31</time>
   <time name="total">   27.78   27.86</time>
   <energy>
    <i name="e_fr_energy">   -188.71524170 </i>
    <i name="e_wo_entrp">   -188.43581449 </i>
    <i name="e_0_energy">   -188.57552809 </i>
   </energy>
  </scstep>
  <scstep>
   <time name="dav">   30.84   30.91</time>
   <time name="total">   31.38   31.46</time>
   <energy>
    <i name="e_fr_energy">   -188.71473101 </i>
    <i name="e_wo_entrp">   -188.43575635 </i>
    <i name="e_0_energy">   -188.57524368 </i>
   </energy>
  </scstep>
  <scstep>
   <time name="dav">   29.06   29.13</time>
   <time name="total">   29.60   29.68</time>
   <energy>
    <i name="e_fr_energy">   -188.71487555 </i>
    <i name="e_wo_entrp">   -188.43582099 </i>
    <i name="e_0_energy">   -188.57534827 </i>
   </energy>
  </scstep>
  <scstep>
   <time name="dav">   21.46   21.51</time>
   <time name="total">   21.50   21.56</time>
   <energy>
    <i name="alphaZ">     78.91583478 </i>
    <i name="ewald">  39377.57307307 </i>
    <i name="hartreedc"> -45345.85165003 </i>
    <i name="XCdc">   -237.96853880 </i>
    <i name="pawpsdc">   3950.59801074 </i>
    <i name="pawaedc">  -3365.12090470 </i>
    <i name="eentropy">     -0.27905279 </i>
    <i name="bandstr">  -1408.02410503 </i>
    <i name="atom">   6761.44252427 </i>
    <i name="e_fr_energy">   -188.71480850 </i>
    <i name="e_wo_entrp">   -188.43575570 </i>
    <i name="e_0_energy">   -188.57528210 </i>
   </energy>
  </scstep>
  <structure>
   <crystal>
    <varray name="basis" >
     <v>       8.85784089       5.10768971       0.00000000 </v>
     <v>      -8.85496878       5.10274949       0.00000000 </v>
     <v>       0.00000000       0.00000000      30.00000000 </v>
    </varray>
    <i name="volume">   2712.83328039 </i>
    <varray name="rec_basis" >
     <v>       0.05642901       0.09792311       0.00000000 </v>
     <v>      -0.05648364       0.09795487       0.00000000 </v>
     <v>       0.00000000       0.00000000       0.03333333 </v>
    </varray>
   </crystal>
   <varray name="positions" >
    <v>       0.66622497       0.66668132       0.00004853 </v>
    <v>       0.33242574       0.33486130       0.00010031 </v>
    <v>       0.66661320      -0.00041513      -0.00009917 </v>
    <v>       1.00135163       0.33614123      -0.00015414 </v>
    <v>       0.33101220       0.66530518       0.00003254 </v>
    <v>       0.00148254       0.66521850       0.00001612 </v>
    <v>      -0.00039512      -0.00007096       0.00002848 </v>
    <v>       0.33200168      -0.00297302       0.00011386 </v>
    <v>       0.66950470       0.33498443      -0.00004237 </v>
    <v>       0.11493466       0.22337391       0.95195426 </v>
    <v>       0.22400739       0.11484714       0.04813518 </v>
    <v>       0.11092356       0.55535863       0.95066152 </v>
    <v>       0.22466776       0.44191699       0.04803723 </v>
    <v>       0.11132522       0.88949664       0.95073931 </v>
    <v>       0.22259187       0.77878043       0.04931833 </v>
    <v>       0.44236834       0.22413711       0.95212780 </v>
    <v>       0.55733099       0.10902598       0.04797887 </v>
    <v>       0.44650883       0.55327611       0.95305362 </v>
    <v>       0.55357022       0.44601683       0.04697453 </v>
    <v>       0.44856820       0.89155187       0.95190503 </v>
    <v>       0.55988524       0.77964448       0.04683901 </v>
    <v>       0.77496395       0.21798970       0.95189276 </v>
    <v>       0.88478203       0.10836149       0.04798567 </v>
    <v>       0.77481832       0.55691208       0.95201069 </v>
    <v>       0.88777714       0.44397619       0.04928772 </v>
    <v>       0.77411779       0.88734716       0.95306559 </v>
    <v>       0.88485143       0.77646887       0.04798865 </v>
   </varray>
  </structure>
  <varray name="forces" >
   <v>      -0.05167596      -0.03025589       0.09157299 </v>
   <v>      -0.33470548       0.00831363      -0.06126254 </v>
   <v>       0.02945685      -0.00753885       0.06874378 </v>
   <v>      -0.42257377       0.43345613      -0.03087729 </v>
   <v>      -0.45243477      -0.46503740       0.00146542 </v>
   <v>       0.62517180       0.07679634      -0.01133676 </v>
   <v>       0.07319966       0.04956835       0.11270248 </v>
   <v>       0.18747695      -0.55420928      -0.07213804 </v>
   <v>       0.27430511       0.49051191      -0.11937962 </v>
   <v>       0.07058266      -0.05618276       0.04281726 </v>
   <v>       0.05611544      -0.05235776      -0.11677955 </v>
   <v>       0.00410140       0.00108171      -0.40207227 </v>
   <v>       0.05149275       0.00310469       0.18319144 </v>
   <v>      -0.06128907       0.08500076       0.00857024 </v>
   <v>      -0.05115937       0.09893921       0.28762819 </v>
   <v>       0.10327239      -0.00046971       0.36521480 </v>
   <v>      -0.09379501      -0.00390271      -0.14935423 </v>
   <v>       0.02551070       0.00595070       0.09602306 </v>
   <v>       0.10560239       0.00174227      -0.15358744 </v>
   <v>      -0.09993328       0.04648905       0.02584601 </v>
   <v>       0.00865347       0.02622657      -0.15804066 </v>
   <v>      -0.11108077      -0.03966449      -0.00286120 </v>
   <v>       0.10529313      -0.03900944      -0.16940009 </v>
   <v>       0.03136122      -0.10279677       0.02320908 </v>
   <v>      -0.04943293      -0.09871864       0.24214403 </v>
   <v>       0.04844105       0.06236339       0.03830530 </v>
   <v>      -0.07195655       0.06059899      -0.14034439 </v>
  </varray>
  <varray name="stress" >
   <v>     -19.89930388      -0.01486098       0.04188322 </v>
   <v>      -0.01486097     -19.48346203      -0.01351307 </v>
   <v>       0.04188318      -0.01351306      -1.76583683 </v>
  </varray>
  <energy>
   <i name="e_fr_energy">   -188.71480850 </i>
   <i name="e_wo_entrp">   -188.57528210 </i>
   <i name="e_0_energy">     -0.27905279 </i>
  </energy>
  <time name="totalsc">  422.72  423.84</time>
 </calculation>
 <calculation>
  <scstep>
   <time name="dav">   23.54   23.60</time>
   <time name="total">   24.08   24.13</time>
   <energy>
    <i name="alphaZ">     82.33689901 </i>
    <i name="ewald">  41299.18717313 </i>
    <i name="hartreedc"> -47297.97506898 </i>
    <i name="XCdc">   -233.84847367 </i>
    <i name="pawpsdc">   3950.06639022 </i>
    <i name="pawaedc">  -3364.58423289 </i>
    <i name="eentropy">     -0.23645591 </i>
    <i name="bandstr">  -1387.03454668 </i>
    <i name="atom">   6761.44252427 </i>
    <i name="e_fr_energy">   -190.64579149 </i>
    <i name="e_wo_entrp">   -190.40933558 </i>
    <i name="e_0_energy">   -190.52756354 </i>
   </energy>
  </scstep>
  <scstep>
   <time name="dav">   27.79   27.86</time>
   <time name="total">   28.31   28.39</time>
   <energy>
    <i name="e_fr_energy">   -190.56462127 </i>
    <i name="e_wo_entrp">   -190.32730051 </i>
    <i name="e_0_energy">   -190.44596089 </i>
   </energy>
  </scstep>
  <scstep>
   <time name="dav">   30.27   30.34</time>
   <time name="total">   30.79   30.87</time>
   <energy>
    <i name="e_fr_energy">   -190.13562952 </i>
    <i name="e_wo_entrp">   -189.88365467 </i>
    <i name="e_0_energy">   -190.00964209 </i>
   </energy>
  </scstep>
  <scstep>
   <time name="dav">   31.31   31.39</time>
   <time name="total">   31.85   31.93</time>
   <energy>
    <i name="e_fr_energy">   -189.92323368 </i>
    <i name="e_wo_entrp">   -189.68731276 </i>
    <i name="e_0_energy">   -189.80527322 </i>
   </energy>
  </scstep>
  <scstep>
   <time name="dav">   30.09   30.16</time>
   <time name="total">   30.61   30.70</time>
   <energy>
    <i name="e_fr_energy">   -189.90034332 </i>
    <i name="e_wo_entrp">   -189.66078502 </i>
    <i name="e_0_energy">   -189.78056417 </i>
   </energy>
  </scstep>
  <scstep>
   <time name="dav">   30.34   30.41</time>
   <time name="total">   30.87   30.95</time>
   <energy>
    <i name="e_fr_energy">   -189.82594544 </i>
    <i name="e_wo_entrp">   -189.58684917 </i>
    <i name="e_0_energy">   -189.70639730 </i>
   </energy>
  </scstep>
  <scstep>
   <time name="dav">   29.15   29.22</time>
   <time name="total">   29.68   29.76</time>
   <energy>
    <i name="e_fr_energy">   -189.81728990 </i>
    <i name="e_wo_entrp">   -189.57866991 </i>
    <i name="e_0_energy">   -189.69797990 </i>
   </energy>
  </scstep>
  <scstep>
   <time name="dav">   30.70   30.78</time>
   <time name="total">   31.23   31.31</time>
   <energy>
    <i name="e_fr_energy">   -189.81832031 </i>
    <i name="e_wo_entrp">   -189.57956343 </i>
    <i name="e_0_energy">   -189.69894187 </i>
   </energy>
  </scstep>
  <scstep>
   <time name="dav">   27.94   28.01</time>
   <time name="total">   28.47   28.55</time>
   <energy>
    <i name="e_fr_energy">   -189.81717753 </i>
    <i name="e_wo_entrp">   -189.57846475 </i>
    <i name="e_0_energy">   -189.69782114 </i>
   </energy>
  </scstep>
  <scstep>
   <time name="dav">   25.64   25.71</time>
   <time name="total">   26.17   26.24</time>
   <energy>
    <i name="e_fr_energy">   -189.81744361 </i>
    <i name="e_wo_entrp">   -189.57873776 </i>
    <i name="e_0_energy">   -189.69809069 </i>
   </energy>
  </scstep>
  <scstep>
   <time name="dav">   22.55   22.60</time>
   <time name="total">   23.08   23.14</time>
   <energy>
    <i name="e_fr_energy">   -189.81722797 </i>
    <i name="e_wo_entrp">   -189.57841830 </i>
    <i name="e_0_energy">   -189.69782313 </i>
   </energy>
  </scstep>
  <scstep>
   <time name="dav">   19.33   19.38</time>
   <time name="total">   19.37   19.42</time>
   <energy>
    <i name="alphaZ">     82.33689901 </i>
    <i name="ewald">  41299.18717313 </i>
    <i name="hartreedc"> -47271.43381711 </i>
    <i name="XCdc">   -235.23791987 </i>
    <i name="pawpsdc">   4038.95692854 </i>
    <i name="pawaedc">  -3454.67542962 </i>
    <i name="eentropy">     -0.23881514 </i>
    <i name="bandstr">  -1410.15479416 </i>
    <i name="atom">   6761.44252427 </i>
    <i name="e_fr_energy">   -189.81725095 </i>
    <i name="e_wo_entrp">   -189.57843580 </i>
    <i name="e_0_energy">   -189.69784337 </i>
   </energy>
  </scstep>
  <structure>
   <crystal>
    <varray name="basis" >
     <v>       8.66982442       5.00144487       0.00000000 </v>
     <v>      -8.66717503       4.99688794       0.00000000 </v>
     <v>       0.00000000       0.00000000      30.00000000 </v>
    </varray>
    <i name="volume">   2600.11617526 </i>
    <varray name="rec_basis" >
     <v>       0.05765382       0.10000140       0.00000000 </v>
     <v>      -0.05770640       0.10003197       0.00000000 </v>
     <v>       0.00000000       0.00000000       0.03333333 </v>
    </varray>
   </crystal>
   <varray name="positions" >
    <v>       0.66612502       0.66668056       0.00010042 </v>
    <v>       0.33211846       0.33519657       0.00006559 </v>
    <v>       0.66662891      -0.00045597      -0.00006021 </v>
    <v>       1.00166786       0.33726892      -0.00017164 </v>
    <v>       0.32980391       0.66496519       0.00003337 </v>
    <v>       0.00221018       0.66474603       0.00000969 </v>
    <v>      -0.00024237      -0.00005870       0.00009235 </v>
    <v>       0.33125886      -0.00407604       0.00007297 </v>
    <v>       0.67058450       0.33553791      -0.00011003 </v>
    <v>       0.11490884       0.22321257       0.95197853 </v>
    <v>       0.22397406       0.11470605       0.04806900 </v>
    <v>       0.11092929       0.55535649       0.95043365 </v>
    <v>       0.22472233       0.44187271       0.04814105 </v>
    <v>       0.11140794       0.88969706       0.95074416 </v>
    <v>       0.22270751       0.77899433       0.04948134 </v>
    <v>       0.44246664       0.22403716       0.95233477 </v>
    <v>       0.55723450       0.10910955       0.04789423 </v>
    <v>       0.44654321       0.55326152       0.95310803 </v>
    <v>       0.55367444       0.44591832       0.04688749 </v>
    <v>       0.44854973       0.89172526       0.95191968 </v>
    <v>       0.55993720       0.77967985       0.04674944 </v>
    <v>       0.77479134       0.21803031       0.95189114 </v>
    <v>       0.88481811       0.10819541       0.04788966 </v>
    <v>       0.77467726       0.55671076       0.95202385 </v>
    <v>       0.88756536       0.44385926       0.04942495 </v>
    <v>       0.77426809       0.88740450       0.95308730 </v>
    <v>       0.88488328       0.77663890       0.04790912 </v>
   </varray>
  </structure>
  <varray name="forces" >
   <v>      -0.03540760      -0.01710227       0.08518104 </v>
   <v>      -0.31399257      -0.03491413      -0.07764329 </v>
   <v>       0.00357580       0.01115679       0.08298507 </v>
   <v>      -0.45992736       0.42022970      -0.00588985 </v>
   <v>      -0.53449186      -0.47827317      -0.00198337 </v>
   <v>       0.65651622       0.10583533      -0.00731836 </v>
   <v>       0.11450614       0.08249140       0.10697314 </v>
   <v>       0.15872579      -0.58371557      -0.08567836 </v>
   <v>       0.30120044       0.48141016      -0.10831586 </v>
   <v>       0.05193516       0.06889832      -0.44370977 </v>
   <v>      -0.00675209       0.08452848       0.39240303 </v>
   <v>       0.00976787       0.00983572      -0.97721121 </v>
   <v>       0.10911186       0.00191567       0.67829541 </v>
   <v>      -0.02648963      -0.00133356      -0.55090802 </v>
   <v>       0.00101013       0.01391309       0.87330104 </v>
   <v>      -0.02837181      -0.00115479      -0.09496955 </v>
   <v>       0.03625538       0.00003128       0.33452776 </v>
   <v>       0.07670712       0.01106224      -0.34042097 </v>
   <v>      -0.03760066      -0.00205513       0.30056635 </v>
   <v>       0.03683428       0.08915887      -0.47475505 </v>
   <v>       0.03064373       0.06150050       0.27160425 </v>
   <v>       0.03101360      -0.08788714      -0.51277616 </v>
   <v>      -0.02589267      -0.07192955       0.30751231 </v>
   <v>      -0.08307431      -0.00214284      -0.47657671 </v>
   <v>      -0.00321537      -0.01762480       0.81172205 </v>
   <v>      -0.02280522      -0.07012159      -0.42511603 </v>
   <v>      -0.03978239      -0.07371300       0.33820111 </v>
  </varray>
  <varray name="stress" >
   <v>     -10.13065358      -0.01983115       0.01938971 </v>
   <v>      -0.01983099      -9.82776376      -0.02657225 </v>
   <v>       0.01938976      -0.02657220       6.47607374 </v>
  </varray>
  <energy>
   <i name="e_fr_energy">   -189.81725095 </i>
   <i name="e_wo_entrp">   -189.69784337 </i>
   <i name="e_0_energy">     -0.23881514 </i>
  </energy>
  <time name="totalsc">  376.57  377.57</time>
 </calculation>
 <calculation>
  <scstep>
   <time name="dav">   21.63   21.69</time>
   <time name="total">   22.15   22.21</time>
   <energy>
    <i name="alphaZ">     85.80579777 </i>
    <i name="ewald">  42827.69536643 </i>
    <i name="hartreedc"> -48844.23871278 </i>
    <i name="XCdc">   -232.95462929 </i>
    <i name="pawpsdc">   4039.09655496 </i>
    <i name="pawaedc">  -3454.81317537 </i>
    <i name="eentropy">     -0.21083144 </i>
    <i name="bandstr">  -1373.23835673 </i>
    <i name="atom">   6761.44252427 </i>
    <i name="e_fr_energy">   -191.41546217 </i>
    <i name="e_wo_entrp">   -191.20463073 </i>
    <i name="e_0_energy">   -191.31004645 </i>
   </energy>
  </scstep>
  <scstep>
   <time name="dav">   32.09   32.17</time>
   <time name="total">   32.60   32.69</time>
   <energy>
    <i name="e_fr_energy">   -191.22581579 </i>
    <i name="e_wo_entrp">   -191.01523426 </i>
    <i name="e_0_energy">   -191.12052503 </i>
   </energy>
  </scstep>
  <scstep>
   <time name="dav">   30.10   30.17</time>
   <time name="total">   30.61   30.69</time>
   <energy>
    <i name="e_fr_energy">   -191.37576976 </i>
    <i name="e_wo_entrp">   -191.14345374 </i>
    <i name="e_0_energy">   -191.25961175 </i>
   </energy>
  </scstep>
  <scstep>
   <time name="dav">   30.23   30.30</time>
   <time name="total">   30.75   30.83</time>
   <energy>
    <i name="e_fr_energy">   -190.99846250 </i>
    <i name="e_wo_entrp">   -190.78511081 </i>
    <i name="e_0_energy">   -190.89178665 </i>
   </energy>
  </scstep>
  <scstep>
   <time name="dav">   30.46   30.53</time>
   <time name="total">   30.97   31.06</time>
   <energy>
    <i name="e_fr_energy">   -190.92077592 </i>
    <i name="e_wo_entrp">   -190.70824182 </i>
    <i name="e_0_energy">   -190.81450887 </i>
   </energy>
  </scstep>
  <scstep>
   <time name="dav">   30.41   30.48</time>
   <time name="total">   30.92   31.00</time>
   <energy>
    <i name="e_fr_energy">   -190.86923391 </i>
    <i name="e_wo_entrp">   -190.65161974 </i>
    <i name="e_0_energy">   -190.76042683 </i>
   </energy>
  </scstep>
  <scstep>
   <time name="dav">   30.94   31.01</time>
   <time name="total">   31.45   31.54</time>
   <energy>
    <i name="e_fr_energy">   -190.84629877 </i>
    <i name="e_wo_entrp">   -190.63045318 </i>
    <i name="e_0_energy">   -190.73837597 </i>
   </energy>
  </scstep>
  <scstep>
   <time name="dav">   28.60   28.67</time>
   <time name="total">   29.12   29.20</time>
   <energy>
    <i name="e_fr_energy">   -190.84463921 </i>
    <i name="e_wo_entrp">   -190.62877046 </i>
    <i name="e_0_energy">   -190.73670484 </i>
   </energy>
  </scstep>
  <scstep>
   <time name="dav">   26.64   26.70</time>
   <time name="total">   27.15   27.23</time>
   <energy>
    <i name="e_fr_energy">   -190.84373467 </i>
    <i name="e_wo_entrp">   -190.62787340 </i>
    <i name="e_0_energy">   -190.73580403 </i>
   </energy>
  </scstep>
  <scstep>
   <time name="dav">   28.00   28.06</time>
   <time name="total">   28.51   28.59</time>
   <energy>
    <i name="e_fr_energy">   -190.84396891 </i>
    <i name="e_wo_entrp">   -190.62811815 </i>
    <i name="e_0_energy">   -190.73604353 </i>
   </energy>
  </scstep>
  <scstep>
   <time name="dav">   26.12   26.19</time>
   <time name="total">   26.65   26.72</time>
   <energy>
    <i name="e_fr_energy">   -190.84377966 </i>
    <i name="e_wo_entrp">   -190.62786617 </i>
    <i name="e_0_energy">   -190.73582291 </i>
   </energy>
  </scstep>
  <scstep>
   <time name="dav">   19.52   19.57</time>
   <time name="total">   19.56   19.61</time>
   <energy>
    <i name="alphaZ">     85.80579777 </i>
    <i name="ewald">  42827.69536643 </i>
    <i name="hartreedc"> -48815.75787721 </i>
    <i name="XCdc">   -234.27336258 </i>
    <i name="pawpsdc">   4064.79573604 </i>
    <i name="pawaedc">  -3480.70774706 </i>
    <i name="eentropy">     -0.21592417 </i>
    <i name="bandstr">  -1399.62830033 </i>
    <i name="atom">   6761.44252427 </i>
    <i name="e_fr_energy">   -190.84378683 </i>
    <i name="e_wo_entrp">   -190.62786266 </i>
    <i name="e_0_energy">   -190.73582474 </i>
   </energy>
  </scstep>
  <structure>
   <crystal>
    <varray name="basis" >
     <v>       8.48846366       4.90086893       0.00000000 </v>
     <v>      -8.48666508       4.89778241       0.00000000 </v>
     <v>       0.00000000       0.00000000      30.00000000 </v>
    </varray>
    <i name="volume">   2495.00043700 </i>
    <varray name="rec_basis" >
     <v>       0.05889116       0.10204405       0.00000000 </v>
     <v>      -0.05892827       0.10206568       0.00000000 </v>
     <v>       0.00000000       0.00000000       0.03333333 </v>
    </varray>
   </crystal>
   <varray name="positions" >
    <v>       0.66594620       0.66671078       0.00027125 </v>
    <v>       0.33068866       0.33597505      -0.00010892 </v>
    <v>       0.66672106      -0.00031536       0.00012354 </v>
    <v>       1.00255179       0.34158260      -0.00016267 </v>
    <v>       0.32473012       0.66398626       0.00002635 </v>
    <v>       0.00535966       0.66306413      -0.00000205 </v>
    <v>       0.00082846       0.00006680       0.00030882 </v>
    <v>       0.32806323      -0.00833670      -0.00011576 </v>
    <v>       0.67470118       0.33740290      -0.00032476 </v>
    <v>       0.11581205       0.22379440       0.95064847 </v>
    <v>       0.22472924       0.11569062       0.04931208 </v>
    <v>       0.11105602       0.55539644       0.94792475 </v>
    <v>       0.22520782       0.44140485       0.04996372 </v>
    <v>       0.11113907       0.88951961       0.94913054 </v>
    <v>       0.22266151       0.77879133       0.05178417 </v>
    <v>       0.44216656       0.22431964       0.95174856 </v>
    <v>       0.55756180       0.10880192       0.04899615 </v>
    <v>       0.44697546       0.55299291       0.95203410 </v>
    <v>       0.55331109       0.44623735       0.04789396 </v>
    <v>       0.44954304       0.89206039       0.95051347 </v>
    <v>       0.56055208       0.78001046       0.04767524 </v>
    <v>       0.77443688       0.21704402       0.95039839 </v>
    <v>       0.88400440       0.10794489       0.04892978 </v>
    <v>       0.77445033       0.55741219       0.95061456 </v>
    <v>       0.88771144       0.44389601       0.05158675 </v>
    <v>       0.77331507       0.88682034       0.95181528 </v>
    <v>       0.88399023       0.77594063       0.04901412 </v>
   </varray>
  </structure>
  <varray name="forces" >
   <v>      -0.05638983      -0.02926054       0.04613969 </v>
   <v>      -0.33853083      -0.05849227      -0.07946807 </v>
   <v>      -0.00811955       0.03025225       0.07708030 </v>
   <v>      -0.46199690       0.36526837       0.01966953 </v>
   <v>      -0.53361083      -0.41915376      -0.00793045 </v>
   <v>       0.63246179       0.13200285      -0.00589897 </v>
   <v>       0.13474665       0.09524030       0.07122242 </v>
   <v>       0.15810208      -0.66501688      -0.05053518 </v>
   <v>       0.31815277       0.54187042      -0.06556855 </v>
   <v>      -0.05525547       0.01538688      -0.27912253 </v>
   <v>       0.03380351       0.06542292       0.28329081 </v>
   <v>       0.01812556       0.00194518      -0.78399398 </v>
   <v>      -0.04288796       0.01061563       0.48813353 </v>
   <v>       0.02578262      -0.10341052      -0.40174725 </v>
   <v>       0.02544682      -0.04870644       0.69653498 </v>
   <v>       0.05935969      -0.00300442       0.07714972 </v>
   <v>      -0.02560474      -0.00701959       0.12666501 </v>
   <v>      -0.06686077       0.00443234      -0.24940626 </v>
   <v>       0.01345646       0.00514444       0.21113135 </v>
   <v>       0.05846320      -0.04907032      -0.32495499 </v>
   <v>      -0.04683243      -0.07877434       0.19342926 </v>
   <v>       0.08164249       0.03373340      -0.39640498 </v>
   <v>      -0.04458854       0.06537340       0.16188111 </v>
   <v>       0.01927747       0.08591798      -0.31065852 </v>
   <v>       0.01255153       0.06296395       0.60252113 </v>
   <v>       0.00752516      -0.02438861      -0.29016707 </v>
   <v>       0.08178004      -0.02927260       0.19100796 </v>
  </varray>
  <varray name="stress" >
   <v>      -5.56464639       0.07830928      -0.13542804 </v>
   <v>       0.07830928      -5.68071734       0.08374494 </v>
   <v>      -0.13542804       0.08374480       4.48255264 </v>
  </varray>
  <energy>
   <i name="e_fr_energy">   -190.84378683 </i>
   <i name="e_wo_entrp">   -190.73582474 </i>
   <i name="e_0_energy">     -0.21592417 </i>
  </energy>
  <time name="totalsc">  382.45  383.47</time>
 </calculation>
 <calculation>
  <scstep>
   <time name="dav">   21.63   21.68</time>
   <time name="total">   22.14   22.19</time>
   <energy>
    <i name="alphaZ">     89.93679726 </i>
    <i name="ewald">  44563.99528825 </i>
    <i name="hartreedc"> -50604.54139652 </i>
    <i name="XCdc">   -231.95839803 </i>
    <i name="pawpsdc">   4064.75326497 </i>
    <i name="pawaedc">  -3480.66126140 </i>
    <i name="eentropy">     -0.21451748 </i>
    <i name="bandstr">  -1354.89786220 </i>
    <i name="atom">   6761.44252427 </i>
    <i name="e_fr_energy">   -192.14556088 </i>
    <i name="e_wo_entrp">   -191.93104340 </i>
    <i name="e_0_energy">   -192.03830214 </i>
   </energy>
  </scstep>
  <scstep>
   <time name="dav">   27.23   27.30</time>
   <time name="total">   27.74   27.81</time>
   <energy>
    <i name="e_fr_energy">   -191.92397904 </i>
    <i name="e_wo_entrp">   -191.70774222 </i>
    <i name="e_0_energy">   -191.81586063 </i>
   </energy>
  </scstep>
  <scstep>
   <time name="dav">   29.18   29.25</time>
   <time name="total">   29.68   29.76</time>
   <energy>
    <i name="e_fr_energy">   -191.79844544 </i>
    <i name="e_wo_entrp">   -191.57175114 </i>
    <i name="e_0_energy">   -191.68509829 </i>
   </energy>
  </scstep>
  <scstep>
   <time name="dav">   30.37   30.44</time>
   <time name="total">   30.88   30.96</time>
   <energy>
    <i name="e_fr_energy">   -191.82116666 </i>
    <i name="e_wo_entrp">   -191.61586171 </i>
    <i name="e_0_energy">   -191.71851418 </i>
   </energy>
  </scstep>
  <scstep>
   <time name="dav">   30.34   30.41</time>
   <time name="total">   30.84   30.93</time>
   <energy>
    <i name="e_fr_energy">   -191.55209751 </i>
    <i name="e_wo_entrp">   -191.33037160 </i>
    <i name="e_0_energy">   -191.44123455 </i>
   </energy>
  </scstep>
  <scstep>
   <time name="dav">   28.41   28.47</time>
   <time name="total">   28.91   28.99</time>
   <energy>
    <i name="e_fr_energy">   -191.54246492 </i>
    <i name="e_wo_entrp">   -191.32103658 </i>
    <i name="e_0_energy">   -191.43175075 </i>
   </energy>
  </scstep>
  <scstep>
   <time name="dav">   29.55   29.62</time>
   <time name="total">   30.06   30.14</time>
   <energy>
    <i name="e_fr_energy">   -191.54711958 </i>
    <i name="e_wo_entrp">   -191.32658371 </i>
    <i name="e_0_energy">   -191.43685165 </i>
   </energy>
  </scstep>
  <scstep>
   <time name="dav">   28.78   28.85</time>
   <time name="total">   29.29   29.37</time>
   <energy>
    <i name="e_fr_energy">   -191.53769669 </i>
    <i name="e_wo_entrp">   -191.31652222 </i>
    <i name="e_0_energy">   -191.42710946 </i>
   </energy>
  </scstep>
  <scstep>
   <time name="dav">   28.64   28.70</time>
   <time name="total">   29.14   29.22</time>
   <energy>
    <i name="e_fr_energy">   -191.53848861 </i>
    <i name="e_wo_entrp">   -191.31764155 </i>
    <i name="e_0_energy">   -191.42806508 </i>
   </energy>
  </scstep>
  <scstep>
   <time name="dav">   29.20   29.27</time>
   <time name="total">   29.71   29.79</time>
   <energy>
    <i name="e_fr_energy">   -191.53800620 </i>
    <i name="e_wo_entrp">   -191.31683018 </i>
    <i name="e_0_energy">   -191.42741819 </i>
   </energy>
  </scstep>
  <scstep>
   <time name="dav">   25.54   25.60</time>
   <time name="total">   26.05   26.12</time>
   <energy>
    <i name="e_fr_energy">   -191.53773826 </i>
    <i name="e_wo_entrp">   -191.31665864 </i>
    <i name="e_0_energy">   -191.42719845 </i>
   </energy>
  </scstep>
  <scstep>
   <time name="dav">   18.39   18.43</time>
   <time name="total">   18.42   18.48</time>
   <energy>
    <i name="alphaZ">     89.93679726 </i>
    <i name="ewald">  44563.99528825 </i>
    <i name="hartreedc"> -50572.94709096 </i>
    <i name="XCdc">   -233.38244563 </i>
    <i name="pawpsdc">   4087.40786960 </i>
    <i name="pawaedc">  -3503.44469509 </i>
    <i name="eentropy">     -0.22115647 </i>
    <i name="bandstr">  -1384.32480116 </i>
    <i name="atom">   6761.44252427 </i>
    <i name="e_fr_energy">   -191.53770994 </i>
    <i name="e_wo_entrp">   -191.31655347 </i>
    <i name="e_0_energy">   -191.42713170 </i>
   </energy>
  </scstep>
  <structure>
   <crystal>
    <varray name="basis" >
     <v>       8.29613896       4.78904525       0.00000000 </v>
     <v>      -8.29014879       4.77869897       0.00000000 </v>
     <v>       0.00000000       0.00000000      30.00000000 </v>
    </varray>
    <i name="volume">   2380.39945230 </i>
    <varray name="rec_basis" >
     <v>       0.06022559       0.10448014       0.00000000 </v>
     <v>      -0.06035599       0.10455563       0.00000000 </v>
     <v>       0.00000000       0.00000000       0.03333333 </v>
    </varray>
   </crystal>
   <varray name="positions" >
    <v>       0.66531214       0.66676022       0.00046340 </v>
    <v>       0.32765082       0.33746525      -0.00043045 </v>
    <v>       0.66701532       0.00015011       0.00043775 </v>
    <v>       1.00371586       0.34918972      -0.00007636 </v>
    <v>       0.31584537       0.66266882      -0.00000452 </v>
    <v>       0.01136511       0.66026424      -0.00002186 </v>
    <v>       0.00299690       0.00029689       0.00059693 </v>
    <v>       0.32125832      -0.01722024      -0.00034138 </v>
    <v>       0.68321611       0.34150732      -0.00058959 </v>
    <v>       0.11610762       0.22471154       0.94903645 </v>
    <v>       0.22600361       0.11677249       0.05093325 </v>
    <v>       0.11124067       0.55533018       0.94426408 </v>
    <v>       0.22525089       0.44157998       0.05240477 </v>
    <v>       0.11002134       0.88803397       0.94698465 </v>
    <v>       0.22218460       0.77784648       0.05510810 </v>
    <v>       0.44225301       0.22416396       0.95153480 </v>
    <v>       0.55758443       0.10865605       0.05003795 </v>
    <v>       0.44680448       0.55331776       0.95062032 </v>
    <v>       0.55317236       0.44645517       0.04917531 </v>
    <v>       0.44988819       0.89121541       0.94871865 </v>
    <v>       0.55971690       0.77960766       0.04885981 </v>
    <v>       0.77525118       0.21638647       0.94833548 </v>
    <v>       0.88398170       0.10891013       0.05007001 </v>
    <v>       0.77546544       0.55870710       0.94886767 </v>
    <v>       0.88869649       0.44459309       0.05454857 </v>
    <v>       0.77250676       0.88618676       0.95019683 </v>
    <v>       0.88370884       0.77465791       0.05026927 </v>
   </varray>
  </structure>
  <varray name="forces" >
   <v>      -0.10822941      -0.09221050       0.04424704 </v>
   <v>      -0.46322458      -0.04910158       0.00176287 </v>
   <v>       0.00269773       0.06446178       0.02128762 </v>
   <v>      -0.09662736       0.02352392      -0.06796988 </v>
   <v>      -0.05409930      -0.02925362      -0.03337474 </v>
   <v>       0.00759106       0.05116077      -0.03555517 </v>
   <v>       0.18964920       0.06437570       0.05232027 </v>
   <v>       0.09542668      -0.53769751       0.06316313 </v>
   <v>       0.26418813       0.52280308      -0.02777437 </v>
   <v>      -0.16438054      -0.05740180       0.00247014 </v>
   <v>       0.11208207       0.03738546       0.00385065 </v>
   <v>       0.02175560      -0.02608067      -0.27890637 </v>
   <v>      -0.16207657       0.01213177       0.12173027 </v>
   <v>       0.06652727      -0.21292708      -0.16974130 </v>
   <v>       0.01896861      -0.08155532       0.30088602 </v>
   <v>       0.21562999      -0.01678248       0.42462389 </v>
   <v>      -0.13078534      -0.02544292      -0.20787660 </v>
   <v>      -0.21403334      -0.01005868      -0.02476363 </v>
   <v>       0.09399185      -0.01764234      -0.08287337 </v>
   <v>       0.00584228      -0.18245861      -0.02704478 </v>
   <v>      -0.12291140      -0.19104550      -0.03222342 </v>
   <v>       0.08397359       0.14027203      -0.10602634 </v>
   <v>      -0.00961625       0.20359167      -0.08824053 </v>
   <v>       0.14067563       0.18807548      -0.02776741 </v>
   <v>      -0.00372865       0.14227326       0.25690834 </v>
   <v>       0.01904799       0.03622975       0.00799605 </v>
   <v>       0.19166507       0.04337392      -0.09110838 </v>
  </varray>
  <varray name="stress" >
   <v>       0.46025691       0.23231440      -0.19506135 </v>
   <v>       0.23231441       0.27106296       0.28945596 </v>
   <v>      -0.19506158       0.28945603      -0.68431002 </v>
  </varray>
  <energy>
   <i name="e_fr_energy">   -191.53770994 </i>
   <i name="e_wo_entrp">   -191.42713170 </i>
   <i name="e_0_energy">     -0.22115647 </i>
  </energy>
  <time name="totalsc">  375.04  376.03</time>
 </calculation>
 <calculation>
  <scstep>
   <time name="dav">   21.63   21.68</time>
   <time name="total">   22.14   22.19</time>
   <energy>
    <i name="alphaZ">     89.68764280 </i>
    <i name="ewald">  44440.27781168 </i>
    <i name="hartreedc"> -50446.95324997 </i>
    <i name="XCdc">   -233.60268817 </i>
    <i name="pawpsdc">   4087.25778647 </i>
    <i name="pawaedc">  -3503.28940931 </i>
    <i name="eentropy">     -0.22197240 </i>
    <i name="bandstr">  -1386.20972358 </i>
    <i name="atom">   6761.44252427 </i>
    <i name="e_fr_energy">   -191.61127820 </i>
    <i name="e_wo_entrp">   -191.38930580 </i>
    <i name="e_0_energy">   -191.50029200 </i>
   </energy>
  </scstep>
  <scstep>
   <time name="dav">   32.73   32.81</time>
   <time name="total">   33.23   33.32</time>
   <energy>
    <i name="e_fr_energy">   -191.66371337 </i>
    <i name="e_wo_entrp">   -191.43480915 </i>
    <i name="e_0_energy">   -191.54926126 </i>
   </energy>
  </scstep>
  <scstep>
   <time name="dav">   30.67   30.74</time>
   <time name="total">   31.17   31.26</time>
   <energy>
    <i name="e_fr_energy">   -191.62256604 </i>
    <i name="e_wo_entrp">   -191.40000675 </i>
    <i name="e_0_energy">   -191.51128640 </i>
   </energy>
  </scstep>
  <scstep>
   <time name="dav">   25.97   26.04</time>
   <time name="total">   26.48   26.55</time>
   <energy>
    <i name="e_fr_energy">   -191.62548910 </i>
    <i name="e_wo_entrp">   -191.40357875 </i>
    <i name="e_0_energy">   -191.51453392 </i>
   </energy>
  </scstep>
  <scstep>
   <time name="dav">   27.85   27.91</time>
   <time name="total">   28.35   28.43</time>
   <energy>
    <i name="e_fr_energy">   -191.61956086 </i>
    <i name="e_wo_entrp">   -191.39570580 </i>
    <i name="e_0_energy">   -191.50763333 </i>
   </energy>
  </scstep>
  <scstep>
   <time name="dav">   27.77   27.84</time>
   <time name="total">   28.27   28.35</time>
   <energy>
    <i name="e_fr_energy">   -191.62029309 </i>
    <i name="e_wo_entrp">   -191.39749465 </i>
    <i name="e_0_energy">   -191.50889387 </i>
   </energy>
  </scstep>
  <scstep>
   <time name="dav">   27.93   28.00</time>
   <time name="total">   28.44   28.52</time>
   <energy>
    <i name="e_fr_energy">   -191.61935015 </i>
    <i name="e_wo_entrp">   -191.39634913 </i>
    <i name="e_0_energy">   -191.50784964 </i>
   </energy>
  </scstep>
  <scstep>
   <time name="dav">   25.16   25.22</time>
   <time name="total">   25.67   25.74</time>
   <energy>
    <i name="e_fr_energy">   -191.61884476 </i>
    <i name="e_wo_entrp">   -191.39585229 </i>
    <i name="e_0_energy">   -191.50734853 </i>
   </energy>
  </scstep>
  <scstep>
   <time name="dav">   18.07   18.11</time>
   <time name="total">   18.11   18.16</time>
   <energy>
    <i name="alphaZ">     89.68764280 </i>
    <i name="ewald">  44440.27781168 </i>
    <i name="hartreedc"> -50449.97868851 </i>
    <i name="XCdc">   -233.49918461 </i>
    <i name="pawpsdc">   4083.93975791 </i>
    <i name="pawaedc">  -3499.92723535 </i>
    <i name="eentropy">     -0.22303328 </i>
    <i name="bandstr">  -1383.33844975 </i>
    <i name="atom">   6761.44252427 </i>
    <i name="e_fr_energy">   -191.61885485 </i>
    <i name="e_wo_entrp">   -191.39582156 </i>
    <i name="e_0_energy">   -191.50733821 </i>
   </energy>
  </scstep>
  <structure>
   <crystal>
    <varray name="basis" >
     <v>       8.31222921       4.79930492       0.00000000 </v>
     <v>      -8.30082183       4.77957227       0.00000000 </v>
     <v>       0.00000000       0.00000000      30.00000000 </v>
    </varray>
    <i name="volume">   2387.01226001 </i>
    <varray name="rec_basis" >
     <v>       0.06006972       0.10432483       0.00000000 </v>
     <v>      -0.06031772       0.10446820       0.00000000 </v>
     <v>       0.00000000       0.00000000       0.03333333 </v>
    </varray>
   </crystal>
   <varray name="positions" >
    <v>       0.66460099       0.66661741       0.00052295 </v>
    <v>       0.32626505       0.33844868      -0.00041590 </v>
    <v>       0.66731731       0.00042991       0.00045820 </v>
    <v>       1.00352199       0.34928920      -0.00018231 </v>
    <v>       0.31588514       0.66272548      -0.00005378 </v>
    <v>       0.01140937       0.66058712      -0.00007489 </v>
    <v>       0.00373781       0.00007451       0.00066524 </v>
    <v>       0.31921909      -0.01970994      -0.00023718 </v>
    <v>       0.68610644       0.34311674      -0.00062173 </v>
    <v>       0.11536464       0.22484702       0.94911159 </v>
    <v>       0.22643357       0.11659063       0.05086751 </v>
    <v>       0.11116902       0.55514874       0.94399045 </v>
    <v>       0.22485937       0.44208031       0.05248684 </v>
    <v>       0.10923728       0.88689952       0.94682052 </v>
    <v>       0.22186949       0.77744737       0.05542695 </v>
    <v>       0.44276579       0.22349349       0.95219645 </v>
    <v>       0.55709942       0.10890433       0.04967273 </v>
    <v>       0.44617338       0.55384815       0.95064511 </v>
    <v>       0.55335763       0.44610060       0.04899241 </v>
    <v>       0.44901509       0.89036245       0.94875594 </v>
    <v>       0.55849718       0.77904819       0.04875755 </v>
    <v>       0.77611824       0.21685739       0.94826296 </v>
    <v>       0.88493204       0.10986858       0.04988280 </v>
    <v>       0.77670586       0.55915616       0.94890233 </v>
    <v>       0.88932015       0.44525090       0.05481399 </v>
    <v>       0.77277367       0.88633644       0.95027961 </v>
    <v>       0.88445942       0.77439507       0.05007355 </v>
   </varray>
  </structure>
  <varray name="forces" >
   <v>      -0.12145524      -0.11904462       0.05967291 </v>
   <v>      -0.54874897      -0.02599588      -0.00482771 </v>
   <v>      -0.01068502       0.05843585       0.03398190 </v>
   <v>      -0.16933832       0.08452082      -0.01832650 </v>
   <v>      -0.10620225      -0.10990377      -0.02932557 </v>
   <v>       0.11632480       0.08102478      -0.02315275 </v>
   <v>       0.24856188       0.05398820       0.04877054 </v>
   <v>       0.10830083      -0.57821914      -0.00012225 </v>
   <v>       0.29331199       0.56031486      -0.02708012 </v>
   <v>      -0.08902499      -0.04183947      -0.01182163 </v>
   <v>       0.07870074       0.03513127      -0.01972092 </v>
   <v>       0.00755675      -0.00645731      -0.16331798 </v>
   <v>      -0.08541878      -0.01004242       0.12501441 </v>
   <v>       0.02962836      -0.12057124      -0.15887383 </v>
   <v>       0.03896041      -0.08410872       0.23393386 </v>
   <v>       0.15534895       0.00175441       0.48418935 </v>
   <v>      -0.09734086      -0.01297587      -0.21650535 </v>
   <v>      -0.11980201      -0.01318193      -0.04248394 </v>
   <v>       0.07226450      -0.02282175      -0.12146776 </v>
   <v>      -0.01684849      -0.10389802      -0.01434807 </v>
   <v>      -0.06822434      -0.08943456      -0.03610478 </v>
   <v>       0.06204856       0.08034158      -0.10816542 </v>
   <v>       0.02711972       0.11260887      -0.09878598 </v>
   <v>       0.06442135       0.12914407      -0.05366875 </v>
   <v>       0.02790932       0.10836988       0.19433616 </v>
   <v>       0.01338326       0.02646946       0.03967270 </v>
   <v>       0.08924783       0.00639063      -0.07147251 </v>
  </varray>
  <varray name="stress" >
   <v>      -0.21958032       0.03836900      -0.01349795 </v>
   <v>       0.03836915      -0.04060379       0.09403533 </v>
   <v>      -0.01349795       0.09403537      -1.21627135 </v>
  </varray>
  <energy>
   <i name="e_fr_energy">   -191.61885485 </i>
   <i name="e_wo_entrp">   -191.50733821 </i>
   <i name="e_0_energy">     -0.22303328 </i>
  </energy>
  <time name="totalsc">  283.58  284.32</time>
 </calculation>
 <calculation>
  <scstep>
   <time name="dav">   21.63   21.68</time>
   <time name="total">   22.13   22.18</time>
   <energy>
    <i name="alphaZ">     89.76441639 </i>
    <i name="ewald">  44472.75655374 </i>
    <i name="hartreedc"> -50483.26655872 </i>
    <i name="XCdc">   -233.45909791 </i>
    <i name="pawpsdc">   4083.60544355 </i>
    <i name="pawaedc">  -3499.58954542 </i>
    <i name="eentropy">     -0.22148648 </i>
    <i name="bandstr">  -1382.72471215 </i>
    <i name="atom">   6761.44252427 </i>
    <i name="e_fr_energy">   -191.69246272 </i>
    <i name="e_wo_entrp">   -191.47097624 </i>
    <i name="e_0_energy">   -191.58171948 </i>
   </energy>
  </scstep>
  <scstep>
   <time name="dav">   31.89   31.96</time>
   <time name="total">   32.39   32.48</time>
   <energy>
    <i name="e_fr_energy">   -191.72738690 </i>
    <i name="e_wo_entrp">   -191.49890373 </i>
    <i name="e_0_energy">   -191.61314531 </i>
   </energy>
  </scstep>
  <scstep>
   <time name="dav">   30.60   30.67</time>
   <time name="total">   31.11   31.19</time>
   <energy>
    <i name="e_fr_energy">   -191.69981301 </i>
    <i name="e_wo_entrp">   -191.47790766 </i>
    <i name="e_0_energy">   -191.58886033 </i>
   </energy>
  </scstep>
  <scstep>
   <time name="dav">   27.51   27.58</time>
   <time name="total">   28.02   28.09</time>
   <energy>
    <i name="e_fr_energy">   -191.70037678 </i>
    <i name="e_wo_entrp">   -191.47942951 </i>
    <i name="e_0_energy">   -191.58990314 </i>
   </energy>
  </scstep>
  <scstep>
   <time name="dav">   27.76   27.83</time>
   <time name="total">   28.26   28.34</time>
   <energy>
    <i name="e_fr_energy">   -191.69711295 </i>
    <i name="e_wo_entrp">   -191.47391745 </i>
    <i name="e_0_energy">   -191.58551520 </i>
   </energy>
  </scstep>
  <scstep>
   <time name="dav">   28.35   28.42</time>
   <time name="total">   28.85   28.93</time>
   <energy>
    <i name="e_fr_energy">   -191.69717564 </i>
    <i name="e_wo_entrp">   -191.47464706 </i>
    <i name="e_0_energy">   -191.58591135 </i>
   </energy>
  </scstep>
  <scstep>
   <time name="dav">   26.70   26.77</time>
   <time name="total">   27.20   27.28</time>
   <energy>
    <i name="e_fr_energy">   -191.69717694 </i>
    <i name="e_wo_entrp">   -191.47446636 </i>
    <i name="e_0_energy">   -191.58582165 </i>
   </energy>
  </scstep>
  <scstep>
[...]
      <set comment="kpoint 31">
       <r>  -17.4890    1.0000 </r>
       <r>  -17.2601    1.0000 </r>
       <r>  -16.9165    1.0000 </r>
       <r>  -16.6164    1.0000 </r>
       <r>  -16.5006    1.0000 </r>
       <r>  -16.3736    1.0000 </r>
       <r>  -16.3096    1.0000 </r>
       <r>  -16.2152    1.0000 </r>
       <r>  -16.0953    1.0000 </r>
       <r>  -16.0440    1.0000 </r>
       <r>  -15.9774    1.0000 </r>
       <r>  -15.8702    1.0000 </r>
       <r>  -15.7960    1.0000 </r>
       <r>  -15.6850    1.0000 </r>
       <r>  -15.6237    1.0000 </r>
       <r>  -15.5088    1.0000 </r>
       <r>  -15.4390    1.0000 </r>
       <r>  -15.2611    1.0000 </r>
       <r>   -9.7299    1.0000 </r>
       <r>   -9.4337    1.0000 </r>
       <r>   -9.2761    1.0000 </r>
       <r>   -8.9482    1.0000 </r>
       <r>   -8.8394    1.0000 </r>
       <r>   -8.7081    1.0000 </r>
       <r>   -8.5684    1.0000 </r>
       <r>   -8.4719    1.0000 </r>
       <r>   -8.3801    1.0000 </r>
       <r>   -8.3152    1.0000 </r>
       <r>   -8.2620    1.0000 </r>
       <r>   -8.2032    1.0000 </r>
       <r>   -8.1547    1.0000 </r>
       <r>   -8.0806    1.0000 </r>
       <r>   -7.9082    1.0000 </r>
       <r>   -7.8650    1.0000 </r>
       <r>   -7.7981    1.0000 </r>
       <r>   -7.7549    1.0000 </r>
       <r>   -7.5411    1.0000 </r>
       <r>   -7.4202    1.0000 </r>
       <r>   -7.3235    1.0000 </r>
       <r>   -7.2610    1.0000 </r>
       <r>   -7.1249    1.0000 </r>
       <r>   -7.0699    1.0000 </r>
       <r>   -6.9941    1.0000 </r>
       <r>   -6.8804    1.0000 </r>
       <r>   -6.8664    1.0000 </r>
       <r>   -6.7824    1.0000 </r>
       <r>   -6.7353    1.0000 </r>
       <r>   -6.5981    1.0000 </r>
       <r>   -6.5315    1.0000 </r>
       <r>   -6.4428    1.0000 </r>
       <r>   -6.4010    1.0000 </r>
       <r>   -6.3105    1.0000 </r>
       <r>   -6.2666    1.0000 </r>
       <r>   -6.2275    1.0000 </r>
       <r>   -6.1770    1.0000 </r>
       <r>   -6.0928    1.0000 </r>
       <r>   -6.0137    1.0000 </r>
       <r>   -5.9499    1.0000 </r>
       <r>   -5.8818    1.0000 </r>
       <r>   -5.8340    1.0000 </r>
       <r>   -5.7566    1.0000 </r>
       <r>   -5.6778    1.0000 </r>
       <r>   -5.6023    1.0000 </r>
       <r>   -5.3548    1.0000 </r>
       <r>   -5.2806    1.0000 </r>
       <r>   -5.1533    1.0000 </r>
       <r>   -5.0896    1.0000 </r>
       <r>   -4.9496    1.0000 </r>
       <r>   -4.9089    1.0000 </r>
       <r>   -4.6474    1.0000 </r>
       <r>   -4.5448    1.0000 </r>
       <r>   -4.4834    1.0000 </r>
       <r>   -4.4071    1.0000 </r>
       <r>   -4.2254    1.0000 </r>
       <r>   -4.1948    1.0000 </r>
       <r>   -4.0330    1.0000 </r>
       <r>   -3.8820    1.0000 </r>
       <r>   -3.6278    0.9963 </r>
       <r>   -3.5264    0.9749 </r>
       <r>   -2.9854    0.0309 </r>
       <r>   -2.9251    0.0109 </r>
       <r>   -2.7736    0.0004 </r>
       <r>   -2.5945    0.0000 </r>
       <r>   -2.5209    0.0000 </r>
       <r>   -2.4617    0.0000 </r>
       <r>   -2.4102    0.0000 </r>
       <r>   -2.2353    0.0000 </r>
       <r>   -2.1569    0.0000 </r>
       <r>   -2.0412    0.0000 </r>
       <r>   -1.9819    0.0000 </r>
       <r>   -1.9169    0.0000 </r>
       <r>   -1.6257    0.0000 </r>
       <r>   -1.4761    0.0000 </r>
       <r>   -1.2958    0.0000 </r>
       <r>   -1.2050    0.0000 </r>
       <r>   -1.1516    0.0000 </r>
       <r>   -1.1161    0.0000 </r>
       <r>   -1.0504    0.0000 </r>
       <r>   -0.9683    0.0000 </r>
       <r>   -0.9152    0.0000 </r>
       <r>   -0.8320    0.0000 </r>
       <r>   -0.7405    0.0000 </r>
       <r>   -0.6743    0.0000 </r>
       <r>   -0.5557    0.0000 </r>
       <r>   -0.4913    0.0000 </r>
       <r>   -0.2528    0.0000 </r>
       <r>   -0.1880    0.0000 </r>
       <r>   -0.1326    0.0000 </r>
       <r>   -0.0028    0.0000 </r>
       <r>    0.2555    0.0000 </r>
       <r>    0.5320    0.0000 </r>
       <r>    0.6494    0.0000 </r>
       <r>    0.8066    0.0000 </r>
       <r>    0.8852    0.0000 </r>
       <r>    0.9937    0.0000 </r>
       <r>    1.1169    0.0000 </r>
       <r>    1.3152    0.0000 </r>
       <r>    2.1171    0.0000 </r>
       <r>    2.2787    0.0000 </r>
       <r>    2.3805    0.0000 </r>
      </set>
      <set comment="kpoint 32">
       <r>  -17.5133    1.0000 </r>
       <r>  -17.1193    1.0000 </r>
       <r>  -17.0875    1.0000 </r>
       <r>  -16.6137    1.0000 </r>
       <r>  -16.4004    1.0000 </r>
       <r>  -16.3555    1.0000 </r>
       <r>  -16.3157    1.0000 </r>
       <r>  -16.2228    1.0000 </r>
       <r>  -16.1102    1.0000 </r>
       <r>  -16.0672    1.0000 </r>
       <r>  -15.9593    1.0000 </r>
       <r>  -15.9112    1.0000 </r>
       <r>  -15.7939    1.0000 </r>
       <r>  -15.7184    1.0000 </r>
       <r>  -15.6072    1.0000 </r>
       <r>  -15.5148    1.0000 </r>
       <r>  -15.3974    1.0000 </r>
       <r>  -15.2757    1.0000 </r>
       <r>   -9.6220    1.0000 </r>
       <r>   -9.5621    1.0000 </r>
       <r>   -9.3469    1.0000 </r>
       <r>   -8.9109    1.0000 </r>
       <r>   -8.7535    1.0000 </r>
       <r>   -8.5973    1.0000 </r>
       <r>   -8.5260    1.0000 </r>
       <r>   -8.4462    1.0000 </r>
       <r>   -8.4015    1.0000 </r>
       <r>   -8.3529    1.0000 </r>
       <r>   -8.2828    1.0000 </r>
       <r>   -8.2502    1.0000 </r>
       <r>   -8.1389    1.0000 </r>
       <r>   -8.0816    1.0000 </r>
       <r>   -8.0226    1.0000 </r>
       <r>   -7.9129    1.0000 </r>
       <r>   -7.7687    1.0000 </r>
       <r>   -7.7183    1.0000 </r>
       <r>   -7.5412    1.0000 </r>
       <r>   -7.4494    1.0000 </r>
       <r>   -7.3221    1.0000 </r>
       <r>   -7.2464    1.0000 </r>
       <r>   -7.1973    1.0000 </r>
       <r>   -7.0746    1.0000 </r>
       <r>   -7.0061    1.0000 </r>
       <r>   -6.8940    1.0000 </r>
       <r>   -6.8642    1.0000 </r>
       <r>   -6.7541    1.0000 </r>
       <r>   -6.6890    1.0000 </r>
       <r>   -6.6028    1.0000 </r>
       <r>   -6.5070    1.0000 </r>
       <r>   -6.4610    1.0000 </r>
       <r>   -6.4327    1.0000 </r>
       <r>   -6.3643    1.0000 </r>
       <r>   -6.2838    1.0000 </r>
       <r>   -6.2563    1.0000 </r>
       <r>   -6.1865    1.0000 </r>
       <r>   -6.0581    1.0000 </r>
       <r>   -5.9635    1.0000 </r>
       <r>   -5.9251    1.0000 </r>
       <r>   -5.8806    1.0000 </r>
       <r>   -5.7553    1.0000 </r>
       <r>   -5.6622    1.0000 </r>
       <r>   -5.6217    1.0000 </r>
       <r>   -5.5578    1.0000 </r>
       <r>   -5.4677    1.0000 </r>
       <r>   -5.3175    1.0000 </r>
       <r>   -5.2058    1.0000 </r>
       <r>   -5.0809    1.0000 </r>
       <r>   -4.9462    1.0000 </r>
       <r>   -4.9046    1.0000 </r>
       <r>   -4.6718    1.0000 </r>
       <r>   -4.5757    1.0000 </r>
       <r>   -4.4695    1.0000 </r>
       <r>   -4.3916    1.0000 </r>
       <r>   -4.2171    1.0000 </r>
       <r>   -4.1688    1.0000 </r>
       <r>   -4.0201    1.0000 </r>
       <r>   -3.8952    1.0000 </r>
       <r>   -3.6301    0.9964 </r>
       <r>   -3.4899    0.9554 </r>
       <r>   -3.1285    0.1960 </r>
       <r>   -2.9317    0.0123 </r>
       <r>   -2.7513    0.0002 </r>
       <r>   -2.5953    0.0000 </r>
       <r>   -2.4895    0.0000 </r>
       <r>   -2.4308    0.0000 </r>
       <r>   -2.3623    0.0000 </r>
       <r>   -2.2546    0.0000 </r>
       <r>   -2.1280    0.0000 </r>
       <r>   -2.0238    0.0000 </r>
       <r>   -1.9759    0.0000 </r>
       <r>   -1.9021    0.0000 </r>
       <r>   -1.7207    0.0000 </r>
       <r>   -1.4932    0.0000 </r>
       <r>   -1.2762    0.0000 </r>
       <r>   -1.1997    0.0000 </r>
       <r>   -1.1550    0.0000 </r>
       <r>   -1.0840    0.0000 </r>
       <r>   -1.0040    0.0000 </r>
       <r>   -0.9788    0.0000 </r>
       <r>   -0.9315    0.0000 </r>
       <r>   -0.8369    0.0000 </r>
       <r>   -0.7383    0.0000 </r>
       <r>   -0.6908    0.0000 </r>
       <r>   -0.5834    0.0000 </r>
       <r>   -0.5360    0.0000 </r>
       <r>   -0.3332    0.0000 </r>
       <r>   -0.1677    0.0000 </r>
       <r>   -0.0995    0.0000 </r>
       <r>    0.0652    0.0000 </r>
       <r>    0.2209    0.0000 </r>
       <r>    0.4417    0.0000 </r>
       <r>    0.6414    0.0000 </r>
       <r>    0.7418    0.0000 </r>
       <r>    0.9290    0.0000 </r>
       <r>    0.9814    0.0000 </r>
       <r>    1.2018    0.0000 </r>
       <r>    1.3617    0.0000 </r>
       <r>    2.0871    0.0000 </r>
       <r>    2.2466    0.0000 </r>
       <r>    2.5453    0.0000 </r>
      </set>
      <set comment="kpoint 33">
       <r>  -17.5071    1.0000 </r>
       <r>  -17.2268    1.0000 </r>
       <r>  -16.9326    1.0000 </r>
       <r>  -16.6134    1.0000 </r>
       <r>  -16.5034    1.0000 </r>
       <r>  -16.3991    1.0000 </r>
       <r>  -16.3106    1.0000 </r>
       <r>  -16.1633    1.0000 </r>
       <r>  -16.0925    1.0000 </r>
       <r>  -16.0292    1.0000 </r>
       <r>  -15.9446    1.0000 </r>
       <r>  -15.9232    1.0000 </r>
       <r>  -15.7966    1.0000 </r>
       <r>  -15.7520    1.0000 </r>
       <r>  -15.5923    1.0000 </r>
       <r>  -15.5226    1.0000 </r>
       <r>  -15.3817    1.0000 </r>
       <r>  -15.2947    1.0000 </r>
       <r>   -9.6853    1.0000 </r>
       <r>   -9.4329    1.0000 </r>
       <r>   -9.2783    1.0000 </r>
       <r>   -8.9339    1.0000 </r>
       <r>   -8.8553    1.0000 </r>
       <r>   -8.7633    1.0000 </r>
       <r>   -8.5462    1.0000 </r>
       <r>   -8.4169    1.0000 </r>
       <r>   -8.3745    1.0000 </r>
       <r>   -8.3319    1.0000 </r>
       <r>   -8.3016    1.0000 </r>
       <r>   -8.1998    1.0000 </r>
       <r>   -8.1163    1.0000 </r>
       <r>   -8.0601    1.0000 </r>
       <r>   -7.9970    1.0000 </r>
       <r>   -7.8394    1.0000 </r>
       <r>   -7.8072    1.0000 </r>
       <r>   -7.6456    1.0000 </r>
       <r>   -7.6002    1.0000 </r>
       <r>   -7.4793    1.0000 </r>
       <r>   -7.2853    1.0000 </r>
       <r>   -7.2476    1.0000 </r>
       <r>   -7.1453    1.0000 </r>
       <r>   -7.1187    1.0000 </r>
       <r>   -7.0135    1.0000 </r>
       <r>   -6.9781    1.0000 </r>
       <r>   -6.8427    1.0000 </r>
       <r>   -6.7767    1.0000 </r>
       <r>   -6.6381    1.0000 </r>
       <r>   -6.5777    1.0000 </r>
       <r>   -6.5387    1.0000 </r>
       <r>   -6.4852    1.0000 </r>
       <r>   -6.4101    1.0000 </r>
       <r>   -6.3552    1.0000 </r>
       <r>   -6.3087    1.0000 </r>
       <r>   -6.2330    1.0000 </r>
       <r>   -6.2022    1.0000 </r>
       <r>   -6.0720    1.0000 </r>
       <r>   -5.9972    1.0000 </r>
       <r>   -5.9357    1.0000 </r>
       <r>   -5.8659    1.0000 </r>
       <r>   -5.7891    1.0000 </r>
       <r>   -5.7435    1.0000 </r>
       <r>   -5.6551    1.0000 </r>
       <r>   -5.5753    1.0000 </r>
       <r>   -5.3967    1.0000 </r>
       <r>   -5.2788    1.0000 </r>
       <r>   -5.1745    1.0000 </r>
       <r>   -5.0522    1.0000 </r>
       <r>   -4.9264    1.0000 </r>
       <r>   -4.8004    1.0000 </r>
       <r>   -4.7490    1.0000 </r>
       <r>   -4.5548    1.0000 </r>
       <r>   -4.4357    1.0000 </r>
       <r>   -4.3303    1.0000 </r>
       <r>   -4.2416    1.0000 </r>
       <r>   -4.1611    1.0000 </r>
       <r>   -4.0439    1.0000 </r>
       <r>   -3.8997    1.0000 </r>
       <r>   -3.6412    0.9972 </r>
       <r>   -3.4947    0.9585 </r>
       <r>   -3.2599    0.5293 </r>
       <r>   -2.9123    0.0085 </r>
       <r>   -2.7452    0.0002 </r>
       <r>   -2.5831    0.0000 </r>
       <r>   -2.5129    0.0000 </r>
       <r>   -2.4023    0.0000 </r>
       <r>   -2.3248    0.0000 </r>
       <r>   -2.2710    0.0000 </r>
       <r>   -2.0991    0.0000 </r>
       <r>   -2.0053    0.0000 </r>
       <r>   -1.9461    0.0000 </r>
       <r>   -1.9004    0.0000 </r>
       <r>   -1.7517    0.0000 </r>
       <r>   -1.4965    0.0000 </r>
       <r>   -1.2681    0.0000 </r>
       <r>   -1.2070    0.0000 </r>
       <r>   -1.1316    0.0000 </r>
       <r>   -1.1112    0.0000 </r>
       <r>   -1.0071    0.0000 </r>
       <r>   -0.9574    0.0000 </r>
       <r>   -0.9222    0.0000 </r>
       <r>   -0.8492    0.0000 </r>
       <r>   -0.7709    0.0000 </r>
       <r>   -0.7059    0.0000 </r>
       <r>   -0.6146    0.0000 </r>
       <r>   -0.5083    0.0000 </r>
       <r>   -0.3838    0.0000 </r>
       <r>   -0.2267    0.0000 </r>
       <r>   -0.0947    0.0000 </r>
       <r>    0.1154    0.0000 </r>
       <r>    0.1824    0.0000 </r>
       <r>    0.4074    0.0000 </r>
       <r>    0.6181    0.0000 </r>
       <r>    0.6754    0.0000 </r>
       <r>    0.9674    0.0000 </r>
       <r>    1.0036    0.0000 </r>
       <r>    1.2895    0.0000 </r>
       <r>    1.4531    0.0000 </r>
       <r>    2.1187    0.0000 </r>
       <r>    2.2764    0.0000 </r>
       <r>    2.3735    0.0000 </r>
      </set>
      <set comment="kpoint 34">
       <r>  -17.4942    1.0000 </r>
       <r>  -17.2827    1.0000 </r>
       <r>  -16.7717    1.0000 </r>
       <r>  -16.6809    1.0000 </r>
       <r>  -16.5935    1.0000 </r>
       <r>  -16.4112    1.0000 </r>
       <r>  -16.3033    1.0000 </r>
       <r>  -16.1573    1.0000 </r>
       <r>  -16.0852    1.0000 </r>
       <r>  -15.9828    1.0000 </r>
       <r>  -15.9381    1.0000 </r>
       <r>  -15.9165    1.0000 </r>
       <r>  -15.7953    1.0000 </r>
       <r>  -15.7755    1.0000 </r>
       <r>  -15.5860    1.0000 </r>
       <r>  -15.5273    1.0000 </r>
       <r>  -15.3828    1.0000 </r>
       <r>  -15.3026    1.0000 </r>
       <r>   -9.7239    1.0000 </r>
       <r>   -9.2718    1.0000 </r>
       <r>   -9.2120    1.0000 </r>
       <r>   -9.0127    1.0000 </r>
       <r>   -8.9742    1.0000 </r>
       <r>   -8.8595    1.0000 </r>
       <r>   -8.5545    1.0000 </r>
       <r>   -8.4326    1.0000 </r>
       <r>   -8.3845    1.0000 </r>
       <r>   -8.2822    1.0000 </r>
       <r>   -8.2778    1.0000 </r>
       <r>   -8.2244    1.0000 </r>
       <r>   -8.1046    1.0000 </r>
       <r>   -8.0376    1.0000 </r>
       <r>   -7.9182    1.0000 </r>
       <r>   -7.8340    1.0000 </r>
       <r>   -7.8022    1.0000 </r>
       <r>   -7.6273    1.0000 </r>
       <r>   -7.5663    1.0000 </r>
       <r>   -7.4464    1.0000 </r>
       <r>   -7.4132    1.0000 </r>
       <r>   -7.1994    1.0000 </r>
       <r>   -7.1458    1.0000 </r>
       <r>   -7.1201    1.0000 </r>
       <r>   -7.0388    1.0000 </r>
       <r>   -6.9710    1.0000 </r>
       <r>   -6.8546    1.0000 </r>
       <r>   -6.7230    1.0000 </r>
       <r>   -6.6323    1.0000 </r>
       <r>   -6.6013    1.0000 </r>
       <r>   -6.5517    1.0000 </r>
       <r>   -6.4678    1.0000 </r>
       <r>   -6.3639    1.0000 </r>
       <r>   -6.3545    1.0000 </r>
       <r>   -6.2925    1.0000 </r>
       <r>   -6.2808    1.0000 </r>
       <r>   -6.2486    1.0000 </r>
       <r>   -6.1344    1.0000 </r>
       <r>   -5.9896    1.0000 </r>
       <r>   -5.9384    1.0000 </r>
       <r>   -5.8777    1.0000 </r>
       <r>   -5.8153    1.0000 </r>
       <r>   -5.7484    1.0000 </r>
       <r>   -5.6481    1.0000 </r>
       <r>   -5.6012    1.0000 </r>
       <r>   -5.4497    1.0000 </r>
       <r>   -5.2473    1.0000 </r>
       <r>   -5.0624    1.0000 </r>
       <r>   -4.9733    1.0000 </r>
       <r>   -4.9579    1.0000 </r>
       <r>   -4.8880    1.0000 </r>
       <r>   -4.6788    1.0000 </r>
       <r>   -4.5443    1.0000 </r>
       <r>   -4.3991    1.0000 </r>
       <r>   -4.2775    1.0000 </r>
       <r>   -4.2407    1.0000 </r>
       <r>   -4.2010    1.0000 </r>
       <r>   -4.0613    1.0000 </r>
       <r>   -3.9093    1.0000 </r>
       <r>   -3.6478    0.9976 </r>
       <r>   -3.5167    0.9706 </r>
       <r>   -3.3074    0.6587 </r>
       <r>   -2.8937    0.0059 </r>
       <r>   -2.7497    0.0002 </r>
       <r>   -2.5605    0.0000 </r>
       <r>   -2.5468    0.0000 </r>
       <r>   -2.3988    0.0000 </r>
       <r>   -2.3041    0.0000 </r>
       <r>   -2.2803    0.0000 </r>
       <r>   -2.0859    0.0000 </r>
       <r>   -2.0029    0.0000 </r>
       <r>   -1.9422    0.0000 </r>
       <r>   -1.8866    0.0000 </r>
       <r>   -1.7460    0.0000 </r>
       <r>   -1.4922    0.0000 </r>
       <r>   -1.2689    0.0000 </r>
       <r>   -1.1953    0.0000 </r>
       <r>   -1.1516    0.0000 </r>
       <r>   -1.1137    0.0000 </r>
       <r>   -1.0238    0.0000 </r>
       <r>   -0.9450    0.0000 </r>
       <r>   -0.8940    0.0000 </r>
       <r>   -0.8651    0.0000 </r>
       <r>   -0.7909    0.0000 </r>
       <r>   -0.7303    0.0000 </r>
       <r>   -0.6335    0.0000 </r>
       <r>   -0.4674    0.0000 </r>
       <r>   -0.3671    0.0000 </r>
       <r>   -0.2902    0.0000 </r>
       <r>   -0.1076    0.0000 </r>
       <r>    0.1217    0.0000 </r>
       <r>    0.1685    0.0000 </r>
       <r>    0.4089    0.0000 </r>
       <r>    0.5980    0.0000 </r>
       <r>    0.6646    0.0000 </r>
       <r>    0.9731    0.0000 </r>
       <r>    1.0262    0.0000 </r>
       <r>    1.3322    0.0000 </r>
       <r>    1.4987    0.0000 </r>
       <r>    2.2035    0.0000 </r>
       <r>    2.2210    0.0000 </r>
       <r>    2.3702    0.0000 </r>
      </set>
     </set>
    </set>
   </array>
  </eigenvalues>
  <separator name="orbital magnetization" >
   <v name="MAGDIPOLOUT">      0.00000000      0.00000000      0.00000000</v>
  </separator>
 </calculation>
 <structure name="finalpos" >
  <crystal>
   <varray name="basis" >
    <v>       8.38973908       4.84195681       0.00000000 </v>
    <v>      -8.38019919       4.82555825       0.00000000 </v>
    <v>       0.00000000       0.00000000      30.00000000 </v>
   </varray>
   <i name="volume">   2431.85211397 </i>
   <varray name="rec_basis" >
    <v>       0.05952942       0.10338045       0.00000000 </v>
    <v>      -0.05973172       0.10349814       0.00000000 </v>
    <v>       0.00000000       0.00000000       0.03333333 </v>
   </varray>
  </crystal>
  <varray name="positions" >
   <v>       0.64263321       0.66705041      -0.00033345 </v>
   <v>       0.31477896       0.35169369      -0.00061220 </v>
   <v>       0.63268235      -0.01597159       0.00067724 </v>
   <v>       1.01362510       0.36689730       0.00024340 </v>
   <v>       0.32535324       0.66498844      -0.00000520 </v>
   <v>       0.01923966       0.66507328      -0.00001908 </v>
   <v>       0.01673298      -0.02281881       0.00178455 </v>
   <v>       0.31460908      -0.03301069      -0.00005098 </v>
   <v>       0.70589224       0.35585848      -0.00161818 </v>
   <v>       0.10998002       0.22017163       0.95167098 </v>
   <v>       0.23078280       0.11529630       0.04980310 </v>
   <v>       0.11681921       0.55959884       0.94315901 </v>
   <v>       0.22356533       0.44530704       0.05453525 </v>
   <v>       0.11356264       0.88345327       0.94403343 </v>
   <v>       0.22353855       0.77353299       0.05689564 </v>
   <v>       0.44522744       0.22540912       0.95968925 </v>
   <v>       0.55648573       0.11277047       0.04864544 </v>
   <v>       0.44151344       0.55223036       0.94831604 </v>
   <v>       0.55083475       0.44540252       0.04587742 </v>
   <v>       0.44598902       0.88865953       0.94580173 </v>
   <v>       0.55682170       0.78093533       0.05115807 </v>
   <v>       0.78113048       0.21844754       0.95010928 </v>
   <v>       0.88714655       0.10689740       0.04054825 </v>
   <v>       0.78128199       0.56689371       0.95026843 </v>
   <v>       0.89474263       0.44957351       0.05624473 </v>
   <v>       0.77373319       0.88861434       0.95373861 </v>
   <v>       0.87951218       0.76526005       0.04943913 </v>
  </varray>
 </structure>
</modeling>
