   27   27  100    1
  0.9710400E+02  0.1002848E-08  0.1002848E-08  0.3000000E-08  0.5000000E-15
  1.000000000000000E-004
  CAR 
 unknown system                          
    159     34    120
 
  0.0000000E+00  0.0000000E+00  0.0000000E+00  0.1562500E-01
    1      -17.811732   1.000000
    2      -16.720434   1.000000
    3      -16.656747   1.000000
    4      -16.580404   1.000000
    5      -16.503041   1.000000
    6      -16.450257   1.000000
    7      -16.388387   1.000000
    8      -16.286912   1.000000
    9      -16.168617   1.000000
   10      -16.125892   1.000000
   11      -16.048342   1.000000
   12      -15.943897   1.000000
   13      -15.880093   1.000000
   14      -15.710858   1.000000
   15      -15.589749   1.000000
   16      -15.507643   1.000000
   17      -15.438506   1.000000
   18      -15.225272   1.000000
   19       -9.420336   1.000000
   20       -9.024998   1.000000
   21       -8.933605   1.000000
   22       -8.855786   1.000000
   23       -8.702649   1.000000
   24       -8.660428   1.000000
   25       -8.590332   1.000000
   26       -8.558824   1.000000
   27       -8.496777   1.000000
   28       -8.449372   1.000000
   29       -8.405680   1.000000
   30       -8.398347   1.000000
   31       -8.304666   1.000000
   32       -8.151809   1.000000
   33       -8.078636   1.000000
   34       -8.003689   1.000000
   35       -7.881523   1.000000
   36       -7.726593   1.000000
   37       -7.709128   1.000000
   38       -7.557065   1.000000
   39       -7.516052   1.000000
   40       -7.428954   1.000000
   41       -7.361748   1.000000
   42       -7.180383   1.000000
   43       -7.122800   1.000000
   44       -6.935731   1.000000
   45       -6.823136   1.000000
   46       -6.803938   1.000000
   47       -6.755873   1.000000
   48       -6.681179   1.000000
   49       -6.644720   1.000000
   50       -6.473407   1.000000
   51       -6.432282   1.000000
   52       -6.355010   1.000000
   53       -6.276471   1.000000
   54       -6.212345   1.000000
   55       -6.156113   1.000000
   56       -6.076574   1.000000
   57       -6.008405   1.000000
   58       -5.947260   1.000000
   59       -5.750991   1.000000
   60       -5.693789   1.000000
   61       -5.452570   1.000000
   62       -5.320959   1.000000
   63       -5.317452   1.000000
   64       -5.192472   1.000000
   65       -5.062708   1.000000
   66       -4.944709   1.000000
   67       -4.875527   1.000000
   68       -4.828156   1.000000
   69       -4.797750   1.000000
   70       -4.746825   1.000000
   71       -4.585392   1.000000
   72       -4.576979   1.000000
   73       -4.507654   1.000000
   74       -4.455779   1.000000
   75       -4.224254   1.000000
   76       -3.983889   0.999995
   77       -3.768102   0.998041
   78       -3.678361   0.987781
   79       -3.600870   0.955642
   80       -3.386285   0.573336
   81       -3.159963   0.078466
   82       -2.866092   0.000238
   83       -2.707940   0.000002
   84       -2.670592   0.000001
   85       -2.644548   0.000000
   86       -2.460396   0.000000
   87       -2.356541   0.000000
   88       -2.271570   0.000000
   89       -2.158463   0.000000
   90       -2.146769   0.000000
   91       -1.707431   0.000000
   92       -1.605106   0.000000
   93       -1.561037   0.000000
   94       -1.357532   0.000000
   95       -1.228597   0.000000
   96       -1.073569   0.000000
   97       -0.934383   0.000000
   98       -0.845218   0.000000
   99       -0.730622   0.000000
  100       -0.666985   0.000000
  101       -0.566244   0.000000
  102       -0.556521   0.000000
  103       -0.470031   0.000000
  104       -0.311705   0.000000
  105       -0.118824   0.000000
  106       -0.068711   0.000000
  107       -0.004256   0.000000
  108        0.032043   0.000000
  109        0.128110   0.000000
  110        0.260115   0.000000
  111        0.418339   0.000000
  112        0.473712   0.000000
  113        0.564007   0.000000
  114        0.690784   0.000000
  115        0.892378   0.000000
  116        1.006648   0.000000
  117        1.264360   0.000000
  118        1.644361   0.000000
  119        1.837670   0.000000
  120        2.161784   0.000000
 
  0.1250000E+00  0.2775558E-16  0.0000000E+00  0.3125000E-01
    1      -17.786834   1.000000
    2      -16.774247   1.000000
    3      -16.693359   1.000000
    4      -16.650819   1.000000
    5      -16.502577   1.000000
    6      -16.405540   1.000000
    7      -16.378922   1.000000
    8      -16.278735   1.000000
    9      -16.185793   1.000000
   10      -16.094643   1.000000
   11      -15.990207   1.000000
   12      -15.944058   1.000000
   13      -15.832381   1.000000
   14      -15.711238   1.000000
   15      -15.597045   1.000000
   16      -15.515712   1.000000
   17      -15.444811   1.000000
   18      -15.237941   1.000000
   19       -9.417980   1.000000
   20       -9.115052   1.000000
   21       -9.064098   1.000000
   22       -8.966842   1.000000
   23       -8.754942   1.000000
   24       -8.670290   1.000000
   25       -8.612511   1.000000
   26       -8.580936   1.000000
   27       -8.499838   1.000000
   28       -8.434464   1.000000
   29       -8.363901   1.000000
   30       -8.291423   1.000000
   31       -8.217584   1.000000
   32       -8.055223   1.000000
   33       -8.028611   1.000000
   34       -7.914302   1.000000
   35       -7.803492   1.000000
   36       -7.758550   1.000000
   37       -7.671045   1.000000
   38       -7.576363   1.000000
   39       -7.456377   1.000000
   40       -7.422587   1.000000
   41       -7.340990   1.000000
   42       -7.180418   1.000000
   43       -7.132764   1.000000
   44       -6.971513   1.000000
   45       -6.936543   1.000000
   46       -6.874127   1.000000
   47       -6.736312   1.000000
   48       -6.639572   1.000000
   49       -6.585355   1.000000
   50       -6.515053   1.000000
   51       -6.430820   1.000000
   52       -6.325522   1.000000
   53       -6.295102   1.000000
   54       -6.198829   1.000000
   55       -6.148136   1.000000
   56       -6.110128   1.000000
   57       -5.981171   1.000000
   58       -5.906328   1.000000
   59       -5.719461   1.000000
   60       -5.671727   1.000000
   61       -5.459715   1.000000
   62       -5.366150   1.000000
   63       -5.283806   1.000000
   64       -5.259696   1.000000
   65       -5.141111   1.000000
   66       -5.063199   1.000000
   67       -4.979337   1.000000
   68       -4.879471   1.000000
   69       -4.750755   1.000000
   70       -4.717195   1.000000
   71       -4.622850   1.000000
   72       -4.504773   1.000000
   73       -4.390043   1.000000
   74       -4.375783   1.000000
   75       -4.150508   1.000000
   76       -3.966007   0.999991
   77       -3.848720   0.999725
   78       -3.766234   0.997957
   79       -3.570077   0.931159
   80       -3.446040   0.728209
   81       -3.092971   0.029434
   82       -2.865500   0.000235
   83       -2.723549   0.000003
   84       -2.689691   0.000001
   85       -2.628973   0.000000
   86       -2.472072   0.000000
   87       -2.358919   0.000000
   88       -2.235121   0.000000
   89       -2.141808   0.000000
   90       -2.112909   0.000000
   91       -1.690016   0.000000
   92       -1.599021   0.000000
   93       -1.545359   0.000000
   94       -1.361098   0.000000
   95       -1.215366   0.000000
   96       -1.083427   0.000000
   97       -0.957945   0.000000
   98       -0.848704   0.000000
   99       -0.775839   0.000000
  100       -0.686277   0.000000
  101       -0.597009   0.000000
  102       -0.583464   0.000000
  103       -0.501429   0.000000
  104       -0.353971   0.000000
  105       -0.196625   0.000000
  106       -0.108938   0.000000
  107       -0.069703   0.000000
  108        0.010371   0.000000
  109        0.062798   0.000000
  110        0.288561   0.000000
  111        0.396664   0.000000
  112        0.522379   0.000000
  113        0.623667   0.000000
  114        0.736930   0.000000
  115        0.908646   0.000000
  116        1.046598   0.000000
  117        1.269053   0.000000
  118        1.688870   0.000000
  119        1.875118   0.000000
  120        2.196985   0.000000
 
  0.2500000E+00  0.5551115E-16  0.0000000E+00  0.3125000E-01
    1      -17.713948   1.000000
    2      -16.969606   1.000000
    3      -16.722273   1.000000
    4      -16.680945   1.000000
    5      -16.555407   1.000000
    6      -16.414266   1.000000
    7      -16.321249   1.000000
    8      -16.238922   1.000000
    9      -16.150682   1.000000
   10      -16.063743   1.000000
   11      -15.979985   1.000000
   12      -15.855816   1.000000
   13      -15.740731   1.000000
   14      -15.714455   1.000000
   15      -15.602530   1.000000
   16      -15.544052   1.000000
   17      -15.458724   1.000000
   18      -15.268381   1.000000
   19       -9.529360   1.000000
   20       -9.263327   1.000000
   21       -9.190451   1.000000
   22       -9.089952   1.000000
   23       -8.834827   1.000000
   24       -8.741502   1.000000
   25       -8.614453   1.000000
   26       -8.553702   1.000000
   27       -8.510127   1.000000
   28       -8.406621   1.000000
   29       -8.252155   1.000000
   30       -8.183832   1.000000
   31       -8.100740   1.000000
   32       -8.010922   1.000000
   33       -7.966945   1.000000
   34       -7.817079   1.000000
   35       -7.798131   1.000000
   36       -7.664530   1.000000
   37       -7.577152   1.000000
   38       -7.514707   1.000000
   39       -7.438965   1.000000
   40       -7.339911   1.000000
   41       -7.276612   1.000000
   42       -7.221828   1.000000
   43       -7.107808   1.000000
   44       -7.027002   1.000000
   45       -6.959273   1.000000
   46       -6.841969   1.000000
   47       -6.746277   1.000000
   48       -6.663906   1.000000
   49       -6.585109   1.000000
   50       -6.485206   1.000000
   51       -6.417507   1.000000
   52       -6.358773   1.000000
   53       -6.275247   1.000000
   54       -6.201100   1.000000
   55       -6.123029   1.000000
   56       -6.048029   1.000000
   57       -5.972945   1.000000
   58       -5.849019   1.000000
   59       -5.723270   1.000000
   60       -5.679715   1.000000
   61       -5.599775   1.000000
   62       -5.487918   1.000000
   63       -5.427505   1.000000
   64       -5.297641   1.000000
   65       -5.282655   1.000000
   66       -5.126843   1.000000
   67       -5.008113   1.000000
   68       -4.845630   1.000000
   69       -4.793087   1.000000
   70       -4.676290   1.000000
   71       -4.576390   1.000000
   72       -4.399925   1.000000
   73       -4.316682   1.000000
   74       -4.258917   1.000000
   75       -4.149676   1.000000
   76       -4.032694   0.999999
   77       -3.909765   0.999949
   78       -3.828346   0.999535
   79       -3.520949   0.872250
   80       -3.423049   0.671780
   81       -3.073558   0.021360
   82       -2.871009   0.000271
   83       -2.777371   0.000019
   84       -2.678884   0.000001
   85       -2.601560   0.000000
   86       -2.501962   0.000000
   87       -2.363663   0.000000
   88       -2.149376   0.000000
   89       -2.096523   0.000000
   90       -2.037354   0.000000
   91       -1.697306   0.000000
   92       -1.583533   0.000000
   93       -1.467655   0.000000
   94       -1.370689   0.000000
   95       -1.195246   0.000000
   96       -1.119346   0.000000
   97       -1.017732   0.000000
   98       -0.901902   0.000000
   99       -0.850954   0.000000
  100       -0.753550   0.000000
  101       -0.664385   0.000000
  102       -0.596397   0.000000
  103       -0.562356   0.000000
  104       -0.449399   0.000000
  105       -0.330567   0.000000
  106       -0.236409   0.000000
  107       -0.212503   0.000000
  108       -0.036519   0.000000
  109        0.008673   0.000000
  110        0.277759   0.000000
  111        0.349110   0.000000
  112        0.560511   0.000000
  113        0.708415   0.000000
  114        0.798021   0.000000
  115        1.064885   0.000000
  116        1.121363   0.000000
  117        1.291499   0.000000
  118        1.812853   0.000000
  119        1.983911   0.000000
  120        2.301386   0.000000
 
  0.3750000E+00  0.0000000E+00  0.0000000E+00  0.3125000E-01
    1      -17.601810   1.000000
    2      -17.176266   1.000000
    3      -16.763656   1.000000
    4      -16.665915   1.000000
    5      -16.601386   1.000000
    6      -16.444652   1.000000
    7      -16.269567   1.000000
    8      -16.213769   1.000000
    9      -16.124265   1.000000
   10      -16.040765   1.000000
   11      -15.912742   1.000000
   12      -15.800609   1.000000
   13      -15.721700   1.000000
   14      -15.698852   1.000000
   15      -15.608059   1.000000
   16      -15.562184   1.000000
   17      -15.462306   1.000000
   18      -15.297199   1.000000
   19       -9.722647   1.000000
   20       -9.350210   1.000000
   21       -9.229989   1.000000
   22       -9.108612   1.000000
   23       -8.911177   1.000000
   24       -8.782546   1.000000
   25       -8.634191   1.000000
   26       -8.520305   1.000000
   27       -8.470677   1.000000
   28       -8.284450   1.000000
   29       -8.260519   1.000000
   30       -8.178563   1.000000
   31       -8.064919   1.000000
   32       -7.994463   1.000000
   33       -7.905646   1.000000
   34       -7.840247   1.000000
   35       -7.767159   1.000000
   36       -7.644494   1.000000
   37       -7.569991   1.000000
   38       -7.527678   1.000000
   39       -7.449884   1.000000
   40       -7.298303   1.000000
   41       -7.179209   1.000000
   42       -7.120665   1.000000
   43       -7.030503   1.000000
   44       -6.985436   1.000000
   45       -6.882418   1.000000
   46       -6.744407   1.000000
   47       -6.716324   1.000000
   48       -6.643346   1.000000
   49       -6.528361   1.000000
   50       -6.463395   1.000000
   51       -6.384927   1.000000
   52       -6.313317   1.000000
   53       -6.281648   1.000000
   54       -6.173220   1.000000
   55       -6.124103   1.000000
   56       -6.055463   1.000000
   57       -5.972918   1.000000
   58       -5.926487   1.000000
   59       -5.862018   1.000000
   60       -5.783302   1.000000
   61       -5.702953   1.000000
   62       -5.590410   1.000000
   63       -5.541315   1.000000
   64       -5.360930   1.000000
   65       -5.302735   1.000000
   66       -5.128553   1.000000
   67       -4.981367   1.000000
   68       -4.862670   1.000000
   69       -4.760830   1.000000
   70       -4.688794   1.000000
   71       -4.598691   1.000000
   72       -4.458041   1.000000
   73       -4.341442   1.000000
   74       -4.249510   1.000000
   75       -4.116397   1.000000
   76       -4.031240   0.999999
   77       -3.833147   0.999588
   78       -3.736779   0.996130
   79       -3.524923   0.878030
   80       -3.370414   0.528957
   81       -3.088980   0.027594
   82       -2.872305   0.000281
   83       -2.815862   0.000059
   84       -2.673091   0.000001
   85       -2.609260   0.000000
   86       -2.514555   0.000000
   87       -2.330131   0.000000
   88       -2.111905   0.000000
   89       -2.042976   0.000000
   90       -1.957765   0.000000
   91       -1.702002   0.000000
   92       -1.577889   0.000000
   93       -1.423519   0.000000
   94       -1.331428   0.000000
   95       -1.222211   0.000000
   96       -1.175968   0.000000
   97       -1.044509   0.000000
   98       -0.998616   0.000000
   99       -0.910944   0.000000
  100       -0.805399   0.000000
  101       -0.700075   0.000000
  102       -0.639584   0.000000
  103       -0.595511   0.000000
  104       -0.532584   0.000000
  105       -0.421000   0.000000
  106       -0.351310   0.000000
  107       -0.317195   0.000000
  108       -0.134801   0.000000
  109       -0.017482   0.000000
  110        0.207440   0.000000
  111        0.349313   0.000000
  112        0.600811   0.000000
  113        0.725899   0.000000
  114        0.868188   0.000000
  115        1.170974   0.000000
  116        1.223718   0.000000
  117        1.337690   0.000000
  118        1.998613   0.000000
  119        2.157159   0.000000
  120        2.469773   0.000000
 
  0.5000000E+00  0.1110223E-15  0.0000000E+00  0.1562500E-01
    1      -17.511923   1.000000
    2      -17.299938   1.000000
    3      -16.778573   1.000000
    4      -16.654504   1.000000
    5      -16.621752   1.000000
    6      -16.457012   1.000000
    7      -16.252855   1.000000
    8      -16.206939   1.000000
    9      -16.115345   1.000000
   10      -16.032638   1.000000
   11      -15.862250   1.000000
   12      -15.777148   1.000000
   13      -15.726069   1.000000
   14      -15.677108   1.000000
   15      -15.671617   1.000000
   16      -15.543548   1.000000
   17      -15.456207   1.000000
   18      -15.307600   1.000000
   19       -9.798832   1.000000
   20       -9.385321   1.000000
   21       -9.265536   1.000000
   22       -9.059784   1.000000
   23       -8.945960   1.000000
   24       -8.791218   1.000000
   25       -8.633230   1.000000
   26       -8.575994   1.000000
   27       -8.386238   1.000000
   28       -8.324853   1.000000
   29       -8.187669   1.000000
   30       -8.135650   1.000000
   31       -8.051143   1.000000
   32       -8.046138   1.000000
   33       -7.879566   1.000000
   34       -7.845050   1.000000
   35       -7.771853   1.000000
   36       -7.652875   1.000000
   37       -7.647985   1.000000
   38       -7.524163   1.000000
   39       -7.486239   1.000000
   40       -7.294507   1.000000
   41       -7.135437   1.000000
   42       -7.034732   1.000000
   43       -6.947302   1.000000
   44       -6.903839   1.000000
   45       -6.775110   1.000000
   46       -6.670555   1.000000
   47       -6.649283   1.000000
   48       -6.607699   1.000000
   49       -6.568672   1.000000
   50       -6.550961   1.000000
   51       -6.443300   1.000000
   52       -6.341395   1.000000
   53       -6.271398   1.000000
   54       -6.220451   1.000000
   55       -6.162830   1.000000
   56       -6.011646   1.000000
   57       -5.939882   1.000000
   58       -5.888148   1.000000
   59       -5.842189   1.000000
   60       -5.804056   1.000000
   61       -5.666123   1.000000
   62       -5.638962   1.000000
   63       -5.587054   1.000000
   64       -5.513279   1.000000
   65       -5.353996   1.000000
   66       -5.132152   1.000000
   67       -5.066478   1.000000
   68       -4.866282   1.000000
   69       -4.791630   1.000000
   70       -4.624863   1.000000
   71       -4.550689   1.000000
   72       -4.464196   1.000000
   73       -4.411817   1.000000
   74       -4.279699   1.000000
   75       -4.043041   0.999999
   76       -4.006817   0.999998
   77       -3.824523   0.999488
   78       -3.643114   0.977300
   79       -3.552891   0.913552
   80       -3.377294   0.548272
   81       -3.069204   0.019832
   82       -2.878359   0.000329
   83       -2.832874   0.000096
   84       -2.682311   0.000001
   85       -2.612559   0.000000
   86       -2.513206   0.000000
   87       -2.308209   0.000000
   88       -2.076710   0.000000
   89       -2.057115   0.000000
   90       -1.923483   0.000000
   91       -1.694499   0.000000
   92       -1.576483   0.000000
   93       -1.416894   0.000000
   94       -1.286708   0.000000
   95       -1.265962   0.000000
   96       -1.207003   0.000000
   97       -1.059924   0.000000
   98       -1.026480   0.000000
   99       -0.907430   0.000000
  100       -0.847028   0.000000
  101       -0.725366   0.000000
  102       -0.666760   0.000000
  103       -0.588850   0.000000
  104       -0.536983   0.000000
  105       -0.499143   0.000000
  106       -0.396992   0.000000
  107       -0.330654   0.000000
  108       -0.182755   0.000000
  109       -0.027672   0.000000
  110        0.184012   0.000000
  111        0.346386   0.000000
  112        0.614889   0.000000
  113        0.730115   0.000000
  114        0.897828   0.000000
  115        1.192105   0.000000
  116        1.270593   0.000000
  117        1.365110   0.000000
  118        2.219170   0.000000
  119        2.249990   0.000000
  120        2.378836   0.000000
 
  0.0000000E+00  0.1250000E+00  0.0000000E+00  0.3125000E-01
    1      -17.787475   1.000000
    2      -16.785521   1.000000
    3      -16.684404   1.000000
    4      -16.610618   1.000000
    5      -16.557084   1.000000
    6      -16.413335   1.000000
    7      -16.353936   1.000000
    8      -16.284075   1.000000
    9      -16.163872   1.000000
   10      -16.088038   1.000000
   11      -15.997848   1.000000
   12      -15.958089   1.000000
   13      -15.840822   1.000000
   14      -15.703280   1.000000
   15      -15.600945   1.000000
   16      -15.512158   1.000000
   17      -15.448351   1.000000
   18      -15.235835   1.000000
   19       -9.428961   1.000000
   20       -9.121741   1.000000
   21       -9.013648   1.000000
   22       -8.959472   1.000000
   23       -8.762758   1.000000
   24       -8.672133   1.000000
   25       -8.608282   1.000000
   26       -8.549216   1.000000
   27       -8.516139   1.000000
   28       -8.493731   1.000000
   29       -8.401802   1.000000
   30       -8.254771   1.000000
   31       -8.191852   1.000000
   32       -8.090711   1.000000
   33       -7.988947   1.000000
   34       -7.901079   1.000000
   35       -7.846355   1.000000
   36       -7.727997   1.000000
   37       -7.688633   1.000000
   38       -7.570746   1.000000
   39       -7.481390   1.000000
   40       -7.396388   1.000000
   41       -7.352520   1.000000
   42       -7.190524   1.000000
   43       -7.149034   1.000000
   44       -6.987463   1.000000
   45       -6.920424   1.000000
   46       -6.831408   1.000000
   47       -6.734576   1.000000
   48       -6.653655   1.000000
   49       -6.596945   1.000000
   50       -6.507744   1.000000
   51       -6.421639   1.000000
   52       -6.336968   1.000000
   53       -6.272637   1.000000
   54       -6.206297   1.000000
   55       -6.161347   1.000000
   56       -6.098584   1.000000
   57       -5.997232   1.000000
   58       -5.927383   1.000000
   59       -5.744483   1.000000
   60       -5.614416   1.000000
   61       -5.465535   1.000000
   62       -5.391024   1.000000
   63       -5.330646   1.000000
   64       -5.213044   1.000000
   65       -5.131715   1.000000
   66       -5.027180   1.000000
   67       -4.921672   1.000000
   68       -4.893736   1.000000
   69       -4.827170   1.000000
   70       -4.764015   1.000000
   71       -4.588860   1.000000
   72       -4.476250   1.000000
   73       -4.377206   1.000000
   74       -4.347152   1.000000
   75       -4.189686   1.000000
   76       -3.975478   0.999993
   77       -3.827016   0.999519
   78       -3.703986   0.992479
   79       -3.614876   0.964169
   80       -3.517650   0.867309
   81       -3.027430   0.009321
   82       -2.862229   0.000215
   83       -2.743695   0.000007
   84       -2.718171   0.000003
   85       -2.603269   0.000000
   86       -2.448831   0.000000
   87       -2.332589   0.000000
   88       -2.269431   0.000000
   89       -2.162120   0.000000
   90       -2.113578   0.000000
   91       -1.685249   0.000000
   92       -1.604410   0.000000
   93       -1.554273   0.000000
   94       -1.349266   0.000000
   95       -1.210607   0.000000
   96       -1.076388   0.000000
   97       -0.950870   0.000000
   98       -0.849624   0.000000
   99       -0.770368   0.000000
  100       -0.710978   0.000000
  101       -0.604411   0.000000
  102       -0.583341   0.000000
  103       -0.540155   0.000000
  104       -0.364737   0.000000
  105       -0.180731   0.000000
  106       -0.097136   0.000000
  107       -0.029333   0.000000
  108        0.024824   0.000000
  109        0.096956   0.000000
  110        0.233730   0.000000
  111        0.356933   0.000000
  112        0.470650   0.000000
  113        0.587555   0.000000
  114        0.826487   0.000000
  115        0.903252   0.000000
  116        1.058270   0.000000
  117        1.291808   0.000000
  118        1.687998   0.000000
  119        1.876617   0.000000
  120        2.196928   0.000000
 
  0.1250000E+00  0.1250000E+00  0.0000000E+00  0.3125000E-01
    1      -17.738702   1.000000
    2      -16.889845   1.000000
    3      -16.767261   1.000000
    4      -16.668611   1.000000
    5      -16.499573   1.000000
    6      -16.401069   1.000000
    7      -16.364785   1.000000
    8      -16.240287   1.000000
    9      -16.141702   1.000000
   10      -16.103070   1.000000
   11      -16.009874   1.000000
   12      -15.842190   1.000000
   13      -15.784178   1.000000
   14      -15.698590   1.000000
   15      -15.609151   1.000000
   16      -15.515285   1.000000
   17      -15.464321   1.000000
   18      -15.266412   1.000000
   19       -9.480858   1.000000
   20       -9.251985   1.000000
   21       -9.158514   1.000000
   22       -9.045159   1.000000
   23       -8.823208   1.000000
   24       -8.684903   1.000000
   25       -8.590732   1.000000
   26       -8.554077   1.000000
   27       -8.462916   1.000000
   28       -8.419414   1.000000
   29       -8.370382   1.000000
   30       -8.276187   1.000000
   31       -8.113926   1.000000
   32       -8.098914   1.000000
   33       -7.975983   1.000000
   34       -7.834059   1.000000
   35       -7.705022   1.000000
   36       -7.650178   1.000000
   37       -7.593197   1.000000
   38       -7.494080   1.000000
   39       -7.393403   1.000000
   40       -7.364717   1.000000
   41       -7.331449   1.000000
   42       -7.225627   1.000000
   43       -7.132271   1.000000
   44       -7.068349   1.000000
   45       -6.987596   1.000000
   46       -6.896485   1.000000
   47       -6.751848   1.000000
   48       -6.645936   1.000000
   49       -6.589562   1.000000
   50       -6.506646   1.000000
   51       -6.410927   1.000000
   52       -6.340775   1.000000
   53       -6.269136   1.000000
   54       -6.186161   1.000000
   55       -6.124219   1.000000
   56       -6.091642   1.000000
   57       -5.938280   1.000000
   58       -5.871145   1.000000
   59       -5.707249   1.000000
   60       -5.627595   1.000000
   61       -5.560458   1.000000
   62       -5.456030   1.000000
   63       -5.378649   1.000000
   64       -5.301308   1.000000
   65       -5.203030   1.000000
   66       -5.133416   1.000000
   67       -5.057264   1.000000
   68       -4.879531   1.000000
   69       -4.785976   1.000000
   70       -4.708872   1.000000
   71       -4.585149   1.000000
   72       -4.416369   1.000000
   73       -4.281732   1.000000
   74       -4.204673   1.000000
   75       -4.130231   1.000000
   76       -4.036827   0.999999
   77       -3.952433   0.999986
   78       -3.782578   0.998592
   79       -3.564420   0.925697
   80       -3.482935   0.807383
   81       -3.018643   0.007873
   82       -2.877841   0.000324
   83       -2.791055   0.000029
   84       -2.714086   0.000002
   85       -2.592762   0.000000
   86       -2.449991   0.000000
   87       -2.361647   0.000000
   88       -2.205955   0.000000
   89       -2.133415   0.000000
   90       -2.077019   0.000000
   91       -1.695373   0.000000
   92       -1.563794   0.000000
   93       -1.507235   0.000000
   94       -1.342916   0.000000
   95       -1.182072   0.000000
   96       -1.106681   0.000000
   97       -0.996942   0.000000
   98       -0.860292   0.000000
   99       -0.842974   0.000000
  100       -0.725345   0.000000
  101       -0.638354   0.000000
  102       -0.616698   0.000000
  103       -0.581689   0.000000
  104       -0.443859   0.000000
  105       -0.279583   0.000000
  106       -0.203149   0.000000
  107       -0.106650   0.000000
  108       -0.020074   0.000000
  109        0.023240   0.000000
  110        0.190039   0.000000
  111        0.336960   0.000000
  112        0.485209   0.000000
  113        0.662558   0.000000
  114        0.885435   0.000000
  115        1.002607   0.000000
  116        1.124892   0.000000
  117        1.347297   0.000000
  118        1.773671   0.000000
  119        1.947783   0.000000
  120        2.267152   0.000000
 
  0.2500000E+00  0.1250000E+00  0.0000000E+00  0.3125000E-01
    1      -17.645490   1.000000
    2      -17.066841   1.000000
    3      -16.875197   1.000000
    4      -16.649576   1.000000
    5      -16.493532   1.000000
    6      -16.421936   1.000000
    7      -16.311920   1.000000
    8      -16.212323   1.000000
    9      -16.117507   1.000000
   10      -16.074672   1.000000
   11      -15.991720   1.000000
   12      -15.781480   1.000000
   13      -15.737603   1.000000
   14      -15.697891   1.000000
   15      -15.586592   1.000000
   16      -15.539518   1.000000
   17      -15.470333   1.000000
   18      -15.300911   1.000000
   19       -9.633351   1.000000
   20       -9.419566   1.000000
   21       -9.210551   1.000000
   22       -9.119901   1.000000
   23       -8.829837   1.000000
   24       -8.705581   1.000000
   25       -8.595500   1.000000
   26       -8.488179   1.000000
   27       -8.445536   1.000000
   28       -8.366814   1.000000
   29       -8.268922   1.000000
   30       -8.224646   1.000000
   31       -8.121889   1.000000
   32       -8.077084   1.000000
   33       -7.982900   1.000000
   34       -7.888827   1.000000
   35       -7.775172   1.000000
   36       -7.564590   1.000000
   37       -7.484826   1.000000
   38       -7.421849   1.000000
   39       -7.384198   1.000000
   40       -7.328173   1.000000
   41       -7.264598   1.000000
   42       -7.185404   1.000000
   43       -7.082677   1.000000
   44       -6.992014   1.000000
   45       -6.903160   1.000000
   46       -6.843917   1.000000
   47       -6.732197   1.000000