       N       E                     dE             d eps       ncg     rms          rms(c)
DAV:   1     0.112430823127E+04    0.11243E+04   -0.35866E+04  8160   0.577E+02
DAV:   2    -0.194701235565E+01   -0.11263E+04   -0.10835E+04 11040   0.173E+02
DAV:   3    -0.199626654337E+03   -0.19768E+03   -0.18962E+03 10880   0.821E+01
DAV:   4    -0.208944142385E+03   -0.93175E+01   -0.90081E+01 11960   0.263E+01
DAV:   5    -0.209312739169E+03   -0.36860E+00   -0.36756E+00 11600   0.385E+00    0.275E+01
DAV:   6    -0.237223003892E+03   -0.27910E+02   -0.10634E+02 12640   0.605E+01    0.595E+01
DAV:   7    -0.196468519275E+03    0.40754E+02   -0.17619E+02 13240   0.152E+02    0.200E+01
DAV:   8    -0.189425601758E+03    0.70429E+01   -0.17599E+01 11800   0.127E+01    0.125E+01
DAV:   9    -0.188229053347E+03    0.11965E+01   -0.35828E+00 12400   0.614E+00    0.929E+00
DAV:  10    -0.187079423594E+03    0.11496E+01   -0.20069E+00 13280   0.732E+00    0.319E+00
DAV:  11    -0.187029516298E+03    0.49907E-01   -0.72208E-01 13520   0.321E+00    0.342E+00
DAV:  12    -0.187173529557E+03   -0.14401E+00   -0.11479E+00 12720   0.556E+00    0.487E+00
DAV:  13    -0.186926995984E+03    0.24653E+00   -0.49589E-01 13240   0.360E+00    0.215E+00
DAV:  14    -0.186879709083E+03    0.47287E-01   -0.11153E-01 13360   0.163E+00    0.774E-01
DAV:  15    -0.186881632300E+03   -0.19232E-02   -0.41853E-02 12480   0.118E+00    0.118E+00
DAV:  16    -0.186872617233E+03    0.90151E-02   -0.20712E-02 13360   0.811E-01    0.565E-01
DAV:  17    -0.186869283236E+03    0.33340E-02   -0.98624E-03 12760   0.519E-01    0.220E-01
DAV:  18    -0.186869092313E+03    0.19092E-03   -0.20521E-03 12080   0.150E-01    0.153E-01
DAV:  19    -0.186868744867E+03    0.34745E-03   -0.89787E-04 11160   0.104E-01    0.510E-02
DAV:  20    -0.186869510869E+03   -0.76600E-03   -0.74255E-04  9200   0.627E-02    0.540E-02
DAV:  21    -0.186870116987E+03   -0.60612E-03   -0.20921E-04  8080   0.455E-02    0.324E-02
DAV:  22    -0.186871226041E+03   -0.11091E-02   -0.17931E-04  7520   0.419E-02    0.331E-02
DAV:  23    -0.186872453381E+03   -0.12273E-02   -0.13127E-04  7600   0.408E-02    0.119E-02
DAV:  24    -0.186873038817E+03   -0.58544E-03   -0.25084E-05  6840   0.133E-02    0.759E-03
DAV:  25    -0.186873417572E+03   -0.37875E-03   -0.15728E-05  5600   0.118E-02    0.486E-03
DAV:  26    -0.186873636296E+03   -0.21872E-03   -0.82929E-06  6880   0.712E-03    0.208E-03
DAV:  27    -0.186873739942E+03   -0.10365E-03   -0.38279E-06  6960   0.408E-03    0.127E-03
DAV:  28    -0.186873790185E+03   -0.50243E-04   -0.20964E-06  7240   0.299E-03
   1 F= -.18687379E+03 E0= -.18670212E+03  d E =-.186874E+03
       N       E                     dE             d eps       ncg     rms          rms(c)
DAV:   1    -0.187499215726E+03   -0.62548E+00   -0.27028E+02  8160   0.349E+01    0.465E+00
DAV:   2    -0.189500816686E+03   -0.20016E+01   -0.20288E+01 12240   0.156E+01    0.985E+00
DAV:   3    -0.189340456312E+03    0.16036E+00   -0.49436E+00 12440   0.126E+01    0.628E+00
DAV:   4    -0.188767321643E+03    0.57313E+00   -0.55953E-01 11840   0.439E+00    0.201E+00
DAV:   5    -0.188899903398E+03   -0.13258E+00   -0.48382E-01 12200   0.390E+00    0.550E+00
DAV:   6    -0.188742327206E+03    0.15758E+00   -0.78674E-01 12680   0.436E+00    0.229E+00
DAV:   7    -0.188712327039E+03    0.30000E-01   -0.21102E-01 11680   0.214E+00    0.203E+00
DAV:   8    -0.188695389483E+03    0.16938E-01   -0.11971E-01 12880   0.209E+00    0.173E+00
DAV:   9    -0.188670363527E+03    0.25026E-01   -0.47786E-02 11960   0.113E+00    0.507E-01
DAV:  10    -0.188668691073E+03    0.16725E-02   -0.58690E-03 11160   0.273E-01    0.259E-01
DAV:  11    -0.188668137495E+03    0.55358E-03   -0.28850E-03 13120   0.223E-01    0.139E-01
DAV:  12    -0.188668075274E+03    0.62220E-04   -0.10810E-03 11800   0.103E-01    0.104E-01
DAV:  13    -0.188668054813E+03    0.20462E-04   -0.27037E-04  7520   0.678E-02
   2 F= -.18866805E+03 E0= -.18852820E+03  d E =-.179426E+01
       N       E                     dE             d eps       ncg     rms          rms(c)
DAV:   1    -0.190590449067E+03   -0.19224E+01   -0.31014E+01  9200   0.142E+01    0.446E+00
DAV:   2    -0.190573112338E+03    0.17337E-01   -0.28209E+00 11120   0.969E+00    0.741E+00
DAV:   3    -0.190062370769E+03    0.51074E+00   -0.13084E+00 12280   0.868E+00    0.416E+00
DAV:   4    -0.189856138122E+03    0.20623E+00   -0.68884E-01 12760   0.413E+00    0.248E+00
DAV:   5    -0.189791472453E+03    0.64666E-01   -0.31239E-01 11080   0.236E+00    0.199E+00
DAV:   6    -0.189759744924E+03    0.31728E-01   -0.10523E-01 12720   0.193E+00    0.844E-01
DAV:   7    -0.189752284983E+03    0.74599E-02   -0.14996E-02 12560   0.589E-01    0.195E-01
DAV:   8    -0.189752303816E+03   -0.18834E-04   -0.26900E-03 10440   0.158E-01    0.139E-01
DAV:   9    -0.189752528165E+03   -0.22435E-03   -0.10607E-03 10520   0.120E-01    0.138E-01
DAV:  10    -0.189752693052E+03   -0.16489E-03   -0.97562E-04 10400   0.197E-01    0.188E-01
DAV:  11    -0.189752394281E+03    0.29877E-03   -0.53082E-04  9520   0.160E-01    0.357E-02
DAV:  12    -0.189752400809E+03   -0.65285E-05   -0.58144E-05  5920   0.354E-02
   3 F= -.18975240E+03 E0= -.18963509E+03  d E =-.108435E+01
       N       E                     dE             d eps       ncg     rms          rms(c)
DAV:   1    -0.191295787054E+03   -0.15434E+01   -0.71079E+01  8160   0.193E+01    0.461E+00
DAV:   2    -0.191186676006E+03    0.10911E+00   -0.54046E+00 13400   0.839E+00    0.520E+00
DAV:   3    -0.191235167837E+03   -0.48492E-01   -0.15751E+00 11680   0.922E+00    0.685E+00
DAV:   4    -0.190908094527E+03    0.32707E+00   -0.15644E+00 12520   0.785E+00    0.410E+00
DAV:   5    -0.190895877647E+03    0.12217E-01   -0.86755E-01 11200   0.587E+00    0.360E+00
DAV:   6    -0.190712762601E+03    0.18312E+00   -0.20615E-01 11240   0.297E+00    0.601E-01
DAV:   7    -0.190711292260E+03    0.14703E-02   -0.36861E-02 11360   0.692E-01    0.450E-01
DAV:   8    -0.190707812442E+03    0.34798E-02   -0.70889E-03 10200   0.335E-01    0.147E-01
DAV:   9    -0.190708510409E+03   -0.69797E-03   -0.17891E-03 12360   0.255E-01    0.247E-01
DAV:  10    -0.190708268278E+03    0.24213E-03   -0.16366E-03 10480   0.292E-01    0.145E-01
DAV:  11    -0.190708076689E+03    0.19159E-03   -0.60279E-04  9880   0.132E-01    0.434E-02
DAV:  12    -0.190708089058E+03   -0.12369E-04   -0.13214E-04  6600   0.445E-02
   4 F= -.19070809E+03 E0= -.19060968E+03  d E =-.955688E+00
       N       E                     dE             d eps       ncg     rms          rms(c)
DAV:   1    -0.192099842026E+03   -0.13918E+01   -0.14506E+02  8160   0.271E+01    0.575E+00
DAV:   2    -0.191940661308E+03    0.15918E+00   -0.95004E+00 12240   0.938E+00    0.546E+00
DAV:   3    -0.192384617687E+03   -0.44396E+00   -0.32444E+00 12240   0.125E+01    0.932E+00
DAV:   4    -0.191533065382E+03    0.85155E+00   -0.21311E+00 12280   0.105E+01    0.299E+00
DAV:   5    -0.191506062560E+03    0.27003E-01   -0.53417E-01 11840   0.484E+00    0.411E+00
DAV:   6    -0.191370394327E+03    0.13567E+00   -0.57385E-01 12200   0.509E+00    0.157E+00
DAV:   7    -0.191346587095E+03    0.23807E-01   -0.69274E-02 11920   0.144E+00    0.687E-01
DAV:   8    -0.191345210323E+03    0.13768E-02   -0.24595E-02 12080   0.111E+00    0.749E-01
DAV:   9    -0.191339645182E+03    0.55651E-02   -0.97883E-03 11440   0.743E-01    0.225E-01
DAV:  10    -0.191339784823E+03   -0.13964E-03   -0.26937E-03 11640   0.219E-01    0.113E-01
DAV:  11    -0.191339662832E+03    0.12199E-03   -0.82800E-04 10720   0.106E-01    0.636E-02
DAV:  12    -0.191339626871E+03    0.35961E-04   -0.13758E-04  7200   0.471E-02
   5 F= -.19133963E+03 E0= -.19124641E+03  d E =-.631538E+00
       N       E                     dE             d eps       ncg     rms          rms(c)
DAV:   1    -0.191389971848E+03   -0.50309E-01   -0.41556E+00  8160   0.432E+00    0.604E-01
DAV:   2    -0.191446821398E+03   -0.56850E-01   -0.22754E-01 12560   0.262E+00    0.224E+00
DAV:   3    -0.191399738187E+03    0.47083E-01   -0.10935E-01 12040   0.224E+00    0.515E-01
DAV:   4    -0.191400026121E+03   -0.28793E-03   -0.14156E-02 11480   0.807E-01    0.561E-01
DAV:   5    -0.191396809144E+03    0.32170E-02   -0.63752E-03 11440   0.583E-01    0.179E-01
DAV:   6    -0.191396869075E+03   -0.59932E-04   -0.20096E-03 11400   0.279E-01    0.215E-01
DAV:   7    -0.191396852673E+03    0.16402E-04   -0.22288E-03 11040   0.356E-01    0.199E-01
DAV:   8    -0.191396391742E+03    0.46093E-03   -0.77413E-04  9560   0.187E-01    0.282E-02
DAV:   9    -0.191396407324E+03   -0.15582E-04   -0.86235E-05  6280   0.361E-02
   6 F= -.19139641E+03 E0= -.19130088E+03  d E =-.567805E-01
       N       E                     dE             d eps       ncg     rms          rms(c)
DAV:   1    -0.191467540279E+03   -0.71149E-01   -0.10950E+01  8160   0.699E+00    0.928E-01
DAV:   2    -0.191591501247E+03   -0.12396E+00   -0.46555E-01 13040   0.359E+00    0.358E+00
DAV:   3    -0.191485063275E+03    0.10644E+00   -0.31479E-01 12000   0.350E+00    0.899E-01
DAV:   4    -0.191484125820E+03    0.93746E-03   -0.37347E-02 11640   0.131E+00    0.894E-01
DAV:   5    -0.191475919597E+03    0.82062E-02   -0.17155E-02 11680   0.942E-01    0.314E-01
DAV:   6    -0.191476027070E+03   -0.10747E-03   -0.61305E-03 11320   0.512E-01    0.387E-01
DAV:   7    -0.191475243365E+03    0.78371E-03   -0.55551E-03 11240   0.564E-01    0.255E-01
DAV:   8    -0.191474459224E+03    0.78414E-03   -0.15043E-03 10600   0.251E-01    0.468E-02
DAV:   9    -0.191474443111E+03    0.16112E-04   -0.17072E-04  6720   0.544E-02
   7 F= -.19147444E+03 E0= -.19137683E+03  d E =-.780358E-01
       N       E                     dE             d eps       ncg     rms          rms(c)
DAV:   1    -0.191514196871E+03   -0.39738E-01   -0.31426E+00  8160   0.378E+00    0.533E-01
DAV:   2    -0.191556474862E+03   -0.42278E-01   -0.15823E-01 12560   0.229E+00    0.205E+00
DAV:   3    -0.191518982140E+03    0.37493E-01   -0.88873E-02 12120   0.196E+00    0.454E-01
DAV:   4    -0.191519550019E+03   -0.56788E-03   -0.11810E-02 11440   0.745E-01    0.528E-01
DAV:   5    -0.191516740636E+03    0.28094E-02   -0.61173E-03 11440   0.546E-01    0.185E-01
DAV:   6    -0.191516930544E+03   -0.18991E-03   -0.23859E-03 11120   0.336E-01    0.248E-01
DAV:   7    -0.191516490004E+03    0.44054E-03   -0.19421E-03 10440   0.330E-01    0.124E-01
DAV:   8    -0.191516277207E+03    0.21280E-03   -0.41186E-04  8480   0.122E-01    0.262E-02
DAV:   9    -0.191516273865E+03    0.33415E-05   -0.66666E-05  7000   0.337E-02
   8 F= -.19151627E+03 E0= -.19141845E+03  d E =-.418308E-01
       N       E                     dE             d eps       ncg     rms          rms(c)
DAV:   1    -0.191592961568E+03   -0.76684E-01   -0.14658E+01  8160   0.819E+00    0.102E+00
DAV:   2    -0.191728107421E+03   -0.13515E+00   -0.59307E-01 12600   0.394E+00    0.375E+00
DAV:   3    -0.191619561997E+03    0.10855E+00   -0.35216E-01 12280   0.360E+00    0.968E-01
DAV:   4    -0.191620807835E+03   -0.12458E-02   -0.47627E-02 11360   0.153E+00    0.108E+00
DAV:   5    -0.191607926828E+03    0.12881E-01   -0.24108E-02 11720   0.114E+00    0.369E-01
DAV:   6    -0.191608414107E+03   -0.48728E-03   -0.86405E-03 11560   0.627E-01    0.459E-01
DAV:   7    -0.191607271289E+03    0.11428E-02   -0.76975E-03 11560   0.692E-01    0.299E-01
DAV:   8    -0.191605964609E+03    0.13067E-02   -0.20890E-03 11000   0.310E-01    0.520E-02
DAV:   9    -0.191605952318E+03    0.12291E-04   -0.28397E-04  8200   0.622E-02
   9 F= -.19160595E+03 E0= -.19151144E+03  d E =-.896785E-01
       N       E                     dE             d eps       ncg     rms          rms(c)
DAV:   1    -0.191609626283E+03   -0.36617E-02   -0.23334E-02  8160   0.329E-01    0.450E-02
DAV:   2    -0.191609817718E+03   -0.19143E-03   -0.11249E-03 12360   0.156E-01    0.122E-01
DAV:   3    -0.191609679993E+03    0.13772E-03   -0.39265E-04  7720   0.137E-01    0.477E-02
DAV:   4    -0.191609676301E+03    0.36919E-05   -0.82315E-05  5680   0.628E-02
  10 F= -.19160968E+03 E0= -.19151539E+03  d E =-.372398E-02
       N       E                     dE             d eps       ncg     rms          rms(c)
DAV:   1    -0.191610255989E+03   -0.57600E-03   -0.14107E-01  8160   0.878E-01    0.244E-01
DAV:   2    -0.191612845464E+03   -0.25895E-02   -0.14568E-02 11320   0.776E-01    0.596E-01
DAV:   3    -0.191608926004E+03    0.39195E-02   -0.73236E-03 10720   0.671E-01    0.168E-01
DAV:   4    -0.191609315206E+03   -0.38920E-03   -0.27487E-03 10440   0.359E-01    0.291E-01
DAV:   5    -0.191608685216E+03    0.62999E-03   -0.26237E-03  9800   0.349E-01    0.161E-01
DAV:   6    -0.191608482068E+03    0.20315E-03   -0.91524E-04  9720   0.189E-01    0.109E-01
DAV:   7    -0.191608363896E+03    0.11817E-03   -0.27038E-04  7480   0.125E-01    0.280E-02
DAV:   8    -0.191608364568E+03   -0.67219E-06   -0.35053E-05  6480   0.339E-02
  11 F= -.19160836E+03 E0= -.19151445E+03  d E =0.131173E-02
       N       E                     dE             d eps       ncg     rms          rms(c)
DAV:   1    -0.191655085243E+03   -0.46721E-01   -0.31447E+00  8160   0.386E+00    0.556E-01
DAV:   2    -0.191670128805E+03   -0.15044E-01   -0.12808E-01 13320   0.165E+00    0.118E+00
DAV:   3    -0.191657388849E+03    0.12740E-01   -0.41198E-02 12160   0.149E+00    0.483E-01
DAV:   4    -0.191656935689E+03    0.45316E-03   -0.11865E-02 12240   0.753E-01    0.552E-01
DAV:   5    -0.191654397114E+03    0.25386E-02   -0.86322E-03 11920   0.711E-01    0.320E-01
DAV:   6    -0.191654125181E+03    0.27193E-03   -0.47038E-03 11040   0.440E-01    0.293E-01
DAV:   7    -0.191653429529E+03    0.69565E-03   -0.26183E-03 10960   0.380E-01    0.142E-01
DAV:   8    -0.191653190949E+03    0.23858E-03   -0.52354E-04  8600   0.150E-01    0.355E-02
DAV:   9    -0.191653166958E+03    0.23991E-04   -0.74142E-05  7440   0.370E-02
  12 F= -.19165317E+03 E0= -.19156192E+03  d E =-.448024E-01
       N       E                     dE             d eps       ncg     rms          rms(c)
DAV:   1    -0.191702687349E+03   -0.49496E-01   -0.40009E+00  8160   0.429E+00    0.439E-01
DAV:   2    -0.191710863530E+03   -0.81762E-02   -0.11689E-01 12120   0.101E+00    0.477E-01
DAV:   3    -0.191712863202E+03   -0.19997E-02   -0.20723E-02 11480   0.965E-01    0.686E-01
DAV:   4    -0.191708364277E+03    0.44989E-02   -0.93544E-03 11440   0.699E-01    0.288E-01
DAV:   5    -0.191707865650E+03    0.49863E-03   -0.31042E-03 11240   0.422E-01    0.245E-01
DAV:   6    -0.191707636799E+03    0.22885E-03   -0.25663E-03 11640   0.378E-01    0.169E-01
DAV:   7    -0.191707248210E+03    0.38859E-03   -0.96072E-04  9800   0.194E-01    0.800E-02
DAV:   8    -0.191707204843E+03    0.43366E-04   -0.25359E-04  8080   0.124E-01
  13 F= -.19170720E+03 E0= -.19162066E+03  d E =-.540379E-01
       N       E                     dE             d eps       ncg     rms          rms(c)
DAV:   1    -0.191644642521E+03    0.62606E-01   -0.44706E+00  8160   0.451E+00    0.442E-01
DAV:   2    -0.191652673318E+03   -0.80308E-02   -0.12647E-01 12280   0.960E-01    0.305E-01
DAV:   3    -0.191653665827E+03   -0.99251E-03   -0.12620E-02 11320   0.615E-01    0.508E-01
DAV:   4    -0.191651837470E+03    0.18284E-02   -0.86760E-03 11080   0.644E-01    0.371E-01
DAV:   5    -0.191650533740E+03    0.13037E-02   -0.36024E-03 11200   0.362E-01    0.150E-01
DAV:   6    -0.191650985748E+03   -0.45201E-03   -0.20520E-03 12400   0.334E-01    0.237E-01
DAV:   7    -0.191650257706E+03    0.72804E-03   -0.92866E-04 10080   0.254E-01    0.322E-02
DAV:   8    -0.191650267949E+03   -0.10243E-04   -0.82646E-05  6120   0.496E-02
  14 F= -.19165027E+03 E0= -.19155873E+03  d E =0.569369E-01
       N       E                     dE             d eps       ncg     rms          rms(c)
DAV:   1    -0.191600735032E+03    0.49523E-01   -0.49320E+00  8160   0.478E+00    0.535E-01
DAV:   2    -0.191612749066E+03   -0.12014E-01   -0.15247E-01 13360   0.132E+00    0.753E-01
DAV:   3    -0.191612492570E+03    0.25650E-03   -0.35001E-02 12480   0.129E+00    0.821E-01
DAV:   4    -0.191607244741E+03    0.52478E-02   -0.15852E-02 12440   0.834E-01    0.416E-01
DAV:   5    -0.191606037183E+03    0.12076E-02   -0.60893E-03 10960   0.564E-01    0.313E-01
DAV:   6    -0.191605355075E+03    0.68211E-03   -0.37389E-03 11880   0.427E-01    0.166E-01
DAV:   7    -0.191605012519E+03    0.34256E-03   -0.12697E-03 10920   0.209E-01    0.108E-01
DAV:   8    -0.191604924959E+03    0.87560E-04   -0.44901E-04  9480   0.159E-01
  15 F= -.19160492E+03 E0= -.19151133E+03  d E =0.453430E-01
       N       E                     dE             d eps       ncg     rms          rms(c)
DAV:   1    -0.191582241315E+03    0.22771E-01   -0.23473E+00  8160   0.330E+00    0.353E-01
DAV:   2    -0.191586943238E+03   -0.47019E-02   -0.68066E-02 12680   0.757E-01    0.386E-01
DAV:   3    -0.191588136535E+03   -0.11933E-02   -0.12674E-02 12280   0.757E-01    0.578E-01
DAV:   4    -0.191585402526E+03    0.27340E-02   -0.69356E-03 11840   0.590E-01    0.243E-01
DAV:   5    -0.191584843473E+03    0.55905E-03   -0.22191E-03 11200   0.281E-01    0.188E-01
DAV:   6    -0.191584968060E+03   -0.12459E-03   -0.20480E-03 10280   0.346E-01    0.203E-01
DAV:   7    -0.191584492526E+03    0.47553E-03   -0.82957E-04  9200   0.206E-01    0.480E-02
DAV:   8    -0.191584489998E+03    0.25284E-05   -0.99969E-05  6400   0.810E-02
  16 F= -.19158449E+03 E0= -.19149098E+03  d E =0.204350E-01
       N       E                     dE             d eps       ncg     rms          rms(c)
DAV:   1    -0.191603169711E+03   -0.18677E-01   -0.13836E+00  8160   0.254E+00    0.317E-01
DAV:   2    -0.191614912001E+03   -0.11742E-01   -0.54457E-02 13560   0.114E+00    0.104E+00
DAV:   3    -0.191605557751E+03    0.93543E-02   -0.20836E-02 12040   0.102E+00    0.273E-01
DAV:   4    -0.191606056479E+03   -0.49873E-03   -0.36033E-03 11160   0.435E-01    0.352E-01
DAV:   5    -0.191604770686E+03    0.12858E-02   -0.25775E-03 10040   0.405E-01    0.119E-01
DAV:   6    -0.191604893389E+03   -0.12270E-03   -0.88695E-04 10280   0.195E-01    0.139E-01
DAV:   7    -0.191604723888E+03    0.16950E-03   -0.57007E-04  9080   0.200E-01    0.782E-02
DAV:   8    -0.191604636232E+03    0.87656E-04   -0.11476E-04  5840   0.792E-02
  17 F= -.19160464E+03 E0= -.19151351E+03  d E =-.201462E-01
       N       E                     dE             d eps       ncg     rms          rms(c)
DAV:   1    -0.191613733393E+03   -0.90095E-02   -0.62228E-01  8160   0.171E+00    0.205E-01
DAV:   2    -0.191615820619E+03   -0.20872E-02   -0.20585E-02 13360   0.570E-01    0.356E-01
DAV:   3    -0.191614781052E+03    0.10396E-02   -0.44663E-03 12320   0.507E-01    0.222E-01
DAV:   4    -0.191614608968E+03    0.17208E-03   -0.18996E-03 10680   0.290E-01    0.216E-01
DAV:   5    -0.191614239003E+03    0.36996E-03   -0.11955E-03  9640   0.252E-01    0.116E-01
DAV:   6    -0.191614153765E+03    0.85239E-04   -0.51995E-04  8440   0.139E-01
  18 F= -.19161415E+03 E0= -.19152248E+03  d E =-.951753E-02
       N       E                     dE             d eps       ncg     rms          rms(c)
DAV:   1    -0.191642542514E+03   -0.28304E-01   -0.25918E+00  8160   0.344E+00    0.403E-01
DAV:   2    -0.191658068685E+03   -0.15526E-01   -0.95060E-02 13000   0.135E+00    0.116E+00
DAV:   3    -0.191647415183E+03    0.10654E-01   -0.32566E-02 11360   0.118E+00    0.406E-01
DAV:   4    -0.191647436310E+03   -0.21127E-04   -0.66026E-03 11360   0.589E-01    0.411E-01
DAV:   5    -0.191645465099E+03    0.19712E-02   -0.33217E-03 11040   0.471E-01    0.133E-01
DAV:   6    -0.191645621285E+03   -0.15619E-03   -0.14922E-03 10480   0.220E-01    0.156E-01
DAV:   7    -0.191645473064E+03    0.14822E-03   -0.10485E-03 10560   0.254E-01    0.132E-01
DAV:   8    -0.191645265440E+03    0.20762E-03   -0.33734E-04  8440   0.144E-01    0.239E-02
DAV:   9    -0.191645262886E+03    0.25546E-05   -0.39925E-05  6440   0.274E-02
  19 F= -.19164526E+03 E0= -.19155540E+03  d E =-.311091E-01
       N       E                     dE             d eps       ncg     rms          rms(c)
DAV:   1    -0.191669156911E+03   -0.23891E-01   -0.17552E+00  8160   0.282E+00    0.307E-01
DAV:   2    -0.191677873921E+03   -0.87170E-02   -0.57528E-02 12600   0.975E-01    0.840E-01
DAV:   3    -0.191672473383E+03    0.54005E-02   -0.17700E-02 11880   0.887E-01    0.315E-01
DAV:   4    -0.191671843200E+03    0.63018E-03   -0.28775E-03 11160   0.328E-01    0.215E-01
DAV:   5    -0.191671468167E+03    0.37503E-03   -0.16016E-03 10680   0.309E-01    0.155E-01
DAV:   6    -0.191671385594E+03    0.82573E-04   -0.10530E-03 10000   0.218E-01    0.109E-01
DAV:   7    -0.191671324365E+03    0.61229E-04   -0.49384E-04  9000   0.169E-01
  20 F= -.19167132E+03 E0= -.19158363E+03  d E =-.260615E-01
       N       E                     dE             d eps       ncg     rms          rms(c)
DAV:   1    -0.191674816563E+03   -0.34310E-02   -0.34479E-02  8160   0.417E-01    0.483E-02
DAV:   2    -0.191674964626E+03   -0.14806E-03   -0.12741E-03 13600   0.131E-01    0.990E-02
DAV:   3    -0.191674899048E+03    0.65578E-04   -0.31214E-04  7760   0.129E-01
  21 F= -.19167490E+03 E0= -.19158774E+03  d E =-.357468E-02
       N       E                     dE             d eps       ncg     rms          rms(c)
DAV:   1    -0.191653412790E+03    0.21552E-01   -0.11706E+00  8160   0.233E+00    0.301E-01
DAV:   2    -0.191661697045E+03   -0.82843E-02   -0.45905E-02 12360   0.103E+00    0.859E-01
DAV:   3    -0.191654532716E+03    0.71643E-02   -0.14114E-02 11640   0.876E-01    0.243E-01
DAV:   4    -0.191654387941E+03    0.14477E-03   -0.28652E-03 11000   0.353E-01    0.245E-01
DAV:   5    -0.191653878071E+03    0.50987E-03   -0.18290E-03 10080   0.334E-01    0.141E-01
DAV:   6    -0.191653761590E+03    0.11648E-03   -0.91404E-04 10360   0.200E-01    0.109E-01
DAV:   7    -0.191653687564E+03    0.74026E-04   -0.42970E-04  8520   0.171E-01
  22 F= -.19165369E+03 E0= -.19156456E+03  d E =0.212115E-01
       N       E                     dE             d eps       ncg     rms          rms(c)
DAV:   1    -0.191701945410E+03   -0.48184E-01   -0.72424E+00  8160   0.576E+00    0.655E-01
DAV:   2    -0.191738939713E+03   -0.36994E-01   -0.23782E-01 12720   0.209E+00    0.188E+00
DAV:   3    -0.191713654971E+03    0.25285E-01   -0.85210E-02 11760   0.190E+00    0.634E-01
DAV:   4    -0.191711827090E+03    0.18279E-02   -0.13747E-02 11480   0.827E-01    0.560E-01
DAV:   5    -0.191708523826E+03    0.33033E-02   -0.81165E-03 11120   0.741E-01    0.287E-01
DAV:   6    -0.191708442297E+03    0.81529E-04   -0.48543E-03 11560   0.443E-01    0.264E-01
DAV:   7    -0.191707952092E+03    0.49020E-03   -0.26996E-03 11480   0.420E-01    0.197E-01
DAV:   8    -0.191707453725E+03    0.49837E-03   -0.80809E-04 10080   0.226E-01    0.400E-02
DAV:   9    -0.191707429380E+03    0.24345E-04   -0.97886E-05  6480   0.445E-02
  23 F= -.19170743E+03 E0= -.19162260E+03  d E =-.537418E-01
       N       E                     dE             d eps       ncg     rms          rms(c)
DAV:   1    -0.191728266897E+03   -0.20813E-01   -0.11456E+00  8160   0.228E+00    0.229E-01
DAV:   2    -0.191730851683E+03   -0.25848E-02   -0.33198E-02 12360   0.561E-01    0.301E-01
DAV:   3    -0.191731223719E+03   -0.37204E-03   -0.58966E-03 11840   0.540E-01    0.369E-01
DAV:   4    -0.191729949043E+03    0.12747E-02   -0.22641E-03 10400   0.347E-01    0.132E-01
DAV:   5    -0.191729898026E+03    0.51017E-04   -0.70897E-04  9720   0.219E-01
  24 F= -.19172990E+03 E0= -.19164662E+03  d E =-.224686E-01
       N       E                     dE             d eps       ncg     rms          rms(c)
DAV:   1    -0.191697893541E+03    0.32056E-01   -0.22343E+00  8160   0.326E+00    0.408E-01
DAV:   2    -0.191702511060E+03   -0.46175E-02   -0.75546E-02 12000   0.870E-01    0.541E-01
DAV:   3    -0.191703184187E+03   -0.67313E-03   -0.17964E-02 12200   0.946E-01    0.697E-01
DAV:   4    -0.191699139771E+03    0.40444E-02   -0.10585E-02 11920   0.679E-01    0.239E-01
DAV:   5    -0.191698352472E+03    0.78730E-03   -0.22902E-03 11120   0.246E-01    0.131E-01
DAV:   6    -0.191698517040E+03   -0.16457E-03   -0.15148E-03 12440   0.303E-01    0.183E-01
DAV:   7    -0.191698098221E+03    0.41882E-03   -0.68706E-04  9400   0.215E-01    0.350E-02
DAV:   8    -0.191698096123E+03    0.20974E-05   -0.79121E-05  6440   0.536E-02
  25 F= -.19169810E+03 E0= -.19161319E+03  d E =0.318019E-01
       N       E                     dE             d eps       ncg     rms          rms(c)
DAV:   1    -0.191628468071E+03    0.69630E-01   -0.10843E+01  8160   0.704E+00    0.737E-01
DAV:   2    -0.191652287742E+03   -0.23820E-01   -0.31168E-01 12280   0.169E+00    0.941E-01
DAV:   3    -0.191655993403E+03   -0.37057E-02   -0.54300E-02 11160   0.167E+00    0.130E+00
DAV:   4    -0.191643477571E+03    0.12516E-01   -0.34503E-02 11960   0.121E+00    0.516E-01
DAV:   5    -0.191641573004E+03    0.19046E-02   -0.87588E-03 11200   0.727E-01    0.378E-01
DAV:   6    -0.191640870380E+03    0.70262E-03   -0.62032E-03 12160   0.592E-01    0.247E-01
DAV:   7    -0.191639822861E+03    0.10475E-02   -0.21434E-03 12320   0.265E-01    0.641E-02
DAV:   8    -0.191639866622E+03   -0.43761E-04   -0.39899E-04  9440   0.138E-01
  26 F= -.19163987E+03 E0= -.19155186E+03  d E =0.582295E-01
       N       E                     dE             d eps       ncg     rms          rms(c)
DAV:   1    -0.191714574810E+03   -0.74752E-01   -0.21136E+01  8160   0.996E+00    0.120E+00
DAV:   2    -0.191791671366E+03   -0.77097E-01   -0.71307E-01 12600   0.329E+00    0.256E+00
DAV:   3    -0.191753699035E+03    0.37972E-01   -0.23172E-01 11720   0.314E+00    0.136E+00
DAV:   4    -0.191742671296E+03    0.11028E-01   -0.51363E-02 12280   0.177E+00    0.111E+00
DAV:   5    -0.191729255942E+03    0.13415E-01   -0.30202E-02 11640   0.146E+00    0.562E-01
DAV:   6    -0.191727837004E+03    0.14189E-02   -0.17813E-02 11360   0.805E-01    0.440E-01
DAV:   7    -0.191726692665E+03    0.11443E-02   -0.89905E-03 12080   0.742E-01    0.387E-01
DAV:   8    -0.191724938023E+03    0.17546E-02   -0.30875E-03 11960   0.454E-01    0.904E-02
DAV:   9    -0.191724801633E+03    0.13639E-03   -0.39554E-04  9360   0.910E-02    0.384E-02
DAV:  10    -0.191724769933E+03    0.31700E-04   -0.18386E-04  7600   0.398E-02
  27 F= -.19172477E+03 E0= -.19164125E+03  d E =-.849033E-01
       N       E                     dE             d eps       ncg     rms          rms(c)
DAV:   1    -0.191713156670E+03    0.11645E-01   -0.64145E-01  8160   0.177E+00    0.275E-01
DAV:   2    -0.191714289969E+03   -0.11333E-02   -0.25172E-02 11600   0.643E-01    0.366E-01
DAV:   3    -0.191713401372E+03    0.88860E-03   -0.53294E-03 11720   0.619E-01    0.267E-01
DAV:   4    -0.191712516750E+03    0.88462E-03   -0.21556E-03 10720   0.354E-01    0.145E-01
DAV:   5    -0.191712604436E+03   -0.87686E-04   -0.15202E-03 10080   0.273E-01    0.198E-01
DAV:   6    -0.191712279520E+03    0.32492E-03   -0.11145E-03  9600   0.250E-01    0.999E-02
DAV:   7    -0.191712219532E+03    0.59989E-04   -0.28626E-04  6680   0.117E-01
  28 F= -.19171222E+03 E0= -.19162802E+03  d E =0.125504E-01
       N       E                     dE             d eps       ncg     rms          rms(c)
DAV:   1    -0.191740965916E+03   -0.28686E-01   -0.24289E+00  8160   0.332E+00    0.334E-01
DAV:   2    -0.191746807275E+03   -0.58414E-02   -0.67514E-02 12320   0.848E-01    0.533E-01
DAV:   3    -0.191746129305E+03    0.67797E-03   -0.12960E-02 11160   0.808E-01    0.463E-01
DAV:   4    -0.191744144370E+03    0.19849E-02   -0.38479E-03 11280   0.455E-01    0.212E-01
DAV:   5    -0.191743900447E+03    0.24392E-03   -0.16907E-03 10120   0.349E-01    0.175E-01
DAV:   6    -0.191743706678E+03    0.19377E-03   -0.12765E-03  9920   0.245E-01    0.973E-02
DAV:   7    -0.191743593322E+03    0.11336E-03   -0.40790E-04  9320   0.142E-01    0.742E-02
DAV:   8    -0.191743534455E+03    0.58867E-04   -0.13133E-04  6320   0.102E-01
  29 F= -.19174353E+03 E0= -.19166201E+03  d E =-.313149E-01
       N       E                     dE             d eps       ncg     rms          rms(c)
DAV:   1    -0.191738014830E+03    0.55785E-02   -0.89062E-02  8160   0.649E-01    0.819E-02
DAV:   2    -0.191738221708E+03   -0.20688E-03   -0.30303E-03 11760   0.234E-01    0.124E-01
DAV:   3    -0.191738089385E+03    0.13232E-03   -0.55753E-04  8800   0.190E-01    0.759E-02
DAV:   4    -0.191738049793E+03    0.39592E-04   -0.22962E-04  6240   0.112E-01
  30 F= -.19173805E+03 E0= -.19165557E+03  d E =0.548466E-02
       N       E                     dE             d eps       ncg     rms          rms(c)
DAV:   1    -0.191748107691E+03   -0.10018E-01   -0.59259E-01  8160   0.169E+00    0.254E-01
DAV:   2    -0.191750807752E+03   -0.27001E-02   -0.23837E-02 12320   0.661E-01    0.562E-01
DAV:   3    -0.191748403643E+03    0.24041E-02   -0.80721E-03 11840   0.652E-01    0.260E-01
DAV:   4    -0.191747977996E+03    0.42565E-03   -0.21045E-03 11560   0.324E-01    0.182E-01
DAV:   5    -0.191747687806E+03    0.29019E-03   -0.13109E-03 10280   0.307E-01    0.140E-01
DAV:   6    -0.191747483122E+03    0.20468E-03   -0.59969E-04  9880   0.174E-01    0.556E-02
DAV:   7    -0.191747437224E+03    0.45898E-04   -0.11317E-04  5680   0.608E-02
  31 F= -.19174744E+03 E0= -.19166623E+03  d E =-.938743E-02
       N       E                     dE             d eps       ncg     rms          rms(c)
DAV:   1    -0.191749852195E+03   -0.23691E-02   -0.19521E-02  8160   0.306E-01    0.475E-02
DAV:   2    -0.191750114544E+03   -0.26235E-03   -0.93110E-04 12600   0.184E-01    0.149E-01
DAV:   3    -0.191749854749E+03    0.25980E-03   -0.37039E-04  8360   0.168E-01    0.298E-02
DAV:   4    -0.191749872018E+03   -0.17269E-04   -0.45536E-05  5600   0.476E-02
  32 F= -.19174987E+03 E0= -.19166879E+03  d E =-.243479E-02
       N       E                     dE             d eps       ncg     rms          rms(c)
DAV:   1    -0.191779251825E+03   -0.29397E-01   -0.26510E+00  8160   0.346E+00    0.346E-01
DAV:   2    -0.191785065114E+03   -0.58133E-02   -0.73225E-02 12080   0.856E-01    0.456E-01
DAV:   3    -0.191785667240E+03   -0.60213E-03   -0.12050E-02 12360   0.841E-01    0.529E-01
DAV:   4    -0.191782872941E+03    0.27943E-02   -0.41632E-03 11440   0.502E-01    0.164E-01
DAV:   5    -0.191783021016E+03   -0.14807E-03   -0.20194E-03 10480   0.348E-01    0.221E-01
DAV:   6    -0.191782681886E+03    0.33913E-03   -0.14835E-03 11360   0.316E-01    0.126E-01
DAV:   7    -0.191782524074E+03    0.15781E-03   -0.49423E-04  8680   0.166E-01    0.784E-02
DAV:   8    -0.191782454767E+03    0.69307E-04   -0.14881E-04  7320   0.102E-01
  33 F= -.19178245E+03 E0= -.19170411E+03  d E =-.325827E-01
       N       E                     dE             d eps       ncg     rms          rms(c)
DAV:   1    -0.191795779428E+03   -0.13255E-01   -0.47870E-01  8160   0.147E+00    0.154E-01
DAV:   2    -0.191797144334E+03   -0.13649E-02   -0.14388E-02 12000   0.425E-01    0.256E-01
DAV:   3    -0.191796782914E+03    0.36142E-03   -0.26331E-03 12400   0.397E-01    0.185E-01
DAV:   4    -0.191796504906E+03    0.27801E-03   -0.71796E-04  9000   0.204E-01    0.102E-01
DAV:   5    -0.191796489883E+03    0.15023E-04   -0.39476E-04  8320   0.169E-01
  34 F= -.19179649E+03 E0= -.19171944E+03  d E =-.140351E-01
       N       E                     dE             d eps       ncg     rms          rms(c)
DAV:   1    -0.191766323758E+03    0.30181E-01   -0.19386E+00  8160   0.297E+00    0.301E-01
DAV:   2    -0.191771056509E+03   -0.47328E-02   -0.58336E-02 12520   0.764E-01    0.395E-01
DAV:   3    -0.191771275649E+03   -0.21914E-03   -0.94733E-03 12560   0.729E-01    0.468E-01
DAV:   4    -0.191769388236E+03    0.18874E-02   -0.42941E-03 11600   0.490E-01    0.188E-01
DAV:   5    -0.191769214856E+03    0.17338E-03   -0.14875E-03  9680   0.294E-01    0.177E-01
DAV:   6    -0.191769023570E+03    0.19129E-03   -0.10759E-03 10680   0.256E-01    0.110E-01
DAV:   7    -0.191768943627E+03    0.79943E-04   -0.47429E-04  9080   0.163E-01
  35 F= -.19176894E+03 E0= -.19168989E+03  d E =0.275463E-01
       N       E                     dE             d eps       ncg     rms          rms(c)
DAV:   1    -0.191729698390E+03    0.39325E-01   -0.45717E+00  8160   0.460E+00    0.489E-01
DAV:   2    -0.191738568980E+03   -0.88706E-02   -0.14195E-01 12560   0.103E+00    0.357E-01
DAV:   3    -0.191740692103E+03   -0.21231E-02   -0.14505E-02 12360   0.808E-01    0.607E-01
DAV:   4    -0.191737214917E+03    0.34772E-02   -0.88383E-03 11920   0.778E-01    0.323E-01
DAV:   5    -0.191736538470E+03    0.67645E-03   -0.35167E-03 11400   0.409E-01    0.248E-01
DAV:   6    -0.191737042142E+03   -0.50367E-03   -0.32869E-03 12080   0.464E-01    0.313E-01
DAV:   7    -0.191735904121E+03    0.11380E-02   -0.14463E-03 10680   0.302E-01    0.570E-02
DAV:   8    -0.191735900071E+03    0.40492E-05   -0.16855E-04  7200   0.955E-02
  36 F= -.19173590E+03 E0= -.19165591E+03  d E =0.330436E-01
       N       E                     dE             d eps       ncg     rms          rms(c)
DAV:   1    -0.191743016264E+03   -0.71121E-02   -0.27464E-01  8160   0.114E+00    0.142E-01
DAV:   2    -0.191744143948E+03   -0.11277E-02   -0.80614E-03 12680   0.419E-01    0.306E-01
DAV:   3    -0.191743284292E+03    0.85966E-03   -0.20995E-03 11960   0.378E-01    0.123E-01
DAV:   4    -0.191743309232E+03   -0.24941E-04   -0.54553E-04  8520   0.176E-01
  37 F= -.19174331E+03 E0= -.19166407E+03  d E =-.740916E-02
       N       E                     dE             d eps       ncg     rms          rms(c)
DAV:   1    -0.191759113096E+03   -0.15829E-01   -0.10608E+00  8160   0.220E+00    0.248E-01
DAV:   2    -0.191765187310E+03   -0.60742E-02   -0.36984E-02 12480   0.813E-01    0.679E-01
DAV:   3    -0.191761163869E+03    0.40234E-02   -0.92775E-03 12200   0.741E-01    0.217E-01
DAV:   4    -0.191760811334E+03    0.35253E-03   -0.13208E-03  9720   0.237E-01    0.140E-01
DAV:   5    -0.191760747097E+03    0.64238E-04   -0.87354E-04 11360   0.250E-01
  38 F= -.19176075E+03 E0= -.19168309E+03  d E =-.174379E-01
       N       E                     dE             d eps       ncg     rms          rms(c)
DAV:   1    -0.191749220168E+03    0.11591E-01   -0.38878E-01  8160   0.135E+00    0.148E-01
DAV:   2    -0.191751454066E+03   -0.22339E-02   -0.14129E-02 12160   0.500E-01    0.366E-01
DAV:   3    -0.191750014809E+03    0.14393E-02   -0.34900E-03 11480   0.484E-01    0.162E-01
DAV:   4    -0.191749795732E+03    0.21908E-03   -0.72293E-04  9520   0.179E-01    0.911E-02
DAV:   5    -0.191749770324E+03    0.25407E-04   -0.34441E-04  8680   0.145E-01
  39 F= -.19174977E+03 E0= -.19167078E+03  d E =0.109768E-01
       N       E                     dE             d eps       ncg     rms          rms(c)
DAV:   1    -0.191750547178E+03   -0.75145E-03   -0.49145E-01  8160   0.159E+00    0.281E-01
DAV:   2    -0.191750321213E+03    0.22596E-03   -0.17776E-02 12240   0.542E-01    0.332E-01
DAV:   3    -0.191749857936E+03    0.46328E-03   -0.55130E-03 11200   0.610E-01    0.291E-01
DAV:   4    -0.191749116650E+03    0.74129E-03   -0.27479E-03 11960   0.407E-01    0.223E-01
DAV:   5    -0.191749025549E+03    0.91101E-04   -0.20529E-03 10760   0.356E-01    0.233E-01
DAV:   6    -0.191748485228E+03    0.54032E-03   -0.10822E-03  9800   0.241E-01    0.642E-02
DAV:   7    -0.191748451410E+03    0.33818E-04   -0.13416E-04  5480   0.810E-02
  40 F= -.19174845E+03 E0= -.19166937E+03  d E =0.131891E-02
       N       E                     dE             d eps       ncg     rms          rms(c)
DAV:   1    -0.191773089644E+03   -0.24604E-01   -0.23605E+00  8160   0.329E+00    0.377E-01
DAV:   2    -0.191778231768E+03   -0.51421E-02   -0.71334E-02 11960   0.938E-01    0.536E-01
DAV:   3    -0.191777887201E+03    0.34457E-03   -0.13217E-02 12360   0.928E-01    0.531E-01
DAV:   4    -0.191775058352E+03    0.28288E-02   -0.46922E-03 11880   0.544E-01    0.205E-01
DAV:   5    -0.191775224074E+03   -0.16572E-03   -0.28089E-03 10680   0.426E-01    0.264E-01
DAV:   6    -0.191774576254E+03    0.64782E-03   -0.18612E-03 11520   0.344E-01    0.117E-01
DAV:   7    -0.191774498506E+03    0.77748E-04   -0.57431E-04  9560   0.182E-01
  41 F= -.19177450E+03 E0= -.19169687E+03  d E =-.260471E-01
       N       E                     dE             d eps       ncg     rms          rms(c)
DAV:   1    -0.191792325101E+03   -0.17749E-01   -0.92994E-01  8160   0.207E+00    0.226E-01
DAV:   2    -0.191794488377E+03   -0.21633E-02   -0.25814E-02 12600   0.561E-01    0.330E-01
DAV:   3    -0.191794162131E+03    0.32625E-03   -0.46097E-03 12360   0.540E-01    0.292E-01
DAV:   4    -0.191793478611E+03    0.68352E-03   -0.17367E-03 10120   0.323E-01    0.161E-01
DAV:   5    -0.191793295326E+03    0.18328E-03   -0.80975E-04  9880   0.245E-01    0.117E-01
DAV:   6    -0.191793233174E+03    0.62152E-04   -0.51864E-04  9520   0.175E-01
  42 F= -.19179323E+03 E0= -.19171669E+03  d E =-.187347E-01
       N       E                     dE             d eps       ncg     rms          rms(c)
DAV:   1    -0.191810000181E+03   -0.16705E-01   -0.84561E-01  8160   0.197E+00    0.207E-01
DAV:   2    -0.191812334041E+03   -0.23339E-02   -0.24593E-02 12960   0.584E-01    0.326E-01
DAV:   3    -0.191811595187E+03    0.73885E-03   -0.36788E-03 12360   0.500E-01    0.215E-01
DAV:   4    -0.191811371977E+03    0.22321E-03   -0.11750E-03 10360   0.284E-01    0.188E-01
DAV:   5    -0.191811058360E+03    0.31362E-03   -0.71196E-04  9360   0.243E-01    0.906E-02
DAV:   6    -0.191811058314E+03    0.45062E-07   -0.35416E-04  8880   0.119E-01
  43 F= -.19181106E+03 E0= -.19173516E+03  d E =-.178251E-01
       N       E                     dE             d eps       ncg     rms          rms(c)
DAV:   1    -0.191823815927E+03   -0.12758E-01   -0.57403E-01  8160   0.161E+00    0.163E-01
DAV:   2    -0.191825165646E+03   -0.13497E-02   -0.16339E-02 11600   0.388E-01    0.210E-01
DAV:   3    -0.191825183483E+03   -0.17838E-04   -0.26205E-03 12520   0.405E-01    0.226E-01
DAV:   4    -0.191824680902E+03    0.50258E-03   -0.90127E-04  9400   0.237E-01    0.884E-02
DAV:   5    -0.191824702221E+03   -0.21319E-04   -0.31500E-04  8240   0.161E-01
  44 F= -.19182470E+03 E0= -.19174933E+03  d E =-.136439E-01
       N       E                     dE             d eps       ncg     rms          rms(c)
DAV:   1    -0.191826687653E+03   -0.20068E-02   -0.29219E-01  8160   0.120E+00    0.171E-01
DAV:   2    -0.191828743219E+03   -0.20556E-02   -0.10438E-02 12240   0.528E-01    0.411E-01
DAV:   3    -0.191826952735E+03    0.17905E-02   -0.32488E-03 12120   0.510E-01    0.158E-01
DAV:   4    -0.191826804636E+03    0.14810E-03   -0.81438E-04  9600   0.191E-01    0.108E-01
DAV:   5    -0.191826789437E+03    0.15199E-04   -0.53156E-04  8840   0.189E-01
  45 F= -.19182679E+03 E0= -.19175140E+03  d E =-.208722E-02
       N       E                     dE             d eps       ncg     rms          rms(c)
DAV:   1    -0.191828840123E+03   -0.20355E-02   -0.82425E-02  8160   0.644E-01    0.915E-02
DAV:   2    -0.191829017427E+03   -0.17730E-03   -0.21800E-03 11120   0.184E-01    0.128E-01
DAV:   3    -0.191828908746E+03    0.10868E-03   -0.53510E-04 10760   0.209E-01    0.945E-02
DAV:   4    -0.191828856345E+03    0.52401E-04   -0.21217E-04  7280   0.124E-01
  46 F= -.19182886E+03 E0= -.19175355E+03  d E =-.206691E-02
       N       E                     dE             d eps       ncg     rms          rms(c)
DAV:   1    -0.191847752580E+03   -0.18844E-01   -0.20370E+00  8160   0.305E+00    0.301E-01
DAV:   2    -0.191851364120E+03   -0.36115E-02   -0.56896E-02 12200   0.638E-01    0.203E-01
DAV:   3    -0.191852015530E+03   -0.65141E-03   -0.42845E-03 12280   0.464E-01    0.348E-01
DAV:   4    -0.191850820962E+03    0.11946E-02   -0.23966E-03 12120   0.457E-01    0.169E-01
DAV:   5    -0.191850656041E+03    0.16492E-03   -0.10566E-03 10080   0.228E-01    0.130E-01
DAV:   6    -0.191850815262E+03   -0.15922E-03   -0.99671E-04 10680   0.268E-01    0.176E-01
DAV:   7    -0.191850456176E+03    0.35909E-03   -0.52367E-04  8560   0.185E-01    0.365E-02
DAV:   8    -0.191850455926E+03    0.24952E-06   -0.61581E-05  5840   0.640E-02
  47 F= -.19185046E+03 E0= -.19177531E+03  d E =-.215996E-01
       N       E                     dE             d eps       ncg     rms          rms(c)
DAV:   1    -0.191884275834E+03   -0.33820E-01   -0.73371E+00  8160   0.578E+00    0.592E-01
DAV:   2    -0.191901394430E+03   -0.17119E-01   -0.21501E-01 12120   0.150E+00    0.712E-01
DAV:   3    -0.191902127197E+03   -0.73277E-03   -0.30320E-02 12080   0.144E+00    0.771E-01
DAV:   4    -0.191895070628E+03    0.70566E-02   -0.10926E-02 11720   0.857E-01    0.227E-01
DAV:   5    -0.191895764497E+03   -0.69387E-03   -0.43090E-03 11880   0.466E-01    0.357E-01
DAV:   6    -0.191895201944E+03    0.56255E-03   -0.37265E-03 12440   0.552E-01    0.268E-01
DAV:   7    -0.191894333766E+03    0.86818E-03   -0.13060E-03  9960   0.272E-01    0.785E-02
DAV:   8    -0.191894290956E+03    0.42810E-04   -0.22352E-04  8360   0.117E-01
  48 F= -.19189429E+03 E0= -.19181967E+03  d E =-.438350E-01
       N       E                     dE             d eps       ncg     rms          rms(c)
DAV:   1    -0.191929779379E+03   -0.35446E-01   -0.13266E+01  8160   0.777E+00    0.824E-01
DAV:   2    -0.191967085831E+03   -0.37306E-01   -0.42253E-01 11960   0.226E+00    0.115E+00
DAV:   3    -0.191961976937E+03    0.51089E-02   -0.62643E-02 12160   0.210E+00    0.952E-01
DAV:   4    -0.191950981890E+03    0.10995E-01   -0.18967E-02 12080   0.108E+00    0.340E-01
DAV:   5    -0.191951093080E+03   -0.11119E-03   -0.85029E-03 11360   0.655E-01    0.428E-01
DAV:   6    -0.191950558763E+03    0.53432E-03   -0.68555E-03 12840   0.736E-01    0.354E-01
DAV:   7    -0.191949163108E+03    0.13957E-02   -0.27100E-03 11880   0.432E-01    0.180E-01
DAV:   8    -0.191948817756E+03    0.34535E-03   -0.63937E-04 10040   0.204E-01    0.454E-02
DAV:   9    -0.191948794211E+03    0.23545E-04   -0.10930E-04  6960   0.532E-02
  49 F= -.19194879E+03 E0= -.19187432E+03  d E =-.545033E-01
       N       E                     dE             d eps       ncg     rms          rms(c)
DAV:   1    -0.191951359122E+03   -0.25414E-02   -0.21950E-01  8160   0.104E+00    0.174E-01
DAV:   2    -0.191951570454E+03   -0.21133E-03   -0.86961E-03 11360   0.381E-01    0.212E-01
DAV:   3    -0.191951334790E+03    0.23566E-03   -0.18269E-03 11560   0.372E-01    0.172E-01
DAV:   4    -0.191951009862E+03    0.32493E-03   -0.95087E-04 10160   0.251E-01    0.109E-01
DAV:   5    -0.191951002534E+03    0.73276E-05   -0.57195E-04  9960   0.195E-01
  50 F= -.19195100E+03 E0= -.19187659E+03  d E =-.220832E-02
       N       E                     dE             d eps       ncg     rms          rms(c)
DAV:   1    -0.191962490979E+03   -0.11481E-01   -0.92592E-01  8160   0.205E+00    0.220E-01
DAV:   2    -0.191965601016E+03   -0.31100E-02   -0.31277E-02 12280   0.637E-01    0.349E-01
DAV:   3    -0.191964785385E+03    0.81563E-03   -0.50594E-03 12280   0.586E-01    0.245E-01
DAV:   4    -0.191964115539E+03    0.66985E-03   -0.13630E-03  9840   0.277E-01    0.906E-02
DAV:   5    -0.191964084179E+03    0.31360E-04   -0.54095E-04 10200   0.147E-01
  51 F= -.19196408E+03 E0= -.19188968E+03  d E =-.130816E-01
       N       E                     dE             d eps       ncg     rms          rms(c)
DAV:   1    -0.191975090666E+03   -0.10975E-01   -0.83591E-01  8160   0.197E+00    0.273E-01
DAV:   2    -0.191980417619E+03   -0.53270E-02   -0.34320E-02 13360   0.929E-01    0.618E-01
DAV:   3    -0.191976370194E+03    0.40474E-02   -0.74647E-03 12200   0.805E-01    0.210E-01
DAV:   4    -0.191976022122E+03    0.34807E-03   -0.14600E-03 10960   0.275E-01    0.151E-01
DAV:   5    -0.191975889911E+03    0.13221E-03   -0.10656E-03 11000   0.275E-01    0.143E-01
DAV:   6    -0.191975793319E+03    0.96592E-04   -0.78246E-04 10240   0.209E-01
  52 F= -.19197579E+03 E0= -.19190081E+03  d E =-.117091E-01
       N       E                     dE             d eps       ncg     rms          rms(c)
DAV:   1    -0.191991852775E+03   -0.15963E-01   -0.41328E+00  8160   0.431E+00    0.453E-01
DAV:   2    -0.192003821356E+03   -0.11969E-01   -0.13550E-01 11720   0.126E+00    0.605E-01
DAV:   3    -0.192002821700E+03    0.99966E-03   -0.19033E-02 12280   0.116E+00    0.554E-01
DAV:   4    -0.191999246355E+03    0.35753E-02   -0.59369E-03 12200   0.629E-01    0.185E-01
DAV:   5    -0.191999006418E+03    0.23994E-03   -0.23481E-03 11000   0.293E-01    0.174E-01
DAV:   6    -0.191999222572E+03   -0.21615E-03   -0.17834E-03 12600   0.371E-01    0.209E-01
DAV:   7    -0.191998677284E+03    0.54529E-03   -0.77926E-04 10200   0.248E-01    0.702E-02
DAV:   8    -0.191998648012E+03    0.29271E-04   -0.14648E-04  7000   0.999E-02
  53 F= -.19199865E+03 E0= -.19192305E+03  d E =-.228547E-01
       N       E                     dE             d eps       ncg     rms          rms(c)
DAV:   1    -0.192009388524E+03   -0.10711E-01   -0.20466E+00  8160   0.302E+00    0.338E-01
DAV:   2    -0.192017877881E+03   -0.84894E-02   -0.70628E-02 12720   0.110E+00    0.635E-01
DAV:   3    -0.192014080375E+03    0.37975E-02   -0.11461E-02 12360   0.960E-01    0.350E-01
DAV:   4    -0.192012897017E+03    0.11834E-02   -0.28386E-03 12080   0.414E-01    0.159E-01
DAV:   5    -0.192012645007E+03    0.25201E-03   -0.11520E-03 10720   0.240E-01    0.139E-01
DAV:   6    -0.192012701204E+03   -0.56197E-04   -0.10904E-03 11520   0.273E-01    0.142E-01
DAV:   7    -0.192012510407E+03    0.19080E-03   -0.56416E-04  8560   0.182E-01    0.736E-02
DAV:   8    -0.192012451250E+03    0.59157E-04   -0.12105E-04  6560   0.955E-02
  54 F= -.19201245E+03 E0= -.19193631E+03  d E =-.138032E-01
       N       E                     dE             d eps       ncg     rms          rms(c)
DAV:   1    -0.192020726077E+03   -0.82157E-02   -0.86164E+00  8160   0.621E+00    0.663E-01
DAV:   2    -0.192049129717E+03   -0.28404E-01   -0.28564E-01 11760   0.193E+00    0.102E+00
DAV:   3    -0.192042331748E+03    0.67980E-02   -0.43669E-02 12360   0.178E+00    0.761E-01
DAV:   4    -0.192035997670E+03    0.63341E-02   -0.12193E-02 12400   0.895E-01    0.286E-01
DAV:   5    -0.192034574836E+03    0.14228E-02   -0.45128E-03 11760   0.354E-01    0.178E-01
DAV:   6    -0.192035468533E+03   -0.89370E-03   -0.33596E-03 12880   0.477E-01    0.302E-01
DAV:   7    -0.192034236173E+03    0.12324E-02   -0.15717E-03 11960   0.357E-01    0.518E-02
DAV:   8    -0.192034223448E+03    0.12726E-04   -0.13823E-04  6600   0.668E-02
  55 F= -.19203422E+03 E0= -.19195772E+03  d E =-.217722E-01
       N       E                     dE             d eps       ncg     rms          rms(c)
DAV:   1    -0.192038981850E+03   -0.47457E-02   -0.18597E+00  8160   0.288E+00    0.311E-01
DAV:   2    -0.192045328858E+03   -0.63470E-02   -0.62558E-02 11800   0.904E-01    0.483E-01
DAV:   3    -0.192043718074E+03    0.16108E-02   -0.97463E-03 12440   0.848E-01    0.360E-01
DAV:   4    -0.192042344770E+03    0.13733E-02   -0.26934E-03 12560   0.417E-01    0.130E-01
DAV:   5    -0.192042107973E+03    0.23680E-03   -0.95127E-04 10600   0.166E-01    0.877E-02
DAV:   6    -0.192042329689E+03   -0.22172E-03   -0.71431E-04 11520   0.228E-01    0.151E-01
DAV:   7    -0.192042059598E+03    0.27009E-03   -0.36301E-04  9120   0.181E-01    0.430E-02
DAV:   8    -0.192042052616E+03    0.69819E-05   -0.70027E-05  6320   0.691E-02
  56 F= -.19204205E+03 E0= -.19196543E+03  d E =-.782917E-02
       N       E                     dE             d eps       ncg     rms          rms(c)
DAV:   1    -0.192044894040E+03   -0.28344E-02   -0.48844E-01  8160   0.148E+00    0.169E-01
DAV:   2    -0.192046649291E+03   -0.17553E-02   -0.17278E-02 12800   0.530E-01    0.279E-01
DAV:   3    -0.192045952654E+03    0.69664E-03   -0.26586E-03 12240   0.451E-01    0.169E-01
DAV:   4    -0.192045677234E+03    0.27542E-03   -0.71193E-04 10440   0.217E-01    0.869E-02
DAV:   5    -0.192045620470E+03    0.56764E-04   -0.36541E-04  8680   0.152E-01
  57 F= -.19204562E+03 E0= -.19196878E+03  d E =-.356785E-02
       N       E                     dE             d eps       ncg     rms          rms(c)
DAV:   1    -0.192046903191E+03   -0.12260E-02   -0.63977E-02  8160   0.546E-01    0.872E-02
DAV:   2    -0.192047465280E+03   -0.56209E-03   -0.25780E-03 12440   0.310E-01    0.210E-01
DAV:   3    -0.192046888794E+03    0.57649E-03   -0.79229E-04 10400   0.257E-01    0.411E-02
DAV:   4    -0.192046888384E+03    0.40911E-06   -0.77556E-05  6520   0.511E-02
  58 F= -.19204689E+03 E0= -.19197006E+03  d E =-.126791E-02
       N       E                     dE             d eps       ncg     rms          rms(c)
DAV:   1    -0.192048535365E+03   -0.16466E-02   -0.10843E-01  8160   0.706E-01    0.876E-02
DAV:   2    -0.192049247352E+03   -0.71199E-03   -0.34155E-03 12680   0.312E-01    0.225E-01
DAV:   3    -0.192048667881E+03    0.57947E-03   -0.90747E-04 10320   0.285E-01    0.595E-02
DAV:   4    -0.192048648600E+03    0.19281E-04   -0.85095E-05  6000   0.610E-02
  59 F= -.19204865E+03 E0= -.19197176E+03  d E =-.176022E-02
       N       E                     dE             d eps       ncg     rms          rms(c)
DAV:   1    -0.192048539711E+03    0.12817E-03   -0.50204E-04  9600   0.555E-02    0.187E-02
DAV:   2    -0.192048566766E+03   -0.27056E-04   -0.73211E-05  7000   0.471E-02
  60 F= -.19204857E+03 E0= -.19197166E+03  d E =0.818342E-04
       N       E                     dE             d eps       ncg     rms          rms(c)
DAV:   1    -0.192049083860E+03   -0.54415E-03   -0.15628E-02  8240   0.277E-01    0.528E-02
DAV:   2    -0.192049224742E+03   -0.14088E-03   -0.90686E-04 10600   0.184E-01    0.116E-01
DAV:   3    -0.192049064724E+03    0.16002E-03   -0.25735E-04  9040   0.152E-01    0.350E-02
DAV:   4    -0.192049064314E+03    0.40952E-06   -0.59083E-05  6560   0.672E-02
  61 F= -.19204906E+03 E0= -.19197213E+03  d E =-.497548E-03
       N       E                     dE             d eps       ncg     rms          rms(c)
DAV:   1    -0.192051161425E+03   -0.20967E-02   -0.17483E-01  8160   0.890E-01    0.968E-02
DAV:   2    -0.192051754863E+03   -0.59344E-03   -0.41676E-03 11720   0.281E-01    0.197E-01
DAV:   3    -0.192051348291E+03    0.40657E-03   -0.92461E-04 11080   0.271E-01    0.876E-02
DAV:   4    -0.192051295861E+03    0.52430E-04   -0.20862E-04  7520   0.105E-01
  62 F= -.19205130E+03 E0= -.19197434E+03  d E =-.223155E-02
       N       E                     dE             d eps       ncg     rms          rms(c)
DAV:   1    -0.192046856234E+03    0.44921E-02   -0.57821E-01  8160   0.161E+00    0.151E-01
DAV:   2    -0.192048452071E+03   -0.15958E-02   -0.12357E-02 12480   0.457E-01    0.292E-01
DAV:   3    -0.192047581921E+03    0.87015E-03   -0.22363E-03 12600   0.428E-01    0.141E-01
DAV:   4    -0.192047411027E+03    0.17089E-03   -0.51231E-04  9000   0.166E-01    0.668E-02
DAV:   5    -0.192047338692E+03    0.72335E-04   -0.21292E-04  7680   0.656E-02
  63 F= -.19204734E+03 E0= -.19197036E+03  d E =0.395717E-02
       N       E                     dE             d eps       ncg     rms          rms(c)
DAV:   1    -0.192040525470E+03    0.68856E-02   -0.17673E+00  8160   0.281E+00    0.265E-01
DAV:   2    -0.192043839253E+03   -0.33138E-02   -0.32919E-02 12360   0.703E-01    0.396E-01
DAV:   3    -0.192042550567E+03    0.12887E-02   -0.55718E-03 12440   0.662E-01    0.275E-01
DAV:   4    -0.192042001390E+03    0.54918E-03   -0.18255E-03 12120   0.352E-01    0.152E-01
DAV:   5    -0.192041762348E+03    0.23904E-03   -0.10288E-03 10920   0.241E-01    0.114E-01
DAV:   6    -0.192041780323E+03   -0.17975E-04   -0.53711E-04 10000   0.204E-01
  64 F= -.19204178E+03 E0= -.19196476E+03  d E =0.555837E-02
       N       E                     dE             d eps       ncg     rms          rms(c)
DAV:   1    -0.192043044607E+03   -0.12823E-02   -0.11575E-01  8160   0.729E-01    0.735E-02
DAV:   2    -0.192043402478E+03   -0.35787E-03   -0.28471E-03 12640   0.218E-01    0.138E-01
DAV:   3    -0.192043204743E+03    0.19774E-03   -0.63343E-04 10360   0.214E-01    0.743E-02
DAV:   4    -0.192043150561E+03    0.54182E-04   -0.12780E-04  6080   0.892E-02
  65 F= -.19204315E+03 E0= -.19196632E+03  d E =-.137024E-02
       N       E                     dE             d eps       ncg     rms          rms(c)
DAV:   1    -0.192044980469E+03   -0.17757E-02   -0.24220E-01  8160   0.105E+00    0.114E-01
DAV:   2    -0.192045600135E+03   -0.61967E-03   -0.55064E-03 12160   0.308E-01    0.189E-01
DAV:   3    -0.192045278219E+03    0.32192E-03   -0.10581E-03 11520   0.295E-01    0.114E-01
DAV:   4    -0.192045172673E+03    0.10555E-03   -0.31626E-04  8680   0.138E-01    0.543E-02
DAV:   5    -0.192045128604E+03    0.44070E-04   -0.13427E-04  6680   0.556E-02
  66 F= -.19204513E+03 E0= -.19196815E+03  d E =-.197804E-02
       N       E                     dE             d eps       ncg     rms          rms(c)
DAV:   1    -0.192043298920E+03    0.18738E-02   -0.18876E-01  8160   0.923E-01    0.104E-01
DAV:   2    -0.192044249837E+03   -0.95092E-03   -0.47252E-03 12520   0.380E-01    0.250E-01
DAV:   3    -0.192043413362E+03    0.83647E-03   -0.14064E-03 10760   0.332E-01    0.589E-02
DAV:   4    -0.192043397110E+03    0.16252E-04   -0.15210E-04  6440   0.731E-02
  67 F= -.19204340E+03 E0= -.19196634E+03  d E =0.173149E-02
       N       E                     dE             d eps       ncg     rms          rms(c)
DAV:   1    -0.192045338900E+03   -0.19255E-02   -0.12127E-01  8160   0.788E-01    0.136E-01
DAV:   2    -0.192045656887E+03   -0.31799E-03   -0.59329E-03 11400   0.339E-01    0.209E-01
DAV:   3    -0.192045354958E+03    0.30193E-03   -0.17369E-03 11320   0.349E-01    0.145E-01
DAV:   4    -0.192045098306E+03    0.25665E-03   -0.52628E-04  8280   0.181E-01    0.621E-02
DAV:   5    -0.192045103488E+03   -0.51828E-05   -0.25528E-04  7120   0.129E-01
  68 F= -.19204510E+03 E0= -.19196849E+03  d E =-.170638E-02
       N       E                     dE             d eps       ncg     rms          rms(c)
DAV:   1    -0.192044461257E+03    0.63705E-03   -0.25061E-01  8160   0.105E+00    0.109E-01
DAV:   2    -0.192045319324E+03   -0.85807E-03   -0.57514E-03 12240   0.327E-01    0.223E-01
DAV:   3    -0.192044703696E+03    0.61563E-03   -0.12318E-03 11440   0.312E-01    0.843E-02
DAV:   4    -0.192044685440E+03    0.18255E-04   -0.26363E-04  7880   0.123E-01
  69 F= -.19204469E+03 E0= -.19196825E+03  d E =0.418048E-03
       N       E                     dE             d eps       ncg     rms          rms(c)
DAV:   1    -0.192045841071E+03   -0.11374E-02   -0.10367E-01  8160   0.693E-01    0.928E-02
DAV:   2    -0.192046620970E+03   -0.77990E-03   -0.45932E-03 12640   0.360E-01    0.224E-01
DAV:   3    -0.192046018915E+03    0.60205E-03   -0.10365E-03 10160   0.283E-01    0.600E-02
DAV:   4    -0.192046017093E+03    0.18226E-05   -0.17710E-04  6760   0.101E-01
  70 F= -.19204602E+03 E0= -.19196960E+03  d E =-.133165E-02
       N       E                     dE             d eps       ncg     rms          rms(c)
DAV:   1    -0.192046644303E+03   -0.62539E-03   -0.56177E-02  8160   0.514E-01    0.765E-02
DAV:   2    -0.192046978089E+03   -0.33379E-03   -0.21478E-03 13480   0.211E-01    0.148E-01
DAV:   3    -0.192046723002E+03    0.25509E-03   -0.55252E-04 10600   0.216E-01    0.723E-02
DAV:   4    -0.192046691130E+03    0.31872E-04   -0.15473E-04  6520   0.926E-02
  71 F= -.19204669E+03 E0= -.19197032E+03  d E =-.674037E-03
       N       E                     dE             d eps       ncg     rms          rms(c)
DAV:   1    -0.192047711788E+03   -0.98879E-03   -0.23175E-01  8160   0.102E+00    0.122E-01
DAV:   2    -0.192048625311E+03   -0.91352E-03   -0.81883E-03 12040   0.333E-01    0.208E-01
DAV:   3    -0.192048271923E+03    0.35339E-03   -0.15429E-03 12080   0.337E-01    0.139E-01
DAV:   4    -0.192048085662E+03    0.18626E-03   -0.44134E-04  8400   0.153E-01    0.536E-02
DAV:   5    -0.192048039041E+03    0.46621E-04   -0.13162E-04  6320   0.510E-02
  72 F= -.19204804E+03 E0= -.19197197E+03  d E =-.134791E-02
       N       E                     dE             d eps       ncg     rms          rms(c)
DAV:   1    -0.192048723591E+03   -0.63793E-03   -0.65295E-02  8160   0.553E-01    0.820E-02
DAV:   2    -0.192049283016E+03   -0.55942E-03   -0.33067E-03 11840   0.298E-01    0.200E-01
DAV:   3    -0.192048841060E+03    0.44196E-03   -0.89497E-04 10200   0.262E-01    0.609E-02
DAV:   4    -0.192048808896E+03    0.32164E-04   -0.80033E-05  5560   0.737E-02
  73 F= -.19204881E+03 E0= -.19197296E+03  d E =-.769855E-03
