<?xml version="1.0" encoding="ISO-8859-1"?>
<modeling>
 <generator>
  <i name="program" type="string">vasp </i>
  <i name="version" type="string">5.4.1  </i>
  <i name="subversion" type="string">05Feb16 (build Jul 05 2020 17:13:04) complex                          parallel </i>
  <i name="platform" type="string">IFC91_ompi </i>
  <i name="date" type="string">2024 04 26 </i>
  <i name="time" type="string">21:38:20 </i>
 </generator>
 <incar>
  <i type="int" name="ISTART">     0</i>
  <i type="string" name="PREC">normal</i>
  <i type="string" name="ALGO"> Normal</i>
  <i type="int" name="ISPIN">     1</i>
  <i type="int" name="ICHARG">     2</i>
  <i type="int" name="IBRION">     1</i>
  <i type="int" name="NSW">   100</i>
  <i type="int" name="ISIF">     3</i>
  <i type="int" name="ISYM">     0</i>
  <i name="SYMPREC">      0.00000001</i>
  <i name="POTIM">      0.50000000</i>
  <i type="logical" name="LREAL"> F  </i>
  <i type="logical" name="LPLANE"> F  </i>
  <i type="int" name="ISMEAR">     0</i>
  <i type="logical" name="LWAVE"> F  </i>
  <i type="logical" name="LCHARG"> F  </i>
  <v type="int" name="KPOINT_BSE">    -1     0     0     0</v>
 </incar>
 <kpoints>
  <generation param="Gamma">
   <v type="int" name="divisions">       8        8        1 </v>
   <v name="usershift">      0.00000000       0.00000000       0.00000000 </v>
   <v name="genvec1">      0.12500000       0.00000000       0.00000000 </v>
   <v name="genvec2">     -0.00000000       0.12500000       0.00000000 </v>
   <v name="genvec3">      0.00000000       0.00000000       1.00000000 </v>
   <v name="shift">      0.00000000       0.00000000       0.00000000 </v>
  </generation>
  <varray name="kpointlist" >
   <v>       0.00000000       0.00000000       0.00000000 </v>
   <v>       0.12500000       0.00000000       0.00000000 </v>
   <v>       0.25000000       0.00000000       0.00000000 </v>
   <v>       0.37500000       0.00000000       0.00000000 </v>
   <v>       0.50000000       0.00000000       0.00000000 </v>
   <v>       0.00000000       0.12500000       0.00000000 </v>
   <v>       0.12500000       0.12500000       0.00000000 </v>
   <v>       0.25000000       0.12500000       0.00000000 </v>
   <v>       0.37500000       0.12500000       0.00000000 </v>
   <v>       0.50000000       0.12500000       0.00000000 </v>
   <v>      -0.37500000       0.12500000       0.00000000 </v>
   <v>      -0.25000000       0.12500000       0.00000000 </v>
   <v>      -0.12500000       0.12500000       0.00000000 </v>
   <v>       0.00000000       0.25000000       0.00000000 </v>
   <v>       0.12500000       0.25000000       0.00000000 </v>
   <v>       0.25000000       0.25000000       0.00000000 </v>
   <v>       0.37500000       0.25000000       0.00000000 </v>
   <v>       0.50000000       0.25000000       0.00000000 </v>
   <v>      -0.37500000       0.25000000       0.00000000 </v>
   <v>      -0.25000000       0.25000000       0.00000000 </v>
   <v>      -0.12500000       0.25000000       0.00000000 </v>
   <v>      -0.00000000       0.37500000       0.00000000 </v>
   <v>       0.12500000       0.37500000       0.00000000 </v>
   <v>       0.25000000       0.37500000       0.00000000 </v>
   <v>       0.37500000       0.37500000       0.00000000 </v>
   <v>       0.50000000       0.37500000       0.00000000 </v>
   <v>      -0.37500000       0.37500000       0.00000000 </v>
   <v>      -0.25000000       0.37500000       0.00000000 </v>
   <v>      -0.12500000       0.37500000       0.00000000 </v>
   <v>       0.00000000       0.50000000       0.00000000 </v>
   <v>       0.12500000       0.50000000       0.00000000 </v>
   <v>       0.25000000       0.50000000       0.00000000 </v>
   <v>       0.37500000       0.50000000       0.00000000 </v>
   <v>       0.50000000       0.50000000       0.00000000 </v>
  </varray>
  <varray name="weights" >
   <v>       0.01562500 </v>
   <v>       0.03125000 </v>
   <v>       0.03125000 </v>
   <v>       0.03125000 </v>
   <v>       0.01562500 </v>
   <v>       0.03125000 </v>
   <v>       0.03125000 </v>
   <v>       0.03125000 </v>
   <v>       0.03125000 </v>
   <v>       0.03125000 </v>
   <v>       0.03125000 </v>
   <v>       0.03125000 </v>
   <v>       0.03125000 </v>
   <v>       0.03125000 </v>
   <v>       0.03125000 </v>
   <v>       0.03125000 </v>
   <v>       0.03125000 </v>
   <v>       0.03125000 </v>
   <v>       0.03125000 </v>
   <v>       0.03125000 </v>
   <v>       0.03125000 </v>
   <v>       0.03125000 </v>
   <v>       0.03125000 </v>
   <v>       0.03125000 </v>
   <v>       0.03125000 </v>
   <v>       0.03125000 </v>
   <v>       0.03125000 </v>
   <v>       0.03125000 </v>
   <v>       0.03125000 </v>
   <v>       0.01562500 </v>
   <v>       0.03125000 </v>
   <v>       0.03125000 </v>
   <v>       0.03125000 </v>
   <v>       0.01562500 </v>
  </varray>
 </kpoints>
 <parameters>
  <separator name="general" >
   <i type="string" name="SYSTEM">unknown system</i>
   <i type="logical" name="LCOMPAT"> F  </i>
  </separator>
  <separator name="electronic" >
   <i type="string" name="PREC">normal</i>
   <i name="ENMAX">    280.00000000</i>
   <i name="ENAUG">    373.43800000</i>
   <i name="EDIFF">      0.00010000</i>
   <i type="int" name="IALGO">    38</i>
   <i type="int" name="IWAVPR">    11</i>
   <i type="int" name="NBANDS">   120</i>
   <i name="NELECT">    159.00000000</i>
   <i type="int" name="TURBO">     0</i>
   <i type="int" name="IRESTART">     0</i>
   <i type="int" name="NREBOOT">     0</i>
   <i type="int" name="NMIN">     0</i>
   <i name="EREF">      0.00000000</i>
   <separator name="electronic smearing" >
    <i type="int" name="ISMEAR">     0</i>
    <i name="SIGMA">      0.20000000</i>
    <i name="KSPACING">      0.50000000</i>
    <i type="logical" name="KGAMMA"> T  </i>
   </separator>
   <separator name="electronic projectors" >
    <i type="logical" name="LREAL"> F  </i>
    <v name="ROPT">      0.00000000      0.00000000      0.00000000      0.00000000</v>
    <i type="int" name="LMAXPAW">  -100</i>
    <i type="int" name="LMAXMIX">     2</i>
    <i type="logical" name="NLSPLINE"> F  </i>
   </separator>
   <separator name="electronic startup" >
    <i type="int" name="ISTART">     0</i>
    <i type="int" name="ICHARG">     2</i>
    <i type="int" name="INIWAV">     1</i>
   </separator>
   <separator name="electronic spin" >
    <i type="int" name="ISPIN">     1</i>
    <i type="logical" name="LNONCOLLINEAR"> F  </i>
    <v name="MAGMOM">      1.00000000      1.00000000      1.00000000      1.00000000      1.00000000      1.00000000      1.00000000      1.00000000      1.00000000      1.00000000      1.00000000      1.00000000      1.00000000      1.00000000      1.00000000      1.00000000      1.00000000      1.00000000      1.00000000      1.00000000
      1.00000000      1.00000000      1.00000000      1.00000000      1.00000000      1.00000000      1.00000000</v>
    <i name="NUPDOWN">     -1.00000000</i>
    <i type="logical" name="LSORBIT"> F  </i>
    <v name="SAXIS">      0.00000000      0.00000000      1.00000000</v>
    <i type="logical" name="LSPIRAL"> F  </i>
    <v name="QSPIRAL">      0.00000000      0.00000000      0.00000000</v>
    <i type="logical" name="LZEROZ"> F  </i>
   </separator>
   <separator name="electronic exchange-correlation" >
    <i type="logical" name="LASPH"> F  </i>
    <i type="logical" name="LMETAGGA"> F  </i>
   </separator>
   <separator name="electronic convergence" >
    <i type="int" name="NELM">    60</i>
    <i type="int" name="NELMDL">    -5</i>
    <i type="int" name="NELMIN">     2</i>
    <i name="ENINI">    280.00000000</i>
    <separator name="electronic convergence detail" >
     <i type="logical" name="LDIAG"> T  </i>
     <i type="logical" name="LSUBROT"> F  </i>
     <i name="WEIMIN">      0.00100000</i>
     <i name="EBREAK">      0.00000021</i>
     <i name="DEPER">      0.30000000</i>
     <i type="int" name="NRMM">     4</i>
     <i name="TIME">      0.40000000</i>
    </separator>
   </separator>
   <separator name="electronic mixer" >
    <i name="AMIX">      0.40000000</i>
    <i name="BMIX">      1.00000000</i>
    <i name="AMIN">      0.10000000</i>
    <i name="AMIX_MAG">      1.60000000</i>
    <i name="BMIX_MAG">      1.00000000</i>
    <separator name="electronic mixer details" >
     <i type="int" name="IMIX">     4</i>
     <i type="logical" name="MIXFIRST"> F  </i>
     <i type="int" name="MAXMIX">   -45</i>
     <i name="WC">    100.00000000</i>
     <i type="int" name="INIMIX">     1</i>
     <i type="int" name="MIXPRE">     1</i>
     <i type="int" name="MREMOVE">     5</i>
    </separator>
   </separator>
   <separator name="electronic dipolcorrection" >
    <i type="logical" name="LDIPOL"> F  </i>
    <i type="logical" name="LMONO"> F  </i>
    <i type="int" name="IDIPOL">     0</i>
    <i name="EPSILON">      1.00000000</i>
    <v name="DIPOL">   -100.00000000   -100.00000000   -100.00000000</v>
    <i name="EFIELD">      0.00000000</i>
   </separator>
  </separator>
  <separator name="grids" >
   <i type="int" name="NGX">    42</i>
   <i type="int" name="NGY">    42</i>
   <i type="int" name="NGZ">   126</i>
   <i type="int" name="NGXF">    84</i>
   <i type="int" name="NGYF">    84</i>
   <i type="int" name="NGZF">   252</i>
   <i type="logical" name="ADDGRID"> F  </i>
  </separator>
  <separator name="ionic" >
   <i type="int" name="NSW">   100</i>
   <i type="int" name="IBRION">     1</i>
   <i type="int" name="ISIF">     3</i>
   <i name="PSTRESS">      0.00000000</i>
   <i name="EDIFFG">      0.00100000</i>
   <i type="int" name="NFREE">     0</i>
   <i name="POTIM">      0.50000000</i>
   <i name="SMASS">     -3.00000000</i>
   <i name="SCALEE">      1.00000000</i>
  </separator>
  <separator name="ionic md" >
   <i name="TEBEG">      0.00010000</i>
   <i name="TEEND">      0.00010000</i>
   <i type="int" name="NBLOCK">     1</i>
   <i type="int" name="KBLOCK">   100</i>
   <i type="int" name="NPACO">   256</i>
   <i name="APACO">     16.00000000</i>
  </separator>
  <separator name="symmetry" >
   <i type="int" name="ISYM">     0</i>
   <i name="SYMPREC">      0.00000001</i>
  </separator>
  <separator name="dos" >
   <i type="logical" name="LORBIT"> F  </i>
   <v name="RWIGS">     -1.00000000     -1.00000000     -1.00000000     -1.00000000</v>
   <i type="int" name="NEDOS">   301</i>
   <i name="EMIN">     10.00000000</i>
   <i name="EMAX">    -10.00000000</i>
   <i name="EFERMI">      0.00000000</i>
  </separator>
  <separator name="writing" >
   <i type="int" name="NWRITE">     2</i>
   <i type="logical" name="LWAVE"> F  </i>
   <i type="logical" name="LCHARG"> F  </i>
   <i type="logical" name="LPARD"> F  </i>
   <i type="logical" name="LVTOT"> F  </i>
   <i type="logical" name="LVHAR"> F  </i>
   <i type="logical" name="LELF"> F  </i>
   <i type="logical" name="LOPTICS"> F  </i>
   <v name="STM">      0.00000000      0.00000000      0.00000000      0.00000000      0.00000000      0.00000000      0.00000000</v>
  </separator>
  <separator name="performance" >
   <i type="int" name="NPAR">    40</i>
   <i type="int" name="NSIM">     4</i>
   <i type="int" name="NBLK">    -1</i>
   <i type="logical" name="LPLANE"> F  </i>
   <i type="logical" name="LSCALAPACK"> T  </i>
   <i type="logical" name="LSCAAWARE"> F  </i>
   <i type="logical" name="LSCALU"> F  </i>
   <i type="logical" name="LASYNC"> F  </i>
   <i type="logical" name="LORBITALREAL"> F  </i>
  </separator>
  <separator name="miscellaneous" >
   <i type="int" name="IDIOT">     3</i>
   <i type="logical" name="LMUSIC"> F  </i>
   <v name="POMASS">     50.94100000     95.94000000    183.85000000     32.06600000</v>
   <v name="DARWINR">      0.00000000      0.00000000      0.00000000      0.00000000</v>
   <v name="DARWINV">      1.00000000      1.00000000      1.00000000      1.00000000</v>
   <i type="logical" name="LCORR"> T  </i>
  </separator>
  <i type="logical" name="GGA_COMPAT"> T  </i>
  <i type="logical" name="LBERRY"> F  </i>
  <i type="int" name="ICORELEVEL">     0</i>
  <i type="logical" name="LDAU"> F  </i>
  <i type="int" name="I_CONSTRAINED_M">     0</i>
  <separator name="electronic exchange-correlation" >
   <i type="string" name="GGA">--</i>
   <i type="int" name="VOSKOWN">     0</i>
   <i type="logical" name="LHFCALC"> F  </i>
   <i type="string" name="PRECFOCK"></i>
   <i type="logical" name="LSYMGRAD"> F  </i>
   <i type="logical" name="LHFONE"> F  </i>
   <i type="logical" name="LRHFCALC"> F  </i>
   <i type="logical" name="LTHOMAS"> F  </i>
   <i type="logical" name="LMODELHF"> F  </i>
   <i name="ENCUT4O">     -1.00000000</i>
   <i type="int" name="EXXOEP">     0</i>
   <i type="int" name="FOURORBIT">     0</i>
   <i name="AEXX">      0.00000000</i>
   <i name="HFALPHA">      0.00000000</i>
   <i name="MCALPHA">      0.00000000</i>
   <i name="ALDAX">      1.00000000</i>
   <i name="AGGAX">      1.00000000</i>
   <i name="ALDAC">      1.00000000</i>
   <i name="AGGAC">      1.00000000</i>
   <i type="int" name="NKREDX">     1</i>
   <i type="int" name="NKREDY">     1</i>
   <i type="int" name="NKREDZ">     1</i>
   <i type="logical" name="SHIFTRED"> F  </i>
   <i type="logical" name="ODDONLY"> F  </i>
   <i type="logical" name="EVENONLY"> F  </i>
   <i type="int" name="LMAXFOCK">     0</i>
   <i type="int" name="NMAXFOCKAE">     0</i>
   <i type="logical" name="LFOCKAEDFT"> F  </i>
   <i name="HFSCREEN">      0.00000000</i>
   <i name="HFSCREENC">      0.00000000</i>
   <i type="int" name="NBANDSGWLOW">     0</i>
  </separator>
  <separator name="vdW DFT" >
   <i type="logical" name="LUSE_VDW"> F  </i>
   <i name="Zab_VDW">     -0.84910000</i>
   <i name="PARAM1">      0.12340000</i>
   <i name="PARAM2">      1.00000000</i>
   <i name="PARAM3">      0.00000000</i>
  </separator>
  <separator name="model GW" >
   <i type="int" name="MODEL_GW">     0</i>
   <i name="MODEL_EPS0">     58.26239943</i>
   <i name="MODEL_ALPHA">      1.00000000</i>
  </separator>
  <separator name="linear response parameters" >
   <i type="logical" name="LEPSILON"> F  </i>
   <i type="logical" name="LRPA"> F  </i>
   <i type="logical" name="LNABLA"> F  </i>
   <i type="logical" name="LVEL"> F  </i>
   <i type="int" name="KINTER">     0</i>
   <i name="CSHIFT">      0.10000000</i>
   <i name="OMEGAMAX">     -1.00000000</i>
   <i name="DEG_THRESHOLD">      0.00200000</i>
  </separator>
  <separator name="orbital magnetization" >
   <i type="logical" name="NUCIND"> F  </i>
   <v name="MAGPOS">      0.00000000      0.00000000      0.00000000</v>
   <i type="logical" name="LNICSALL"> T  </i>
   <i type="logical" name="ORBITALMAG"> F  </i>
   <i type="logical" name="LMAGBLOCH"> F  </i>
   <i type="logical" name="LCHIMAG"> F  </i>
   <i type="logical" name="LGAUGE"> T  </i>
   <i type="int" name="MAGATOM">     0</i>
   <v name="MAGDIPOL">      0.00000000      0.00000000      0.00000000</v>
   <v name="AVECCONST">      0.00000000      0.00000000      0.00000000</v>
  </separator>
  <separator name="response functions" >
   <i type="logical" name="LADDER"> F  </i>
   <i type="logical" name="LFXC"> F  </i>
   <i type="logical" name="LHARTREE"> T  </i>
   <i type="int" name="IBSE">     0</i>
   <v type="int" name="KPOINT">    -1     0     0     0</v>
   <i type="logical" name="LTCTE"> F  </i>
   <i type="logical" name="LTETE"> F  </i>
   <i type="logical" name="LTRIPLET"> F  </i>
   <i type="logical" name="LFXCEPS"> F  </i>
   <i type="logical" name="LFXHEG"> F  </i>
   <i type="int" name="NATURALO">     0</i>
   <i type="logical" name="L2ORDER"> F  </i>
   <i type="logical" name="LUSEW"> F  </i>
   <i name="ENCUTGW">     -2.00000000</i>
   <i name="ENCUTGWSOFT">     -2.00000000</i>
   <i name="ENCUTLF">     -1.00000000</i>
   <i type="int" name="LMAXMP2">    -1</i>
   <i name="SCISSOR">      0.00000000</i>
   <i type="int" name="NOMEGA">     0</i>
   <i type="int" name="NOMEGAR">     0</i>
   <i type="int" name="NBANDSGW">    -1</i>
   <i type="int" name="NBANDSO">    -1</i>
   <i type="int" name="NBANDSV">    -1</i>
   <i type="int" name="NELM">     1</i>
   <i type="int" name="NELMHF">     1</i>
   <i type="int" name="DIM">     3</i>
   <i type="int" name="ANTIRES">     0</i>
   <i name="OMEGAMAX">    -30.00000000</i>
   <i name="OMEGAMIN">    -30.00000000</i>
   <i name="OMEGATL">   -200.00000000</i>
   <i type="int" name="OMEGAGRID">     0</i>
   <i name="CSHIFT">     -0.10000000</i>
   <i type="logical" name="SELFENERGY"> F  </i>
   <i type="logical" name="LSPECTRAL"> F  </i>
   <i type="logical" name="LSPECTRALGW"> F  </i>
   <i type="logical" name="LSINGLES"> F  </i>
   <i type="logical" name="LFERMIGW"> F  </i>
   <i type="logical" name="ODDONLYGW"> F  </i>
   <i type="logical" name="EVENONLYGW"> F  </i>
   <i type="int" name="NKREDLFX">     1</i>
   <i type="int" name="NKREDLFY">     1</i>
   <i type="int" name="NKREDLFZ">     1</i>
   <i type="int" name="MAXMEM">  1800</i>
   <i type="int" name="TELESCOPE">     0</i>
   <i type="int" name="TAUPAR">     1</i>
   <i type="int" name="OMEGAPAR">    -1</i>
   <i name="LAMBDA">      1.00000000</i>
  </separator>
  <separator name="External order field" >
   <i name="OFIELD_KAPPA">      0.00000000</i>
   <v name="OFIELD_K">      0.00000000      0.00000000      0.00000000</v>
   <i name="OFIELD_Q6_NEAR">      0.00000000</i>
   <i name="OFIELD_Q6_FAR">      0.00000000</i>
   <i name="OFIELD_A">      0.00000000</i>
  </separator>
 </parameters>
 <atominfo>
  <atoms>      27 </atoms>
  <types>       4 </types>
  <array name="atoms" >
   <dimension dim="1">ion</dimension>
   <field type="string">element</field>
   <field type="int">atomtype</field>
   <set>
    <rc><c>V </c><c>   1</c></rc>
    <rc><c>V </c><c>   1</c></rc>
    <rc><c>V </c><c>   1</c></rc>
    <rc><c>Mo</c><c>   2</c></rc>
    <rc><c>Mo</c><c>   2</c></rc>
    <rc><c>Mo</c><c>   2</c></rc>
    <rc><c>W </c><c>   3</c></rc>
    <rc><c>W </c><c>   3</c></rc>
    <rc><c>W </c><c>   3</c></rc>
    <rc><c>S </c><c>   4</c></rc>
    <rc><c>S </c><c>   4</c></rc>
    <rc><c>S </c><c>   4</c></rc>
    <rc><c>S </c><c>   4</c></rc>
    <rc><c>S </c><c>   4</c></rc>
    <rc><c>S </c><c>   4</c></rc>
    <rc><c>S </c><c>   4</c></rc>
    <rc><c>S </c><c>   4</c></rc>
    <rc><c>S </c><c>   4</c></rc>
    <rc><c>S </c><c>   4</c></rc>
    <rc><c>S </c><c>   4</c></rc>
    <rc><c>S </c><c>   4</c></rc>
    <rc><c>S </c><c>   4</c></rc>
    <rc><c>S </c><c>   4</c></rc>
    <rc><c>S </c><c>   4</c></rc>
    <rc><c>S </c><c>   4</c></rc>
    <rc><c>S </c><c>   4</c></rc>
    <rc><c>S </c><c>   4</c></rc>
   </set>
  </array>
  <array name="atomtypes" >
   <dimension dim="1">type</dimension>
   <field type="int">atomspertype</field>
   <field type="string">element</field>
   <field>mass</field>
   <field>valence</field>
   <field type="string">pseudopotential</field>
   <set>
    <rc><c>   3</c><c>V </c><c>     50.94100000</c><c>      5.00000000</c><c> PAW_PBE V 08Apr2002                    </c></rc>
    <rc><c>   3</c><c>Mo</c><c>     95.94000000</c><c>      6.00000000</c><c> PAW_PBE Mo 08Apr2002                   </c></rc>
    <rc><c>   3</c><c>W </c><c>    183.85000000</c><c>      6.00000000</c><c> PAW_PBE W 08Apr2002                    </c></rc>
    <rc><c>  18</c><c>S </c><c>     32.06600000</c><c>      6.00000000</c><c>  PAW_PBE S 17Jan2003                   </c></rc>
   </set>
  </array>
 </atominfo>
 <structure name="initialpos" >
  <crystal>
   <varray name="basis" >
    <v>       8.66999996       5.03999989       0.00000000 </v>
    <v>      -8.66999982       5.04000013       0.00000000 </v>
    <v>       0.00000000       0.00000000      30.00000000 </v>
   </varray>
   <i name="volume">   2621.80797419 </i>
   <varray name="rec_basis" >
    <v>       0.05767013       0.09920635       0.00000000 </v>
    <v>      -0.05767013       0.09920635       0.00000000 </v>
    <v>       0.00000000       0.00000000       0.03333333 </v>
   </varray>
  </crystal>
  <varray name="positions" >
   <v>       0.66666669       0.33333334       0.00000000 </v>
   <v>       0.33333334       0.66666669       0.00000000 </v>
   <v>       1.00000000       0.33333334       0.00000000 </v>
   <v>       0.66666669       0.66666669       0.00000000 </v>
   <v>       0.33333334       0.00000000       0.00000000 </v>
   <v>       0.33333334       0.33333334       0.00000000 </v>
   <v>       0.00000000       0.00000000       0.00000000 </v>
   <v>       0.00000000       0.66666669       0.00000000 </v>
   <v>       0.66666669       0.00000000       0.00000000 </v>
   <v>       0.11068511       0.22244981       0.95539999 </v>
   <v>       0.22244981       0.11068511       0.04460000 </v>
   <v>       0.11068511       0.55578315       0.95539999 </v>
   <v>       0.22244981       0.44401845       0.04460000 </v>
   <v>       0.11068511       0.88911647       0.95539999 </v>
   <v>       0.22244981       0.77735180       0.04460000 </v>
   <v>       0.44401845       0.22244981       0.95539999 </v>
   <v>       0.55578315       0.11068511       0.04460000 </v>
   <v>       0.44401845       0.55578315       0.95539999 </v>
   <v>       0.55578315       0.44401845       0.04460000 </v>
   <v>       0.44401845       0.88911647       0.95539999 </v>
   <v>       0.55578315       0.77735180       0.04460000 </v>
   <v>       0.77735180       0.22244981       0.95539999 </v>
   <v>       0.88911647       0.11068511       0.04460000 </v>
   <v>       0.77735180       0.55578315       0.95539999 </v>
   <v>       0.88911647       0.44401845       0.04460000 </v>
   <v>       0.77735180       0.88911647       0.95539999 </v>
   <v>       0.88911647       0.77735180       0.04460000 </v>
  </varray>
 </structure>
 <calculation>
  <scstep>
   <time name="dav">   21.65   21.70</time>
   <time name="total">   21.69   21.75</time>
   <energy>
    <i name="alphaZ">     81.65567618 </i>
    <i name="ewald">  41890.23011113 </i>
    <i name="hartreedc"> -47722.86557402 </i>
    <i name="XCdc">   -242.92862441 </i>
    <i name="pawpsdc">   3467.42045192 </i>
    <i name="pawaedc">  -2871.19716117 </i>
    <i name="eentropy">     -0.53572791 </i>
    <i name="bandstr">   -238.91344471 </i>
    <i name="atom">   6761.44252427 </i>
    <i name="e_fr_energy">   1124.30823127 </i>
    <i name="e_wo_entrp">   1124.84395918 </i>
    <i name="e_0_energy">   1124.57609523 </i>
   </energy>
  </scstep>
  <scstep>
   <time name="dav">   27.75   27.81</time>
   <time name="total">   27.75   27.82</time>
   <energy>
    <i name="e_fr_energy">     -1.94701236 </i>
    <i name="e_wo_entrp">     -1.77355980 </i>
    <i name="e_0_energy">     -1.86028608 </i>
   </energy>
  </scstep>
  <scstep>
   <time name="dav">   27.43   27.50</time>
   <time name="total">   27.44   27.51</time>
   <energy>
    <i name="e_fr_energy">   -199.62665434 </i>
    <i name="e_wo_entrp">   -199.37313566 </i>
    <i name="e_0_energy">   -199.49989500 </i>
   </energy>
  </scstep>
  <scstep>
   <time name="dav">   29.66   29.73</time>
   <time name="total">   29.66   29.74</time>
   <energy>
    <i name="e_fr_energy">   -208.94414239 </i>
    <i name="e_wo_entrp">   -208.65971530 </i>
    <i name="e_0_energy">   -208.80192884 </i>
   </energy>
  </scstep>
  <scstep>
   <time name="dav">   28.84   28.91</time>
   <time name="total">   29.31   29.38</time>
   <energy>
    <i name="e_fr_energy">   -209.31273917 </i>
    <i name="e_wo_entrp">   -209.03204815 </i>
    <i name="e_0_energy">   -209.17239366 </i>
   </energy>
  </scstep>
  <scstep>
   <time name="dav">   30.93   31.01</time>
   <time name="total">   31.44   31.52</time>
   <energy>
    <i name="e_fr_energy">   -237.22300389 </i>
    <i name="e_wo_entrp">   -236.94723961 </i>
    <i name="e_0_energy">   -237.08512175 </i>
   </energy>
  </scstep>
  <scstep>
   <time name="dav">   32.25   32.33</time>
   <time name="total">   32.76   32.84</time>
   <energy>
    <i name="e_fr_energy">   -196.46851928 </i>
    <i name="e_wo_entrp">   -196.13810290 </i>
    <i name="e_0_energy">   -196.30331109 </i>
   </energy>
  </scstep>
  <scstep>
   <time name="dav">   29.27   29.34</time>
   <time name="total">   29.79   29.87</time>
   <energy>
    <i name="e_fr_energy">   -189.42560176 </i>
    <i name="e_wo_entrp">   -189.13402161 </i>
    <i name="e_0_energy">   -189.27981168 </i>
   </energy>
  </scstep>
  <scstep>
   <time name="dav">   30.52   30.60</time>
   <time name="total">   31.05   31.13</time>
   <energy>
    <i name="e_fr_energy">   -188.22905335 </i>
    <i name="e_wo_entrp">   -187.90902985 </i>
    <i name="e_0_energy">   -188.06904160 </i>
   </energy>
  </scstep>
  <scstep>
   <time name="dav">   32.34   32.42</time>
   <time name="total">   32.88   32.96</time>
   <energy>
    <i name="e_fr_energy">   -187.07942359 </i>
    <i name="e_wo_entrp">   -186.73243440 </i>
    <i name="e_0_energy">   -186.90592900 </i>
   </energy>
  </scstep>
  <scstep>
   <time name="dav">   32.85   32.93</time>
   <time name="total">   33.39   33.48</time>
   <energy>
    <i name="e_fr_energy">   -187.02951630 </i>
    <i name="e_wo_entrp">   -186.68148591 </i>
    <i name="e_0_energy">   -186.85550111 </i>
   </energy>
  </scstep>
  <scstep>
   <time name="dav">   31.19   31.27</time>
   <time name="total">   31.73   31.81</time>
   <energy>
    <i name="e_fr_energy">   -187.17352956 </i>
    <i name="e_wo_entrp">   -186.83514772 </i>
    <i name="e_0_energy">   -187.00433864 </i>
   </energy>
  </scstep>
  <scstep>
   <time name="dav">   32.25   32.33</time>
   <time name="total">   32.79   32.87</time>
   <energy>
    <i name="e_fr_energy">   -186.92699598 </i>
    <i name="e_wo_entrp">   -186.59241955 </i>
    <i name="e_0_energy">   -186.75970777 </i>
   </energy>
  </scstep>
  <scstep>
   <time name="dav">   32.52   32.60</time>
   <time name="total">   33.06   33.15</time>
   <energy>
    <i name="e_fr_energy">   -186.87970908 </i>
    <i name="e_wo_entrp">   -186.53596289 </i>
    <i name="e_0_energy">   -186.70783599 </i>
   </energy>
  </scstep>
  <scstep>
   <time name="dav">   30.69   30.76</time>
   <time name="total">   31.22   31.31</time>
   <energy>
    <i name="e_fr_energy">   -186.88163230 </i>
    <i name="e_wo_entrp">   -186.53666027 </i>
    <i name="e_0_energy">   -186.70914628 </i>
   </energy>
  </scstep>
  <scstep>
   <time name="dav">   32.51   32.59</time>
   <time name="total">   33.05   33.14</time>
   <energy>
    <i name="e_fr_energy">   -186.87261723 </i>
    <i name="e_wo_entrp">   -186.52713525 </i>
    <i name="e_0_energy">   -186.69987624 </i>
   </energy>
  </scstep>
  <scstep>
   <time name="dav">   31.21   31.29</time>
   <time name="total">   31.75   31.84</time>
   <energy>
    <i name="e_fr_energy">   -186.86928324 </i>
    <i name="e_wo_entrp">   -186.52623573 </i>
    <i name="e_0_energy">   -186.69775948 </i>
   </energy>
  </scstep>
  <scstep>
   <time name="dav">   29.80   29.87</time>
   <time name="total">   30.34   30.42</time>
   <energy>
    <i name="e_fr_energy">   -186.86909231 </i>
    <i name="e_wo_entrp">   -186.52563334 </i>
    <i name="e_0_energy">   -186.69736283 </i>
   </energy>
  </scstep>
  <scstep>
   <time name="dav">   27.92   27.99</time>
   <time name="total">   28.46   28.54</time>
   <energy>
    <i name="e_fr_energy">   -186.86874487 </i>
    <i name="e_wo_entrp">   -186.52514857 </i>
    <i name="e_0_energy">   -186.69694672 </i>
   </energy>
  </scstep>
  <scstep>
   <time name="dav">   23.75   23.81</time>
   <time name="total">   24.29   24.36</time>
   <energy>
    <i name="e_fr_energy">   -186.86951087 </i>
    <i name="e_wo_entrp">   -186.52618464 </i>
    <i name="e_0_energy">   -186.69784775 </i>
   </energy>
  </scstep>
  <scstep>
   <time name="dav">   21.54   21.59</time>
   <time name="total">   22.07   22.14</time>
   <energy>
    <i name="e_fr_energy">   -186.87011699 </i>
    <i name="e_wo_entrp">   -186.52676231 </i>
    <i name="e_0_energy">   -186.69843965 </i>
   </energy>
  </scstep>
  <scstep>
   <time name="dav">   20.41   20.45</time>
   <time name="total">   20.95   21.00</time>
   <energy>
    <i name="e_fr_energy">   -186.87122604 </i>
    <i name="e_wo_entrp">   -186.52784180 </i>
    <i name="e_0_energy">   -186.69953392 </i>
   </energy>
  </scstep>
  <scstep>
   <time name="dav">   20.54   20.59</time>
   <time name="total">   21.08   21.14</time>
   <energy>
    <i name="e_fr_energy">   -186.87245338 </i>
    <i name="e_wo_entrp">   -186.52915198 </i>
    <i name="e_0_energy">   -186.70080268 </i>
   </energy>
  </scstep>
  <scstep>
   <time name="dav">   19.06   19.11</time>
   <time name="total">   19.60   19.66</time>
   <energy>
    <i name="e_fr_energy">   -186.87303882 </i>
    <i name="e_wo_entrp">   -186.52970905 </i>
    <i name="e_0_energy">   -186.70137393 </i>
   </energy>
  </scstep>
  <scstep>
   <time name="dav">   16.61   16.65</time>
   <time name="total">   17.15   17.20</time>
   <energy>
    <i name="e_fr_energy">   -186.87341757 </i>
    <i name="e_wo_entrp">   -186.53005094 </i>
    <i name="e_0_energy">   -186.70173426 </i>
   </energy>
  </scstep>
  <scstep>
   <time name="dav">   19.15   19.19</time>
   <time name="total">   19.68   19.74</time>
   <energy>
    <i name="e_fr_energy">   -186.87363630 </i>
    <i name="e_wo_entrp">   -186.53028387 </i>
    <i name="e_0_energy">   -186.70196008 </i>
   </energy>
  </scstep>
  <scstep>
   <time name="dav">   19.31   19.36</time>
   <time name="total">   19.85   19.90</time>
   <energy>
    <i name="e_fr_energy">   -186.87373994 </i>
    <i name="e_wo_entrp">   -186.53039186 </i>
    <i name="e_0_energy">   -186.70206590 </i>
   </energy>
  </scstep>
  <scstep>
   <time name="dav">   19.96   20.01</time>
   <time name="total">   20.00   20.05</time>
   <energy>
    <i name="alphaZ">     81.65567618 </i>
    <i name="ewald">  41890.23011113 </i>
    <i name="hartreedc"> -47833.03447804 </i>
    <i name="XCdc">   -231.60127062 </i>
    <i name="pawpsdc">   4192.08586857 </i>
    <i name="pawaedc">  -3610.10371179 </i>
    <i name="eentropy">     -0.34334844 </i>
    <i name="bandstr">  -1437.20516145 </i>
    <i name="atom">   6761.44252427 </i>
    <i name="e_fr_energy">   -186.87379018 </i>
    <i name="e_wo_entrp">   -186.53044175 </i>
    <i name="e_0_energy">   -186.70211597 </i>
   </energy>
  </scstep>
  <structure>
   <crystal>
    <varray name="basis" >
     <v>       8.66999996       5.03999989       0.00000000 </v>
     <v>      -8.66999982       5.04000013       0.00000000 </v>
     <v>       0.00000000       0.00000000      30.00000000 </v>
    </varray>
    <i name="volume">   2621.80797419 </i>
    <varray name="rec_basis" >
     <v>       0.05767013       0.09920635       0.00000000 </v>
     <v>      -0.05767013       0.09920635       0.00000000 </v>
     <v>       0.00000000       0.00000000       0.03333333 </v>
    </varray>
   </crystal>
   <varray name="positions" >
    <v>       0.66666669       0.33333334       0.00000000 </v>
    <v>       0.33333334       0.66666669       0.00000000 </v>
    <v>       1.00000000       0.33333334       0.00000000 </v>
    <v>       0.66666669       0.66666669       0.00000000 </v>
    <v>       0.33333334       0.00000000       0.00000000 </v>
    <v>       0.33333334       0.33333334       0.00000000 </v>
    <v>       0.00000000       0.00000000       0.00000000 </v>
    <v>       0.00000000       0.66666669       0.00000000 </v>
    <v>       0.66666669       0.00000000       0.00000000 </v>
    <v>       0.11068511       0.22244981       0.95539999 </v>
    <v>       0.22244981       0.11068511       0.04460000 </v>
    <v>       0.11068511       0.55578315       0.95539999 </v>
    <v>       0.22244981       0.44401845       0.04460000 </v>
    <v>       0.11068511       0.88911647       0.95539999 </v>
    <v>       0.22244981       0.77735180       0.04460000 </v>
    <v>       0.44401845       0.22244981       0.95539999 </v>
    <v>       0.55578315       0.11068511       0.04460000 </v>
    <v>       0.44401845       0.55578315       0.95539999 </v>
    <v>       0.55578315       0.44401845       0.04460000 </v>
    <v>       0.44401845       0.88911647       0.95539999 </v>
    <v>       0.55578315       0.77735180       0.04460000 </v>
    <v>       0.77735180       0.22244981       0.95539999 </v>
    <v>       0.88911647       0.11068511       0.04460000 </v>
    <v>       0.77735180       0.55578315       0.95539999 </v>
    <v>       0.88911647       0.44401845       0.04460000 </v>
    <v>       0.77735180       0.88911647       0.95539999 </v>
    <v>       0.88911647       0.77735180       0.04460000 </v>
   </varray>
  </structure>
  <varray name="forces" >
   <v>      -0.36505651      -0.19809500      -0.10250409 </v>
   <v>       0.23380487       0.05700267       0.11785971 </v>
   <v>       0.14015888       0.14777753       0.01699119 </v>
   <v>       0.00473046      -0.27879192       0.07662172 </v>
   <v>      -0.26460353       0.11442915      -0.10372278 </v>
   <v>       0.21648968       0.16242630       0.02288467 </v>
   <v>       0.27073448       0.19355707      -0.01980047 </v>
   <v>      -0.12935577       0.06604281       0.02465720 </v>
   <v>      -0.10641296      -0.27868269      -0.05082495 </v>
   <v>      -0.65778961      -0.16096663      -2.10104010 </v>
   <v>      -0.23017414      -0.15850474       2.89533700 </v>
   <v>       0.74272756       0.00003545      -1.45584099 </v>
   <v>      -0.91479430       0.01821197       1.46251279 </v>
   <v>       0.05127610      -0.10959404      -2.95842621 </v>
   <v>       0.69011673      -0.15789261       2.09162757 </v>
   <v>       0.54646711       0.71226216      -2.20099951 </v>
   <v>      -0.35590517       0.70871663       2.14509782 </v>
   <v>      -0.74376026      -0.01015272      -2.11273030 </v>
   <v>       0.73189287       0.01077314       2.13645271 </v>
   <v>       0.60343276      -0.53676120      -2.14397715 </v>
   <v>      -0.61625600      -0.57530858       2.20473807 </v>
   <v>      -0.25294235       0.51613590      -1.41318284 </v>
   <v>      -0.45172930       0.56238585       2.15786398 </v>
   <v>       0.64173667      -0.57451045      -2.15513061 </v>
   <v>       0.23562604      -0.51464203       1.38839478 </v>
   <v>       0.05948126       0.15953124      -2.85125240 </v>
   <v>      -0.07989559       0.12461472       2.92839321 </v>
  </varray>
  <varray name="stress" >
   <v>       7.43255389       0.00222056      -1.61731750 </v>
   <v>       0.00222079       4.30855849       0.01836004 </v>
   <v>      -1.61731745       0.01836022      30.31166185 </v>
  </varray>
  <energy>
   <i name="e_fr_energy">   -186.87379018 </i>
   <i name="e_wo_entrp">   -186.70211597 </i>
   <i name="e_0_energy">     -0.34334844 </i>
  </energy>
  <time name="totalsc">  806.10  808.26</time>
 </calculation>
 <calculation>
  <scstep>
   <time name="dav">   21.68   21.73</time>
   <time name="total">   22.23   22.28</time>
   <energy>
    <i name="alphaZ">     78.92462910 </i>
    <i name="ewald">  39381.34558489 </i>
    <i name="hartreedc"> -45338.90892976 </i>
    <i name="XCdc">   -239.05452669 </i>
    <i name="pawpsdc">   4192.08578280 </i>
    <i name="pawaedc">  -3610.10364322 </i>
    <i name="eentropy">     -0.27939380 </i>
    <i name="bandstr">  -1412.95124331 </i>
    <i name="atom">   6761.44252427 </i>
    <i name="e_fr_energy">   -187.49921573 </i>
    <i name="e_wo_entrp">   -187.21982192 </i>
    <i name="e_0_energy">   -187.35951882 </i>
   </energy>
  </scstep>
  <scstep>
   <time name="dav">   30.22   30.29</time>
   <time name="total">   30.76   30.84</time>
   <energy>
    <i name="e_fr_energy">   -189.50081669 </i>
    <i name="e_wo_entrp">   -189.16702858 </i>
    <i name="e_0_energy">   -189.33392263 </i>
   </energy>
  </scstep>
  <scstep>
   <time name="dav">   30.54   30.61</time>
   <time name="total">   31.09   31.17</time>
   <energy>
    <i name="e_fr_energy">   -189.34045631 </i>
    <i name="e_wo_entrp">   -189.07694793 </i>
    <i name="e_0_energy">   -189.20870212 </i>
   </energy>
  </scstep>
  <scstep>
   <time name="dav">   29.23   29.30</time>
   <time name="total">   29.78   29.86</time>
   <energy>
    <i name="e_fr_energy">   -188.76732164 </i>
    <i name="e_wo_entrp">   -188.48479678 </i>
    <i name="e_0_energy">   -188.62605921 </i>
   </energy>
  </scstep>
  <scstep>
   <time name="dav">   30.02   30.09</time>
   <time name="total">   30.56   30.64</time>
   <energy>
    <i name="e_fr_energy">   -188.89990340 </i>
    <i name="e_wo_entrp">   -188.61325532 </i>
    <i name="e_0_energy">   -188.75657936 </i>
   </energy>
  </scstep>
  <scstep>
   <time name="dav">   31.00   31.07</time>
   <time name="total">   31.54   31.63</time>
   <energy>
    <i name="e_fr_energy">   -188.74232721 </i>
    <i name="e_wo_entrp">   -188.45852518 </i>
    <i name="e_0_energy">   -188.60042619 </i>
   </energy>
  </scstep>
  <scstep>
   <time name="dav">   28.96   29.03</time>
   <time name="total">   29.50   29.58</time>
   <energy>
    <i name="e_fr_energy">   -188.71232704 </i>
    <i name="e_wo_entrp">   -188.42742855 </i>
    <i name="e_0_energy">   -188.56987779 </i>
   </energy>
  </scstep>
  <scstep>
   <time name="dav">   31.46   31.53</time>
   <time name="total">   32.00   32.09</time>
   <energy>
    <i name="e_fr_energy">   -188.69538948 </i>
    <i name="e_wo_entrp">   -188.41484136 </i>
    <i name="e_0_energy">   -188.55511542 </i>
   </energy>
  </scstep>
  <scstep>
   <time name="dav">   29.55   29.62</time>
   <time name="total">   30.09   30.17</time>
   <energy>
    <i name="e_fr_energy">   -188.67036353 </i>
    <i name="e_wo_entrp">   -188.38866822 </i>
    <i name="e_0_energy">   -188.52951587 </i>
   </energy>
  </scstep>
  <scstep>
   <time name="dav">   27.89   27.95</time>
   <time name="total">   28.44   28.51</time>
   <energy>
    <i name="e_fr_energy">   -188.66869107 </i>
    <i name="e_wo_entrp">   -188.38840758 </i>
    <i name="e_0_energy">   -188.52854933 </i>
   </energy>
  </scstep>
  <scstep>
   <time name="dav">   32.01   32.09</time>
   <time name="total">   32.56   32.64</time>
   <energy>
    <i name="e_fr_energy">   -188.66813749 </i>
    <i name="e_wo_entrp">   -188.38859702 </i>
    <i name="e_0_energy">   -188.52836726 </i>
   </energy>
  </scstep>
  <scstep>
   <time name="dav">   29.28   29.35</time>
   <time name="total">   29.83   29.91</time>
   <energy>
    <i name="e_fr_energy">   -188.66807527 </i>
    <i name="e_wo_entrp">   -188.38870019 </i>
    <i name="e_0_energy">   -188.52838773 </i>
   </energy>
  </scstep>
  <scstep>
   <time name="dav">   20.58   20.63</time>
   <time name="total">   20.62   20.67</time>
   <energy>
    <i name="alphaZ">     78.92462910 </i>
    <i name="ewald">  39381.34558489 </i>
    <i name="hartreedc"> -45349.61838260 </i>
    <i name="XCdc">   -237.97300201 </i>
    <i name="pawpsdc">   3950.53231151 </i>
    <i name="pawaedc">  -3365.04526956 </i>
    <i name="eentropy">     -0.27971001 </i>
    <i name="bandstr">  -1407.99674042 </i>
    <i name="atom">   6761.44252427 </i>
    <i name="e_fr_energy">   -188.66805481 </i>
    <i name="e_wo_entrp">   -188.38834480 </i>
    <i name="e_0_energy">   -188.52819981 </i>
   </energy>
  </scstep>
  <structure>
   <crystal>
    <varray name="basis" >
     <v>       8.85844744       5.10354837       0.00000000 </v>
     <v>      -8.85838184       5.10343602       0.00000000 </v>
     <v>       0.00000000       0.00000000      30.00000000 </v>
    </varray>
    <i name="volume">   2712.53099786 </i>
    <varray name="rec_basis" >
     <v>       0.05644289       0.09797177       0.00000000 </v>
     <v>      -0.05644413       0.09797249       0.00000000 </v>
     <v>       0.00000000       0.00000000       0.03333333 </v>
    </varray>
   </crystal>
   <varray name="positions" >
    <v>       0.66470296       0.33340091      -0.00016484 </v>
    <v>       0.33425664       0.66628902       0.00018953 </v>
    <v>       1.00109720       0.33365066       0.00002732 </v>
    <v>       0.66534556       0.66531923       0.00012321 </v>
    <v>       0.33314483       0.00128382      -0.00016680 </v>
    <v>       0.33471302       0.33350840       0.00003680 </v>
    <v>       0.00167959       0.00017313      -0.00003184 </v>
    <v>      -0.00004381       0.66734265       0.00003965 </v>
    <v>       0.66503686      -0.00103771      -0.00008173 </v>
    <v>       0.10808465       0.22350950       0.95202133 </v>
    <v>       0.22105083       0.11056689       0.04925596 </v>
    <v>       0.11275167       0.55371694       0.95305887 </v>
    <v>       0.21999187       0.44665072       0.04695185 </v>
    <v>       0.11030325       0.88844929       0.95064258 </v>
    <v>       0.22361415       0.77467611       0.04796352 </v>
    <v>       0.44894768       0.22433832       0.95186059 </v>
    <v>       0.55818487       0.11506720       0.04804951 </v>
    <v>       0.44190060       0.55780382       0.95200253 </v>
    <v>       0.55787096       0.44203377       0.04803560 </v>
    <v>       0.44312837       0.88486869       0.95195229 </v>
    <v>       0.55131522       0.77631291       0.04814541 </v>
    <v>       0.77911829       0.22562375       0.95312747 </v>
    <v>       0.89055125       0.11463346       0.04807003 </v>
    <v>       0.77638762       0.55124814       0.95193435 </v>
    <v>       0.88730895       0.44089984       0.04683266 </v>
    <v>       0.77828080       0.88971449       0.95081492 </v>
    <v>       0.88949059       0.77817048       0.04930911 </v>
   </varray>
  </structure>
  <varray name="forces" >
   <v>      -0.32186582      -0.21173216      -0.03135682 </v>
   <v>       0.24590669       0.11434319       0.04091634 </v>
   <v>       0.13332478       0.08534869       0.01653359 </v>
   <v>      -0.03467807      -0.12806659      -0.04196862 </v>
   <v>      -0.40877389       0.00335808       0.03758342 </v>
   <v>       0.31135361       0.06360554      -0.00555275 </v>
   <v>       0.43031129       0.11494672      -0.00468857 </v>
   <v>      -0.37358480       0.22938773       0.09910426 </v>
   <v>       0.02599848      -0.27566114      -0.08441435 </v>
   <v>       0.01958332      -0.08976860       0.02622010 </v>
   <v>      -0.05461096      -0.09648358       0.14402468 </v>
   <v>      -0.10219275       0.00449665       0.17996234 </v>
   <v>      -0.02976485       0.01279895      -0.06061702 </v>
   <v>      -0.07353691      -0.09210967      -0.14298130 </v>
   <v>      -0.02727945      -0.11031885      -0.09305573 </v>
   <v>       0.02856176       0.09337093      -0.19638552 </v>
   <v>       0.10812718       0.06582778      -0.07500792 </v>
   <v>      -0.06125603      -0.01434976      -0.05459485 </v>
   <v>       0.07164206       0.00069230       0.16613504 </v>
   <v>       0.07658922       0.04383056       0.03076618 </v>
   <v>      -0.08881038       0.02588012       0.09720026 </v>
   <v>       0.05115488      -0.07877869       0.19183302 </v>
   <v>       0.05393483      -0.07133929      -0.16990395 </v>
   <v>       0.09393317       0.03897685       0.02120141 </v>
   <v>      -0.06613625       0.06979906      -0.22725935 </v>
   <v>      -0.07410997       0.10403523       0.11032693 </v>
   <v>       0.06617886       0.09790998       0.02597918 </v>
  </varray>
  <varray name="stress" >
   <v>     -19.94151048       0.01052829       0.06881238 </v>
   <v>       0.01052827     -19.46701326      -0.01179499 </v>
   <v>       0.06881234      -0.01179525      -1.73874740 </v>
  </varray>
  <energy>
   <i name="e_fr_energy">   -188.66805481 </i>
   <i name="e_wo_entrp">   -188.52819981 </i>
   <i name="e_0_energy">     -0.27971001 </i>
  </energy>
  <time name="totalsc">  420.96  422.07</time>
 </calculation>
 <calculation>
  <scstep>
   <time name="dav">   23.78   23.84</time>
   <time name="total">   24.32   24.38</time>
   <energy>
    <i name="alphaZ">     82.35845305 </i>
    <i name="ewald">  41309.99736640 </i>
    <i name="hartreedc"> -47308.94800831 </i>
    <i name="XCdc">   -233.83842583 </i>
    <i name="pawpsdc">   3950.04135577 </i>
    <i name="pawaedc">  -3364.54948932 </i>
    <i name="eentropy">     -0.23295355 </i>
    <i name="bandstr">  -1386.86127155 </i>
    <i name="atom">   6761.44252427 </i>
    <i name="e_fr_energy">   -190.59044907 </i>
    <i name="e_wo_entrp">   -190.35749552 </i>
    <i name="e_0_energy">   -190.47397229 </i>
   </energy>
  </scstep>
  <scstep>
   <time name="dav">   27.75   27.81</time>
   <time name="total">   28.27   28.35</time>
   <energy>
    <i name="e_fr_energy">   -190.57311234 </i>
    <i name="e_wo_entrp">   -190.34520419 </i>
    <i name="e_0_energy">   -190.45915827 </i>
   </energy>
  </scstep>
  <scstep>
   <time name="dav">   30.15   30.22</time>
   <time name="total">   30.69   30.77</time>
   <energy>
    <i name="e_fr_energy">   -190.06237077 </i>
    <i name="e_wo_entrp">   -189.81379718 </i>
    <i name="e_0_energy">   -189.93808397 </i>
   </energy>
  </scstep>
  <scstep>
   <time name="dav">   31.19   31.27</time>
   <time name="total">   31.73   31.82</time>
   <energy>
    <i name="e_fr_energy">   -189.85613812 </i>
    <i name="e_wo_entrp">   -189.62776800 </i>
    <i name="e_0_energy">   -189.74195306 </i>
   </energy>
  </scstep>
  <scstep>
   <time name="dav">   27.65   27.71</time>
   <time name="total">   28.18   28.26</time>
   <energy>
    <i name="e_fr_energy">   -189.79147245 </i>
    <i name="e_wo_entrp">   -189.54904272 </i>
    <i name="e_0_energy">   -189.67025759 </i>
   </energy>
  </scstep>
  <scstep>
   <time name="dav">   31.11   31.18</time>
   <time name="total">   31.64   31.73</time>
   <energy>
    <i name="e_fr_energy">   -189.75974492 </i>
    <i name="e_wo_entrp">   -189.52726095 </i>
    <i name="e_0_energy">   -189.64350294 </i>
   </energy>
  </scstep>
  <scstep>
   <time name="dav">   30.74   30.81</time>
   <time name="total">   31.28   31.36</time>
   <energy>
    <i name="e_fr_energy">   -189.75228498 </i>
    <i name="e_wo_entrp">   -189.51764423 </i>
    <i name="e_0_energy">   -189.63496461 </i>
   </energy>
  </scstep>
  <scstep>
   <time name="dav">   26.33   26.40</time>
   <time name="total">   26.87   26.94</time>
   <energy>
    <i name="e_fr_energy">   -189.75230382 </i>
    <i name="e_wo_entrp">   -189.51788284 </i>
    <i name="e_0_energy">   -189.63509333 </i>
   </energy>
  </scstep>
  <scstep>
   <time name="dav">   26.55   26.62</time>
   <time name="total">   27.09   27.16</time>
   <energy>
    <i name="e_fr_energy">   -189.75252816 </i>
    <i name="e_wo_entrp">   -189.51801243 </i>
    <i name="e_0_energy">   -189.63527030 </i>
   </energy>
  </scstep>
  <scstep>
   <time name="dav">   26.24   26.31</time>
   <time name="total">   26.78   26.85</time>
   <energy>
    <i name="e_fr_energy">   -189.75269305 </i>
    <i name="e_wo_entrp">   -189.51802507 </i>
    <i name="e_0_energy">   -189.63535906 </i>
   </energy>
  </scstep>
  <scstep>
   <time name="dav">   24.63   24.69</time>
   <time name="total">   25.17   25.23</time>
   <energy>
    <i name="e_fr_energy">   -189.75239428 </i>
    <i name="e_wo_entrp">   -189.51771311 </i>
    <i name="e_0_energy">   -189.63505370 </i>
   </energy>
  </scstep>
  <scstep>
   <time name="dav">   17.20   17.24</time>
   <time name="total">   17.24   17.29</time>
   <energy>
    <i name="alphaZ">     82.35845305 </i>
    <i name="ewald">  41309.99736640 </i>
    <i name="hartreedc"> -47282.24710262 </i>
    <i name="XCdc">   -235.23592615 </i>
    <i name="pawpsdc">   4038.83844829 </i>
    <i name="pawaedc">  -3454.54615913 </i>
    <i name="eentropy">     -0.23462638 </i>
    <i name="bandstr">  -1410.12537853 </i>
    <i name="atom">   6761.44252427 </i>
    <i name="e_fr_energy">   -189.75240081 </i>
    <i name="e_wo_entrp">   -189.51777443 </i>
    <i name="e_0_energy">   -189.63508762 </i>
   </energy>
  </scstep>
  <structure>
   <crystal>
    <varray name="basis" >
     <v>       8.66962141       4.99741744       0.00000000 </v>
     <v>      -8.66944231       4.99710799       0.00000000 </v>
     <v>       0.00000000       0.00000000      30.00000000 </v>
    </varray>
    <i name="volume">   2599.43569847 </i>
    <varray name="rec_basis" >
     <v>       0.05767146       0.10005374       0.00000000 </v>
     <v>      -0.05767503       0.10005581       0.00000000 </v>
     <v>       0.00000000       0.00000000       0.03333333 </v>
    </varray>
   </crystal>
   <varray name="positions" >
    <v>       0.66403945       0.33335698      -0.00018266 </v>
    <v>       0.33468434       0.66624336       0.00021279 </v>
    <v>       1.00136811       0.33366492       0.00003672 </v>
    <v>       0.66509823       0.66513866       0.00009936 </v>
    <v>       0.33275701       0.00168288      -0.00014543 </v>
    <v>       0.33511895       0.33331499       0.00003364 </v>
    <v>       0.00228578      -0.00004900      -0.00003451 </v>
    <v>      -0.00002015       0.66808545       0.00009598 </v>
    <v>       0.66460136      -0.00152326      -0.00012971 </v>
    <v>       0.10795353       0.22334068       0.95203624 </v>
    <v>       0.22083708       0.11045826       0.04933782 </v>
    <v>       0.11266082       0.55382281       0.95316116 </v>
    <v>       0.21998460       0.44670075       0.04691739 </v>
    <v>       0.11007860       0.88836619       0.95056131 </v>
    <v>       0.22340360       0.77451806       0.04791063 </v>
    <v>       0.44913116       0.22446682       0.95174896 </v>
    <v>       0.55839891       0.11507310       0.04800687 </v>
    <v>       0.44181767       0.55783881       0.95197150 </v>
    <v>       0.55794107       0.44196597       0.04813004 </v>
    <v>       0.44327531       0.88486820       0.95196977 </v>
    <v>       0.55127297       0.77644162       0.04820066 </v>
    <v>       0.77903591       0.22544290       0.95323651 </v>
    <v>       0.89048398       0.11446237       0.04797346 </v>
    <v>       0.77654314       0.55122285       0.95194640 </v>
    <v>       0.88736190       0.44108010       0.04670349 </v>
    <v>       0.77838327       0.88995963       0.95087763 </v>
    <v>       0.88971785       0.77827036       0.04932388 </v>
   </varray>
  </structure>
  <varray name="forces" >
   <v>      -0.32611104      -0.21717754      -0.00616287 </v>
   <v>       0.25975504       0.15782466       0.01285369 </v>
   <v>       0.14590752       0.05250158       0.01147245 </v>
   <v>      -0.05135647      -0.07255427      -0.05257116 </v>
   <v>      -0.46290510      -0.04674224       0.05269482 </v>
   <v>       0.33835605       0.02239797      -0.01201110 </v>
   <v>       0.48187914       0.08040271      -0.00243155 </v>
   <v>      -0.45476177       0.28110909       0.08508008 </v>
   <v>       0.08168318      -0.27533333      -0.06651914 </v>
   <v>      -0.08279139      -0.01100891      -0.46599605 </v>
   <v>      -0.02597412      -0.01407712       0.71153089 </v>
   <v>       0.04239847       0.01020186      -0.26637889 </v>
   <v>      -0.08775667       0.01419354       0.39111102 </v>
   <v>      -0.02499262      -0.02785596      -0.73593636 </v>
   <v>       0.08418206      -0.03170753       0.39996094 </v>
   <v>       0.06180882       0.15486206      -0.71265088 </v>
   <v>      -0.00663441       0.12544999       0.41507792 </v>
   <v>      -0.13296394      -0.02547795      -0.54155905 </v>
   <v>       0.14665435       0.00111983       0.66524648 </v>
   <v>       0.05638894      -0.10506476      -0.46486699 </v>
   <v>      -0.08120910      -0.10409122       0.61787084 </v>
   <v>      -0.02856683       0.05745335      -0.25998916 </v>
   <v>      -0.01465890       0.04269941       0.32094728 </v>
   <v>       0.09417728      -0.08313092      -0.47843980 </v>
   <v>       0.00624653      -0.06582034       0.21670724 </v>
   <v>      -0.02852953       0.04959105      -0.43055649 </v>
   <v>       0.00977452       0.03023501       0.59551585 </v>
  </varray>
  <varray name="stress" >
   <v>     -10.17521274       0.00109845       0.07150511 </v>
   <v>       0.00109839      -9.79006803      -0.01319227 </v>
   <v>       0.07150511      -0.01319218       6.54201106 </v>
  </varray>
  <energy>
   <i name="e_fr_energy">   -189.75240081 </i>
   <i name="e_wo_entrp">   -189.63508762 </i>
   <i name="e_0_energy">     -0.23462638 </i>
  </energy>
  <time name="totalsc">  371.28  372.27</time>
 </calculation>
 <calculation>
  <scstep>
   <time name="dav">   21.62   21.67</time>
   <time name="total">   22.15   22.20</time>
   <energy>
    <i name="alphaZ">     85.83395163 </i>
    <i name="ewald">  42838.23787326 </i>
    <i name="hartreedc"> -48855.05337687 </i>
    <i name="XCdc">   -232.95814485 </i>
    <i name="pawpsdc">   4038.95629310 </i>
    <i name="pawaedc">  -3454.66155504 </i>
    <i name="eentropy">     -0.19129100 </i>
    <i name="bandstr">  -1372.90206154 </i>
    <i name="atom">   6761.44252427 </i>
    <i name="e_fr_energy">   -191.29578705 </i>
    <i name="e_wo_entrp">   -191.10449605 </i>
    <i name="e_0_energy">   -191.20014155 </i>
   </energy>
  </scstep>
  <scstep>
   <time name="dav">   32.60   32.68</time>
   <time name="total">   33.12   33.21</time>
   <energy>
    <i name="e_fr_energy">   -191.18667601 </i>
    <i name="e_wo_entrp">   -190.98847841 </i>
    <i name="e_0_energy">   -191.08757721 </i>
   </energy>
  </scstep>
  <scstep>
   <time name="dav">   28.90   28.97</time>
   <time name="total">   29.42   29.50</time>
   <energy>
    <i name="e_fr_energy">   -191.23516784 </i>
    <i name="e_wo_entrp">   -191.02358994 </i>
    <i name="e_0_energy">   -191.12937889 </i>
   </energy>
  </scstep>
  <scstep>
   <time name="dav">   30.67   30.75</time>
   <time name="total">   31.19   31.28</time>
   <energy>
    <i name="e_fr_energy">   -190.90809453 </i>
    <i name="e_wo_entrp">   -190.69895237 </i>
    <i name="e_0_energy">   -190.80352345 </i>
   </energy>
  </scstep>
  <scstep>
   <time name="dav">   27.92   27.99</time>
   <time name="total">   28.44   28.52</time>
   <energy>
    <i name="e_fr_energy">   -190.89587765 </i>
    <i name="e_wo_entrp">   -190.71046340 </i>
    <i name="e_0_energy">   -190.80317052 </i>
   </energy>
  </scstep>
  <scstep>
   <time name="dav">   28.00   28.07</time>
   <time name="total">   28.52   28.59</time>
   <energy>
    <i name="e_fr_energy">   -190.71276260 </i>
    <i name="e_wo_entrp">   -190.51541708 </i>
    <i name="e_0_energy">   -190.61408984 </i>
   </energy>
  </scstep>
  <scstep>
   <time name="dav">   28.29   28.36</time>
   <time name="total">   28.81   28.89</time>
   <energy>
    <i name="e_fr_energy">   -190.71129226 </i>
    <i name="e_wo_entrp">   -190.51507082 </i>
    <i name="e_0_energy">   -190.61318154 </i>
   </energy>
  </scstep>
  <scstep>
   <time name="dav">   25.86   25.92</time>
   <time name="total">   26.38   26.45</time>
   <energy>
    <i name="e_fr_energy">   -190.70781244 </i>
    <i name="e_wo_entrp">   -190.51103192 </i>
    <i name="e_0_energy">   -190.60942218 </i>
   </energy>
  </scstep>
  <scstep>
   <time name="dav">   30.32   30.39</time>
   <time name="total">   30.84   30.92</time>
   <energy>
    <i name="e_fr_energy">   -190.70851041 </i>
    <i name="e_wo_entrp">   -190.51173259 </i>
    <i name="e_0_energy">   -190.61012150 </i>
   </energy>
  </scstep>
  <scstep>
   <time name="dav">   26.46   26.53</time>
   <time name="total">   26.98   27.06</time>
   <energy>
    <i name="e_fr_energy">   -190.70826828 </i>
    <i name="e_wo_entrp">   -190.51154665 </i>
    <i name="e_0_energy">   -190.60990747 </i>
   </energy>
  </scstep>
  <scstep>
   <time name="dav">   25.21   25.27</time>
   <time name="total">   25.73   25.80</time>
   <energy>
    <i name="e_fr_energy">   -190.70807669 </i>
    <i name="e_wo_entrp">   -190.51133458 </i>
    <i name="e_0_energy">   -190.60970564 </i>
   </energy>
  </scstep>
  <scstep>
   <time name="dav">   18.66   18.70</time>
   <time name="total">   18.69   18.74</time>
   <energy>
    <i name="alphaZ">     85.83395163 </i>
    <i name="ewald">  42838.23787326 </i>
    <i name="hartreedc"> -48826.47715287 </i>
    <i name="XCdc">   -234.29466599 </i>
    <i name="pawpsdc">   4063.15600030 </i>
    <i name="pawaedc">  -3479.02610084 </i>
    <i name="eentropy">     -0.19682577 </i>
    <i name="bandstr">  -1399.38369305 </i>
    <i name="atom">   6761.44252427 </i>
    <i name="e_fr_energy">   -190.70808906 </i>
    <i name="e_wo_entrp">   -190.51126329 </i>
    <i name="e_0_energy">   -190.60967617 </i>
   </energy>
  </scstep>
  <structure>
   <crystal>
    <varray name="basis" >
     <v>       8.48686815       4.89818728       0.00000000 </v>
     <v>      -8.48680983       4.89808696       0.00000000 </v>
     <v>       0.00000000       0.00000000      30.00000000 </v>
    </varray>
    <i name="volume">   2494.18206753 </i>
    <varray name="rec_basis" >
     <v>       0.05891415       0.10207927       0.00000000 </v>
     <v>      -0.05891535       0.10207998       0.00000000 </v>
     <v>       0.00000000       0.00000000       0.03333333 </v>
    </varray>
   </crystal>
   <varray name="positions" >
    <v>       0.66148020       0.33316676      -0.00017411 </v>
    <v>       0.33674012       0.66638217       0.00021566 </v>
    <v>       1.00216078       0.33336703       0.00005619 </v>
    <v>       0.66457202       0.66503139      -0.00001846 </v>
    <v>       0.33058923       0.00301572      -0.00002354 </v>
    <v>       0.33641822       0.33209150       0.00000331 </v>
    <v>       0.00451898      -0.00144620      -0.00003763 </v>
    <v>       0.00011081       0.67173571       0.00026028 </v>
    <v>       0.66325136      -0.00362317      -0.00025231 </v>
    <v>       0.10763454       0.22391332       0.95065501 </v>
    <v>       0.22090088       0.11062776       0.05129112 </v>
    <v>       0.11309926       0.55354061       0.95223206 </v>
    <v>       0.21967686       0.44719338       0.04810932 </v>
    <v>       0.11004297       0.88837212       0.94853595 </v>
    <v>       0.22386415       0.77405090       0.04915580 </v>
    <v>       0.45052565       0.22531938       0.94983669 </v>
    <v>       0.55914509       0.11619600       0.04928087 </v>
    <v>       0.44104714       0.55823466       0.95043826 </v>
    <v>       0.55858653       0.44133663       0.04992965 </v>
    <v>       0.44242143       0.88366463       0.95058800 </v>
    <v>       0.55001486       0.77574863       0.04992042 </v>
    <v>       0.77951730       0.22635915       0.95231600 </v>
    <v>       0.89088391       0.11516475       0.04905320 </v>
    <v>       0.77605917       0.55005752       0.95053313 </v>
    <v>       0.88673843       0.44020411       0.04752773 </v>
    <v>       0.77852093       0.89017291       0.94952862 </v>
    <v>       0.88969364       0.77833708       0.05103869 </v>
   </varray>
  </structure>
  <varray name="forces" >
   <v>      -0.27349394      -0.19855967       0.04798291 </v>
   <v>       0.31301827       0.17134628      -0.04307112 </v>
   <v>       0.12662886       0.02713608       0.00432490 </v>
   <v>      -0.08582694      -0.04024228      -0.03100614 </v>
   <v>      -0.53703490      -0.10891357       0.02331859 </v>
   <v>       0.32738499      -0.02611340      -0.01235897 </v>
   <v>       0.52970600       0.09403673       0.01006304 </v>
   <v>      -0.45973361       0.31412981       0.02206423 </v>
   <v>       0.10936284      -0.25828280      -0.02018248 </v>
   <v>       0.03561000       0.02047015      -0.30162024 </v>
   <v>      -0.03672651       0.04401473       0.54759940 </v>
   <v>      -0.02317114       0.03155421      -0.13598599 </v>
   <v>       0.03305882       0.02918202       0.31877966 </v>
   <v>       0.02018829       0.03195798      -0.60083107 </v>
   <v>      -0.00175796       0.02260199       0.24525245 </v>
   <v>       0.02231570       0.03649544      -0.54919938 </v>
   <v>      -0.02826540       0.00696448       0.22033860 </v>
   <v>      -0.00792716      -0.04281520      -0.37378302 </v>
   <v>       0.03760798      -0.00026951       0.44741143 </v>
   <v>      -0.04348772      -0.07279842      -0.25886139 </v>
   <v>      -0.00293484      -0.06948771       0.46791474 </v>
   <v>      -0.02438007      -0.00001777      -0.18015129 </v>
   <v>       0.03636150      -0.00983457       0.16928967 </v>
   <v>       0.02641245      -0.01865674      -0.30685172 </v>
   <v>      -0.05578897      -0.00231833       0.09698414 </v>
   <v>       0.03180228       0.03117381      -0.26941645 </v>
   <v>      -0.06892879      -0.01275374       0.46199550 </v>
  </varray>
  <varray name="stress" >
   <v>      -5.70158871       0.01947444      -0.12523241 </v>
   <v>       0.01947455      -5.90711664      -0.00804597 </v>
   <v>      -0.12523240      -0.00804588       4.52072764 </v>
  </varray>
  <energy>
   <i name="e_fr_energy">   -190.70808906 </i>
   <i name="e_wo_entrp">   -190.60967617 </i>
   <i name="e_0_energy">     -0.19682577 </i>
  </energy>
  <time name="totalsc">  372.12  373.11</time>
 </calculation>
 <calculation>
  <scstep>
   <time name="dav">   21.60   21.65</time>
   <time name="total">   22.11   22.17</time>
   <energy>
    <i name="alphaZ">     90.25216372 </i>
    <i name="ewald">  44705.21087711 </i>
    <i name="hartreedc"> -50749.30319785 </i>
    <i name="XCdc">   -231.76724661 </i>
    <i name="pawpsdc">   4063.12275097 </i>
    <i name="pawaedc">  -3478.98903379 </i>
    <i name="eentropy">     -0.17770042 </i>
    <i name="bandstr">  -1351.89097941 </i>
    <i name="atom">   6761.44252427 </i>
    <i name="e_fr_energy">   -192.09984203 </i>
    <i name="e_wo_entrp">   -191.92214160 </i>
    <i name="e_0_energy">   -192.01099181 </i>
   </energy>
  </scstep>
  <scstep>
   <time name="dav">   30.08   30.15</time>
   <time name="total">   30.59   30.67</time>
   <energy>
    <i name="e_fr_energy">   -191.94066131 </i>
    <i name="e_wo_entrp">   -191.74184658 </i>
    <i name="e_0_energy">   -191.84125394 </i>
   </energy>
  </scstep>
  <scstep>
   <time name="dav">   30.05   30.12</time>
   <time name="total">   30.56   30.64</time>
   <energy>
    <i name="e_fr_energy">   -192.38461769 </i>
    <i name="e_wo_entrp">   -192.19338091 </i>
    <i name="e_0_energy">   -192.28899930 </i>
   </energy>
  </scstep>
  <scstep>
   <time name="dav">   30.16   30.23</time>
   <time name="total">   30.67   30.75</time>
   <energy>
    <i name="e_fr_energy">   -191.53306538 </i>
    <i name="e_wo_entrp">   -191.35268939 </i>
    <i name="e_0_energy">   -191.44287739 </i>
   </energy>
  </scstep>
  <scstep>
   <time name="dav">   29.22   29.29</time>
   <time name="total">   29.73   29.81</time>
   <energy>
    <i name="e_fr_energy">   -191.50606256 </i>
    <i name="e_wo_entrp">   -191.30933738 </i>
    <i name="e_0_energy">   -191.40769997 </i>
   </energy>
  </scstep>
  <scstep>
   <time name="dav">   29.98   30.05</time>
   <time name="total">   30.48   30.56</time>
   <energy>
    <i name="e_fr_energy">   -191.37039433 </i>
    <i name="e_wo_entrp">   -191.18773628 </i>
    <i name="e_0_energy">   -191.27906531 </i>
   </energy>
  </scstep>
  <scstep>
   <time name="dav">   29.44   29.51</time>
   <time name="total">   29.95   30.03</time>
   <energy>
    <i name="e_fr_energy">   -191.34658709 </i>
    <i name="e_wo_entrp">   -191.16140958 </i>
    <i name="e_0_energy">   -191.25399834 </i>
   </energy>
  </scstep>
  <scstep>
   <time name="dav">   29.75   29.83</time>
   <time name="total">   30.26   30.34</time>
   <energy>
    <i name="e_fr_energy">   -191.34521032 </i>
    <i name="e_wo_entrp">   -191.15836161 </i>
    <i name="e_0_energy">   -191.25178597 </i>
   </energy>
  </scstep>
  <scstep>
   <time name="dav">   28.42   28.49</time>
   <time name="total">   28.93   29.01</time>
   <energy>
    <i name="e_fr_energy">   -191.33964518 </i>
    <i name="e_wo_entrp">   -191.15367830 </i>
    <i name="e_0_energy">   -191.24666174 </i>
   </energy>
  </scstep>
  <scstep>
   <time name="dav">   28.84   28.91</time>
   <time name="total">   29.34   29.42</time>
   <energy>
    <i name="e_fr_energy">   -191.33978482 </i>
    <i name="e_wo_entrp">   -191.15353741 </i>
    <i name="e_0_energy">   -191.24666112 </i>
   </energy>
  </scstep>
  <scstep>
   <time name="dav">   26.97   27.03</time>
   <time name="total">   27.48   27.55</time>
   <energy>
    <i name="e_fr_energy">   -191.33966283 </i>
    <i name="e_wo_entrp">   -191.15310718 </i>
    <i name="e_0_energy">   -191.24638500 </i>
   </energy>
  </scstep>
  <scstep>
   <time name="dav">   19.88   19.92</time>
   <time name="total">   19.91   19.97</time>
   <energy>
    <i name="alphaZ">     90.25216372 </i>
    <i name="ewald">  44705.21087711 </i>
    <i name="hartreedc"> -50714.75890331 </i>
    <i name="XCdc">   -233.33155738 </i>
    <i name="pawpsdc">   4085.43231781 </i>
    <i name="pawaedc">  -3501.38455048 </i>
    <i name="eentropy">     -0.18643554 </i>
    <i name="bandstr">  -1384.01606306 </i>
    <i name="atom">   6761.44252427 </i>
    <i name="e_fr_energy">   -191.33962687 </i>
    <i name="e_wo_entrp">   -191.15319133 </i>
    <i name="e_0_energy">   -191.24640910 </i>
   </energy>
  </scstep>
  <structure>
   <crystal>
    <varray name="basis" >
     <v>       8.28169319       4.77493346       0.00000000 </v>
     <v>      -8.28066369       4.77315084       0.00000000 </v>
     <v>       0.00000000       0.00000000      30.00000000 </v>
    </varray>
    <i name="volume">   2372.08166671 </i>
    <varray name="rec_basis" >
     <v>       0.06036661       0.10472654       0.00000000 </v>
     <v>      -0.06038915       0.10473956       0.00000000 </v>
     <v>       0.00000000       0.00000000       0.03333333 </v>
    </varray>
   </crystal>
   <varray name="positions" >
    <v>       0.65700207       0.33267792       0.00001344 </v>
    <v>       0.34113418       0.66639850       0.00004590 </v>
    <v>       1.00337793       0.33271177       0.00007236 </v>
    <v>       0.66358131       0.66524548      -0.00016430 </v>
    <v>       0.32539008       0.00546086       0.00010013 </v>
    <v>       0.33843414       0.32935937      -0.00005222 </v>
    <v>       0.00934245      -0.00420522      -0.00000186 </v>
    <v>       0.00067396       0.67907035       0.00036845 </v>
    <v>       0.66089416      -0.00766066      -0.00034026 </v>
    <v>       0.10802877       0.22436892       0.94888064 </v>
    <v>       0.22137850       0.11151030       0.05412228 </v>
    <v>       0.11360526       0.55377084       0.95118288 </v>
    <v>       0.22003640       0.44750829       0.04986363 </v>
    <v>       0.11070000       0.88866936       0.94548249 </v>
    <v>       0.22453114       0.77420924       0.05070042 </v>
    <v>       0.45159787       0.22588974       0.94704942 </v>
    <v>       0.55922958       0.11701891       0.05074438 </v>
    <v>       0.44022387       0.55800081       0.94837867 </v>
    <v>       0.55908181       0.44084179       0.05232222 </v>
    <v>       0.44080140       0.88253572       0.94895902 </v>
    <v>       0.54864812       0.77454855       0.05237978 </v>
    <v>       0.77969516       0.22715405       0.95111187 </v>
    <v>       0.89127306       0.11536358       0.05029035 </v>
    <v>       0.77562500       0.54911831       0.94872674 </v>
    <v>       0.88599918       0.43989672       0.04841295 </v>
    <v>       0.77902062       0.89018717       0.94783721 </v>
    <v>       0.88890844       0.77856379       0.05351332 </v>
   </varray>
  </structure>
  <varray name="forces" >
   <v>      -0.16229115      -0.11810373      -0.00090818 </v>
   <v>       0.41249634       0.06685332      -0.01299493 </v>
   <v>       0.08147159       0.02531367       0.00106875 </v>
   <v>      -0.11953304      -0.00358747       0.02975851 </v>
   <v>      -0.32962920      -0.09007244      -0.05684659 </v>
   <v>       0.09272387      -0.04722771       0.01995928 </v>
   <v>       0.24563348       0.07480327       0.07972241 </v>
   <v>      -0.27693922       0.19675755      -0.01967740 </v>
   <v>       0.16641007      -0.13978984      -0.01297675 </v>
   <v>       0.17098176      -0.00957774      -0.02692391 </v>
   <v>      -0.07856007       0.05695705       0.25176960 </v>
   <v>      -0.10456206       0.07005114       0.10451913 </v>
   <v>       0.13074891       0.05449733       0.04527793 </v>
   <v>       0.02017408       0.07880756      -0.34926229 </v>
   <v>      -0.11117032       0.06366271      -0.08472853 </v>
   <v>      -0.01396780      -0.08220743      -0.16876624 </v>
   <v>      -0.03253204      -0.15939188      -0.06538921 </v>
   <v>       0.13608518      -0.05027910      -0.11482196 </v>
   <v>      -0.05547235       0.00284081       0.09260954 </v>
   <v>      -0.14768159      -0.02475527       0.07715456 </v>
   <v>       0.07025225      -0.02431425       0.16748671 </v>
   <v>      -0.01545709      -0.08329471       0.06115178 </v>
   <v>       0.15038977      -0.07996188      -0.06822611 </v>
   <v>      -0.04749386       0.06253024      -0.00775558 </v>
   <v>      -0.14256203       0.09703511      -0.12289431 </v>
   <v>       0.08861726       0.07549380      -0.00444117 </v>
   <v>      -0.12813273      -0.01304012       0.18613495 </v>
  </varray>
  <varray name="stress" >
   <v>       0.19592912      -0.03267428      -0.31659118 </v>
   <v>      -0.03267427      -0.30407912      -0.04216535 </v>
   <v>      -0.31659109      -0.04216531      -0.26739593 </v>
  </varray>
  <energy>
   <i name="e_fr_energy">   -191.33962687 </i>
   <i name="e_wo_entrp">   -191.24640910 </i>
   <i name="e_0_energy">     -0.18643554 </i>
  </energy>
  <time name="totalsc">  381.53  382.55</time>
 </calculation>
 <calculation>
  <scstep>
   <time name="dav">   21.63   21.68</time>
   <time name="total">   22.14   22.19</time>
   <energy>
    <i name="alphaZ">     90.27598473 </i>
    <i name="ewald">  44694.99153076 </i>
    <i name="hartreedc"> -50705.54858098 </i>
    <i name="XCdc">   -233.40080427 </i>
    <i name="pawpsdc">   4085.31583134 </i>
    <i name="pawaedc">  -3501.26362530 </i>
    <i name="eentropy">     -0.18927932 </i>
    <i name="bandstr">  -1383.01355309 </i>
    <i name="atom">   6761.44252427 </i>
    <i name="e_fr_energy">   -191.38997185 </i>
    <i name="e_wo_entrp">   -191.20069253 </i>
    <i name="e_0_energy">   -191.29533219 </i>
   </energy>
  </scstep>
  <scstep>
   <time name="dav">   30.78   30.85</time>
   <time name="total">   31.29   31.37</time>
   <energy>
    <i name="e_fr_energy">   -191.44682140 </i>
    <i name="e_wo_entrp">   -191.24595103 </i>
    <i name="e_0_energy">   -191.34638621 </i>
   </energy>
  </scstep>
  <scstep>
   <time name="dav">   29.64   29.71</time>
   <time name="total">   30.15   30.23</time>
   <energy>
    <i name="e_fr_energy">   -191.39973819 </i>
    <i name="e_wo_entrp">   -191.21000258 </i>
    <i name="e_0_energy">   -191.30487039 </i>
   </energy>
  </scstep>
  <scstep>
   <time name="dav">   28.52   28.59</time>
   <time name="total">   29.03   29.10</time>
   <energy>
    <i name="e_fr_energy">   -191.40002612 </i>
    <i name="e_wo_entrp">   -191.20887210 </i>
    <i name="e_0_energy">   -191.30444911 </i>
   </energy>
  </scstep>
  <scstep>
   <time name="dav">   28.44   28.51</time>
   <time name="total">   28.96   29.04</time>
   <energy>
    <i name="e_fr_energy">   -191.39680914 </i>
    <i name="e_wo_entrp">   -191.20585178 </i>
    <i name="e_0_energy">   -191.30133046 </i>
   </energy>
  </scstep>
  <scstep>
   <time name="dav">   28.35   28.42</time>
   <time name="total">   28.86   28.94</time>
   <energy>
    <i name="e_fr_energy">   -191.39686908 </i>
    <i name="e_wo_entrp">   -191.20563641 </i>
    <i name="e_0_energy">   -191.30125274 </i>
   </energy>
  </scstep>
  <scstep>
   <time name="dav">   27.61   27.68</time>
   <time name="total">   28.12   28.19</time>
   <energy>
    <i name="e_fr_energy">   -191.39685267 </i>
    <i name="e_wo_entrp">   -191.20585678 </i>
    <i name="e_0_energy">   -191.30135473 </i>
   </energy>
  </scstep>
  <scstep>
   <time name="dav">   24.60   24.66</time>
   <time name="total">   25.11   25.17</time>
   <energy>
    <i name="e_fr_energy">   -191.39639174 </i>
    <i name="e_wo_entrp">   -191.20534950 </i>
    <i name="e_0_energy">   -191.30087062 </i>
   </energy>
  </scstep>
  <scstep>
   <time name="dav">   17.98   18.02</time>
   <time name="total">   18.02   18.07</time>
   <energy>
    <i name="alphaZ">     90.27598473 </i>
    <i name="ewald">  44694.99153076 </i>
    <i name="hartreedc"> -50706.30070873 </i>
    <i name="XCdc">   -233.38813787 </i>
    <i name="pawpsdc">   4082.79684425 </i>
    <i name="pawaedc">  -3498.70402602 </i>
    <i name="eentropy">     -0.19104823 </i>
    <i name="bandstr">  -1382.31937049 </i>
    <i name="atom">   6761.44252427 </i>
    <i name="e_fr_energy">   -191.39640732 </i>
    <i name="e_wo_entrp">   -191.20535910 </i>
    <i name="e_0_energy">   -191.30088321 </i>
   </energy>
  </scstep>
  <structure>
   <crystal>
    <varray name="basis" >
     <v>       8.28565717       4.77043679       0.00000000 </v>
     <v>      -8.28545195       4.77008635       0.00000000 </v>
     <v>       0.00000000       0.00000000      30.00000000 </v>
    </varray>
    <i name="volume">   2371.45574834 </i>
    <varray name="rec_basis" >
     <v>       0.06034377       0.10481476       0.00000000 </v>
     <v>      -0.06034821       0.10481735       0.00000000 </v>
     <v>       0.00000000       0.00000000       0.03333333 </v>
    </varray>
   </crystal>
   <varray name="positions" >
    <v>       0.65593752       0.33255447       0.00001184 </v>
    <v>       0.34266795       0.66553558       0.00002516 </v>
    <v>       1.00374172       0.33260300       0.00007406 </v>
    <v>       0.66321623       0.66557496      -0.00011638 </v>
    <v>       0.32398077       0.00596358       0.00000872 </v>
    <v>       0.33846400       0.32885334      -0.00002012 </v>
    <v>       0.01043076      -0.00454027       0.00012615 </v>
    <v>       0.00086087       0.68086346       0.00033675 </v>
    <v>       0.66067456      -0.00884722      -0.00036104 </v>
    <v>       0.10847752       0.22382252       0.94883902 </v>
    <v>       0.22143694       0.11202561       0.05452419 </v>
    <v>       0.11365409       0.55442859       0.95135179 </v>
    <v>       0.22069153       0.44740255       0.04993478 </v>
    <v>       0.11115578       0.88900812       0.94492417 </v>
    <v>       0.22452832       0.77485393       0.05056289 </v>
    <v>       0.45114138       0.22551494       0.94678076 </v>
    <v>       0.55833051       0.11630829       0.05063796 </v>
    <v>       0.44036672       0.55735117       0.94819609 </v>
    <v>       0.55893430       0.44101802       0.05246885 </v>
    <v>       0.44024837       0.88284162       0.94908446 </v>
    <v>       0.54873104       0.77422253       0.05264663 </v>
    <v>       0.77922959       0.22677776       0.95121123 </v>
    <v>       0.89130658       0.11452202       0.05017956 </v>
    <v>       0.77580291       0.54957303       0.94871593 </v>
    <v>       0.88607487       0.44080179       0.04821466 </v>
    <v>       0.77965899       0.89031037       0.94783166 </v>
    <v>       0.88847062       0.77887069       0.05381009 </v>
   </varray>
  </structure>
  <varray name="forces" >
   <v>      -0.15765382      -0.12640683       0.00390365 </v>
   <v>       0.42503647       0.04024290      -0.01960055 </v>
   <v>       0.07674179       0.03482628      -0.02268870 </v>
   <v>      -0.12622756      -0.00443856       0.01614693 </v>
   <v>      -0.36970292      -0.06951786      -0.01590918 </v>
   <v>       0.09022861      -0.04393572       0.01454265 </v>
   <v>       0.27242659       0.07726854       0.02933812 </v>
   <v>      -0.31344796       0.20131920      -0.00941758 </v>
   <v>       0.18771129      -0.14179556      -0.03020802 </v>
   <v>       0.10638676      -0.01382192      -0.00328282 </v>
   <v>      -0.05065385       0.04571718       0.17830761 </v>
   <v>      -0.06429703       0.05652421       0.12922818 </v>
   <v>       0.08287456       0.03969158       0.03988622 </v>
   <v>      -0.02549301       0.04805387      -0.23018362 </v>
   <v>      -0.05771524       0.05110362      -0.12695823 </v>
   <v>      -0.02447854      -0.04459519      -0.12419514 </v>
   <v>      -0.01151866      -0.11468847      -0.10450531 </v>
   <v>       0.09933672      -0.02863687      -0.09661647 </v>
   <v>      -0.02626427       0.00669915       0.05746036 </v>
   <v>      -0.08570887      -0.03511627       0.11250997 </v>
   <v>       0.05170349      -0.02343037       0.14778968 </v>
   <v>      -0.00867653      -0.06140299       0.09825497 </v>
   <v>       0.09508230      -0.05095435      -0.04669359 </v>
   <v>      -0.04328571       0.03649664       0.01184350 </v>
   <v>      -0.10141567       0.06878624      -0.14535119 </v>
   <v>       0.06197635       0.06010350       0.01641846 </v>
   <v>      -0.08296526      -0.00809195       0.11998010 </v>
  </varray>
  <varray name="stress" >
   <v>      -0.05526109       0.01698465      -0.12443633 </v>
   <v>       0.01698468      -0.13951833      -0.00344445 </v>
   <v>      -0.12443622      -0.00344432      -0.99058539 </v>
  </varray>
  <energy>
   <i name="e_fr_energy">   -191.39640732 </i>
   <i name="e_wo_entrp">   -191.30088321 </i>
   <i name="e_0_energy">     -0.19104823 </i>
  </energy>
  <time name="totalsc">  283.56  284.31</time>
 </calculation>
 <calculation>
  <scstep>
   <time name="dav">   21.63   21.68</time>
   <time name="total">   22.14   22.19</time>
   <energy>
    <i name="alphaZ">     90.39510449 </i>
    <i name="ewald">  44738.34701061 </i>
    <i name="hartreedc"> -50751.21326564 </i>
    <i name="XCdc">   -233.35149167 </i>
    <i name="pawpsdc">   4082.73640110 </i>
    <i name="pawaedc">  -3498.64250591 </i>
    <i name="eentropy">     -0.19072583 </i>
    <i name="bandstr">  -1380.99059171 </i>
    <i name="atom">   6761.44252427 </i>
    <i name="e_fr_energy">   -191.46754028 </i>
    <i name="e_wo_entrp">   -191.27681445 </i>
    <i name="e_0_energy">   -191.37217737 </i>
   </energy>
  </scstep>
  <scstep>
   <time name="dav">   31.80   31.88</time>
   <time name="total">   32.31   32.40</time>
   <energy>
    <i name="e_fr_energy">   -191.59150125 </i>
    <i name="e_wo_entrp">   -191.37164969 </i>
    <i name="e_0_energy">   -191.48157547 </i>
   </energy>
  </scstep>
  <scstep>
   <time name="dav">   29.59   29.66</time>
   <time name="total">   30.09   30.17</time>
   <energy>
    <i name="e_fr_energy">   -191.48506327 </i>
    <i name="e_wo_entrp">   -191.29300611 </i>
    <i name="e_0_energy">   -191.38903469 </i>
   </energy>
  </scstep>
  <scstep>
   <time name="dav">   28.83   28.90</time>
   <time name="total">   29.33   29.41</time>
   <energy>
    <i name="e_fr_energy">   -191.48412582 </i>
    <i name="e_wo_entrp">   -191.29012087 </i>
    <i name="e_0_energy">   -191.38712334 </i>
   </energy>
  </scstep>
  <scstep>
   <time name="dav">   28.94   29.01</time>
   <time name="total">   29.45   29.53</time>
   <energy>
    <i name="e_fr_energy">   -191.47591960 </i>
    <i name="e_wo_entrp">   -191.28145424 </i>
    <i name="e_0_energy">   -191.37868692 </i>
   </energy>
  </scstep>
  <scstep>
   <time name="dav">   28.15   28.22</time>
   <time name="total">   28.66   28.74</time>
   <energy>
    <i name="e_fr_energy">   -191.47602707 </i>
    <i name="e_wo_entrp">   -191.28078417 </i>
    <i name="e_0_energy">   -191.37840562 </i>
   </energy>
  </scstep>
  <scstep>
[...]
      <set comment="kpoint 31">
       <r>  -17.5414    1.0000 </r>
       <r>  -17.2338    1.0000 </r>
       <r>  -16.9139    1.0000 </r>
       <r>  -16.6440    1.0000 </r>
       <r>  -16.5048    1.0000 </r>
       <r>  -16.4246    1.0000 </r>
       <r>  -16.2705    1.0000 </r>
       <r>  -16.2210    1.0000 </r>
       <r>  -16.0715    1.0000 </r>
       <r>  -15.9965    1.0000 </r>
       <r>  -15.8977    1.0000 </r>
       <r>  -15.8609    1.0000 </r>
       <r>  -15.7866    1.0000 </r>
       <r>  -15.6945    1.0000 </r>
       <r>  -15.6250    1.0000 </r>
       <r>  -15.5400    1.0000 </r>
       <r>  -15.4296    1.0000 </r>
       <r>  -15.3027    1.0000 </r>
       <r>   -9.7580    1.0000 </r>
       <r>   -9.4493    1.0000 </r>
       <r>   -9.3359    1.0000 </r>
       <r>   -9.0249    1.0000 </r>
       <r>   -8.8241    1.0000 </r>
       <r>   -8.6919    1.0000 </r>
       <r>   -8.5565    1.0000 </r>
       <r>   -8.4755    1.0000 </r>
       <r>   -8.4066    1.0000 </r>
       <r>   -8.3215    1.0000 </r>
       <r>   -8.2751    1.0000 </r>
       <r>   -8.1991    1.0000 </r>
       <r>   -8.1485    1.0000 </r>
       <r>   -8.0971    1.0000 </r>
       <r>   -7.9982    1.0000 </r>
       <r>   -7.8955    1.0000 </r>
       <r>   -7.8085    1.0000 </r>
       <r>   -7.6400    1.0000 </r>
       <r>   -7.5770    1.0000 </r>
       <r>   -7.4806    1.0000 </r>
       <r>   -7.3381    1.0000 </r>
       <r>   -7.1796    1.0000 </r>
       <r>   -7.1058    1.0000 </r>
       <r>   -7.0343    1.0000 </r>
       <r>   -7.0114    1.0000 </r>
       <r>   -6.9782    1.0000 </r>
       <r>   -6.8983    1.0000 </r>
       <r>   -6.8409    1.0000 </r>
       <r>   -6.6939    1.0000 </r>
       <r>   -6.6185    1.0000 </r>
       <r>   -6.5874    1.0000 </r>
       <r>   -6.5401    1.0000 </r>
       <r>   -6.4367    1.0000 </r>
       <r>   -6.3068    1.0000 </r>
       <r>   -6.2432    1.0000 </r>
       <r>   -6.1770    1.0000 </r>
       <r>   -6.1092    1.0000 </r>
       <r>   -6.0188    1.0000 </r>
       <r>   -5.9479    1.0000 </r>
       <r>   -5.8910    1.0000 </r>
       <r>   -5.8515    1.0000 </r>
       <r>   -5.7795    1.0000 </r>
       <r>   -5.7290    1.0000 </r>
       <r>   -5.6137    1.0000 </r>
       <r>   -5.5283    1.0000 </r>
       <r>   -5.3352    1.0000 </r>
       <r>   -5.3085    1.0000 </r>
       <r>   -5.1740    1.0000 </r>
       <r>   -5.1047    1.0000 </r>
       <r>   -4.8745    1.0000 </r>
       <r>   -4.7916    1.0000 </r>
       <r>   -4.7164    1.0000 </r>
       <r>   -4.5366    1.0000 </r>
       <r>   -4.4405    1.0000 </r>
       <r>   -4.3927    1.0000 </r>
       <r>   -4.2579    1.0000 </r>
       <r>   -4.0585    1.0000 </r>
       <r>   -3.9976    1.0000 </r>
       <r>   -3.7829    0.9986 </r>
       <r>   -3.7421    0.9965 </r>
       <r>   -3.6074    0.9598 </r>
       <r>   -3.3751    0.5421 </r>
       <r>   -3.0576    0.0162 </r>
       <r>   -2.8292    0.0001 </r>
       <r>   -2.7960    0.0000 </r>
       <r>   -2.6919    0.0000 </r>
       <r>   -2.4950    0.0000 </r>
       <r>   -2.3584    0.0000 </r>
       <r>   -2.3342    0.0000 </r>
       <r>   -2.1390    0.0000 </r>
       <r>   -2.0930    0.0000 </r>
       <r>   -1.9976    0.0000 </r>
       <r>   -1.7495    0.0000 </r>
       <r>   -1.5547    0.0000 </r>
       <r>   -1.3848    0.0000 </r>
       <r>   -1.3146    0.0000 </r>
       <r>   -1.2527    0.0000 </r>
       <r>   -1.1928    0.0000 </r>
       <r>   -1.0928    0.0000 </r>
       <r>   -1.0473    0.0000 </r>
       <r>   -0.9590    0.0000 </r>
       <r>   -0.8938    0.0000 </r>
       <r>   -0.8050    0.0000 </r>
       <r>   -0.7370    0.0000 </r>
       <r>   -0.6554    0.0000 </r>
       <r>   -0.5125    0.0000 </r>
       <r>   -0.4619    0.0000 </r>
       <r>   -0.2689    0.0000 </r>
       <r>   -0.2011    0.0000 </r>
       <r>   -0.1381    0.0000 </r>
       <r>   -0.0447    0.0000 </r>
       <r>    0.0392    0.0000 </r>
       <r>    0.3042    0.0000 </r>
       <r>    0.5445    0.0000 </r>
       <r>    0.6768    0.0000 </r>
       <r>    1.0329    0.0000 </r>
       <r>    1.1238    0.0000 </r>
       <r>    1.2973    0.0000 </r>
       <r>    1.4527    0.0000 </r>
       <r>    2.1283    0.0000 </r>
       <r>    2.2966    0.0000 </r>
       <r>    2.3871    0.0000 </r>
      </set>
      <set comment="kpoint 32">
       <r>  -17.5494    1.0000 </r>
       <r>  -17.1634    1.0000 </r>
       <r>  -17.0317    1.0000 </r>
       <r>  -16.6489    1.0000 </r>
       <r>  -16.4253    1.0000 </r>
       <r>  -16.3749    1.0000 </r>
       <r>  -16.2725    1.0000 </r>
       <r>  -16.2123    1.0000 </r>
       <r>  -16.1131    1.0000 </r>
       <r>  -15.9854    1.0000 </r>
       <r>  -15.9306    1.0000 </r>
       <r>  -15.8775    1.0000 </r>
       <r>  -15.7982    1.0000 </r>
       <r>  -15.6953    1.0000 </r>
       <r>  -15.6243    1.0000 </r>
       <r>  -15.5463    1.0000 </r>
       <r>  -15.4440    1.0000 </r>
       <r>  -15.2666    1.0000 </r>
       <r>   -9.6783    1.0000 </r>
       <r>   -9.5316    1.0000 </r>
       <r>   -9.4341    1.0000 </r>
       <r>   -9.0433    1.0000 </r>
       <r>   -8.7431    1.0000 </r>
       <r>   -8.5208    1.0000 </r>
       <r>   -8.4950    1.0000 </r>
       <r>   -8.4516    1.0000 </r>
       <r>   -8.3754    1.0000 </r>
       <r>   -8.3480    1.0000 </r>
       <r>   -8.2854    1.0000 </r>
       <r>   -8.2402    1.0000 </r>
       <r>   -8.2055    1.0000 </r>
       <r>   -8.1105    1.0000 </r>
       <r>   -8.0322    1.0000 </r>
       <r>   -7.9601    1.0000 </r>
       <r>   -7.8790    1.0000 </r>
       <r>   -7.6449    1.0000 </r>
       <r>   -7.5208    1.0000 </r>
       <r>   -7.4674    1.0000 </r>
       <r>   -7.3290    1.0000 </r>
       <r>   -7.2174    1.0000 </r>
       <r>   -7.0799    1.0000 </r>
       <r>   -7.0442    1.0000 </r>
       <r>   -7.0285    1.0000 </r>
       <r>   -6.9693    1.0000 </r>
       <r>   -6.9360    1.0000 </r>
       <r>   -6.8424    1.0000 </r>
       <r>   -6.7147    1.0000 </r>
       <r>   -6.6025    1.0000 </r>
       <r>   -6.5266    1.0000 </r>
       <r>   -6.4691    1.0000 </r>
       <r>   -6.4050    1.0000 </r>
       <r>   -6.3621    1.0000 </r>
       <r>   -6.2812    1.0000 </r>
       <r>   -6.2017    1.0000 </r>
       <r>   -6.1496    1.0000 </r>
       <r>   -6.0069    1.0000 </r>
       <r>   -5.9876    1.0000 </r>
       <r>   -5.8871    1.0000 </r>
       <r>   -5.8012    1.0000 </r>
       <r>   -5.7396    1.0000 </r>
       <r>   -5.6427    1.0000 </r>
       <r>   -5.5906    1.0000 </r>
       <r>   -5.5157    1.0000 </r>
       <r>   -5.4139    1.0000 </r>
       <r>   -5.2869    1.0000 </r>
       <r>   -5.2083    1.0000 </r>
       <r>   -5.1261    1.0000 </r>
       <r>   -5.0121    1.0000 </r>
       <r>   -4.7719    1.0000 </r>
       <r>   -4.6123    1.0000 </r>
       <r>   -4.5137    1.0000 </r>
       <r>   -4.4526    1.0000 </r>
       <r>   -4.3654    1.0000 </r>
       <r>   -4.2575    1.0000 </r>
       <r>   -4.1296    1.0000 </r>
       <r>   -4.0800    1.0000 </r>
       <r>   -3.8309    0.9996 </r>
       <r>   -3.7056    0.9927 </r>
       <r>   -3.5580    0.9191 </r>
       <r>   -3.3858    0.5719 </r>
       <r>   -2.9527    0.0020 </r>
       <r>   -2.8418    0.0001 </r>
       <r>   -2.8105    0.0001 </r>
       <r>   -2.6326    0.0000 </r>
       <r>   -2.5030    0.0000 </r>
       <r>   -2.3964    0.0000 </r>
       <r>   -2.2795    0.0000 </r>
       <r>   -2.1085    0.0000 </r>
       <r>   -2.0726    0.0000 </r>
       <r>   -1.9782    0.0000 </r>
       <r>   -1.7084    0.0000 </r>
       <r>   -1.5876    0.0000 </r>
       <r>   -1.4382    0.0000 </r>
       <r>   -1.3651    0.0000 </r>
       <r>   -1.3158    0.0000 </r>
       <r>   -1.2044    0.0000 </r>
       <r>   -1.0717    0.0000 </r>
       <r>   -1.0462    0.0000 </r>
       <r>   -0.9985    0.0000 </r>
       <r>   -0.9167    0.0000 </r>
       <r>   -0.7919    0.0000 </r>
       <r>   -0.7149    0.0000 </r>
       <r>   -0.6291    0.0000 </r>
       <r>   -0.5415    0.0000 </r>
       <r>   -0.4129    0.0000 </r>
       <r>   -0.2800    0.0000 </r>
       <r>   -0.1952    0.0000 </r>
       <r>   -0.1200    0.0000 </r>
       <r>    0.0087    0.0000 </r>
       <r>    0.0993    0.0000 </r>
       <r>    0.3467    0.0000 </r>
       <r>    0.5293    0.0000 </r>
       <r>    0.6649    0.0000 </r>
       <r>    1.0387    0.0000 </r>
       <r>    1.0833    0.0000 </r>
       <r>    1.2462    0.0000 </r>
       <r>    1.3352    0.0000 </r>
       <r>    2.0931    0.0000 </r>
       <r>    2.2685    0.0000 </r>
       <r>    2.5640    0.0000 </r>
      </set>
      <set comment="kpoint 33">
       <r>  -17.5330    1.0000 </r>
       <r>  -17.2630    1.0000 </r>
       <r>  -16.8945    1.0000 </r>
       <r>  -16.6528    1.0000 </r>
       <r>  -16.4857    1.0000 </r>
       <r>  -16.4004    1.0000 </r>
       <r>  -16.3043    1.0000 </r>
       <r>  -16.1867    1.0000 </r>
       <r>  -16.0793    1.0000 </r>
       <r>  -15.9649    1.0000 </r>
       <r>  -15.9181    1.0000 </r>
       <r>  -15.8634    1.0000 </r>
       <r>  -15.8161    1.0000 </r>
       <r>  -15.6928    1.0000 </r>
       <r>  -15.6326    1.0000 </r>
       <r>  -15.5683    1.0000 </r>
       <r>  -15.4465    1.0000 </r>
       <r>  -15.2591    1.0000 </r>
       <r>   -9.7259    1.0000 </r>
       <r>   -9.4449    1.0000 </r>
       <r>   -9.3662    1.0000 </r>
       <r>   -9.0465    1.0000 </r>
       <r>   -8.8885    1.0000 </r>
       <r>   -8.6924    1.0000 </r>
       <r>   -8.4832    1.0000 </r>
       <r>   -8.4340    1.0000 </r>
       <r>   -8.3646    1.0000 </r>
       <r>   -8.3219    1.0000 </r>
       <r>   -8.2699    1.0000 </r>
       <r>   -8.2382    1.0000 </r>
       <r>   -8.1618    1.0000 </r>
       <r>   -8.0646    1.0000 </r>
       <r>   -8.0080    1.0000 </r>
       <r>   -7.9179    1.0000 </r>
       <r>   -7.8093    1.0000 </r>
       <r>   -7.6813    1.0000 </r>
       <r>   -7.5947    1.0000 </r>
       <r>   -7.4091    1.0000 </r>
       <r>   -7.2816    1.0000 </r>
       <r>   -7.2322    1.0000 </r>
       <r>   -7.1243    1.0000 </r>
       <r>   -7.0716    1.0000 </r>
       <r>   -7.0163    1.0000 </r>
       <r>   -6.9548    1.0000 </r>
       <r>   -6.8737    1.0000 </r>
       <r>   -6.8136    1.0000 </r>
       <r>   -6.6804    1.0000 </r>
       <r>   -6.6292    1.0000 </r>
       <r>   -6.5391    1.0000 </r>
       <r>   -6.4443    1.0000 </r>
       <r>   -6.4130    1.0000 </r>
       <r>   -6.3478    1.0000 </r>
       <r>   -6.3225    1.0000 </r>
       <r>   -6.2383    1.0000 </r>
       <r>   -6.1454    1.0000 </r>
       <r>   -6.0545    1.0000 </r>
       <r>   -5.9674    1.0000 </r>
       <r>   -5.9403    1.0000 </r>
       <r>   -5.8694    1.0000 </r>
       <r>   -5.8169    1.0000 </r>
       <r>   -5.6682    1.0000 </r>
       <r>   -5.6257    1.0000 </r>
       <r>   -5.5839    1.0000 </r>
       <r>   -5.4098    1.0000 </r>
       <r>   -5.2297    1.0000 </r>
       <r>   -5.1517    1.0000 </r>
       <r>   -5.0217    1.0000 </r>
       <r>   -4.8890    1.0000 </r>
       <r>   -4.8001    1.0000 </r>
       <r>   -4.5927    1.0000 </r>
       <r>   -4.5150    1.0000 </r>
       <r>   -4.3946    1.0000 </r>
       <r>   -4.3558    1.0000 </r>
       <r>   -4.2620    1.0000 </r>
       <r>   -4.2120    1.0000 </r>
       <r>   -4.1441    1.0000 </r>
       <r>   -3.8765    0.9999 </r>
       <r>   -3.7131    0.9937 </r>
       <r>   -3.5533    0.9141 </r>
       <r>   -3.3872    0.5758 </r>
       <r>   -2.9475    0.0018 </r>
       <r>   -2.8327    0.0001 </r>
       <r>   -2.7357    0.0000 </r>
       <r>   -2.5957    0.0000 </r>
       <r>   -2.5259    0.0000 </r>
       <r>   -2.4140    0.0000 </r>
       <r>   -2.2395    0.0000 </r>
       <r>   -2.0793    0.0000 </r>
       <r>   -2.0257    0.0000 </r>
       <r>   -1.9431    0.0000 </r>
       <r>   -1.6658    0.0000 </r>
       <r>   -1.5831    0.0000 </r>
       <r>   -1.4712    0.0000 </r>
       <r>   -1.4152    0.0000 </r>
       <r>   -1.3934    0.0000 </r>
       <r>   -1.2333    0.0000 </r>
       <r>   -1.1259    0.0000 </r>
       <r>   -1.0951    0.0000 </r>
       <r>   -0.9812    0.0000 </r>
       <r>   -0.9000    0.0000 </r>
       <r>   -0.7804    0.0000 </r>
       <r>   -0.6820    0.0000 </r>
       <r>   -0.6023    0.0000 </r>
       <r>   -0.5439    0.0000 </r>
       <r>   -0.4715    0.0000 </r>
       <r>   -0.3034    0.0000 </r>
       <r>   -0.2070    0.0000 </r>
       <r>   -0.0760    0.0000 </r>
       <r>    0.0196    0.0000 </r>
       <r>    0.1995    0.0000 </r>
       <r>    0.3818    0.0000 </r>
       <r>    0.5605    0.0000 </r>
       <r>    0.6572    0.0000 </r>
       <r>    1.0114    0.0000 </r>
       <r>    1.0882    0.0000 </r>
       <r>    1.1603    0.0000 </r>
       <r>    1.3197    0.0000 </r>
       <r>    2.1186    0.0000 </r>
       <r>    2.3018    0.0000 </r>
       <r>    2.3747    0.0000 </r>
      </set>
      <set comment="kpoint 34">
       <r>  -17.5143    1.0000 </r>
       <r>  -17.3209    1.0000 </r>
       <r>  -16.7366    1.0000 </r>
       <r>  -16.6578    1.0000 </r>
       <r>  -16.6347    1.0000 </r>
       <r>  -16.4108    1.0000 </r>
       <r>  -16.2854    1.0000 </r>
       <r>  -16.2072    1.0000 </r>
       <r>  -16.0455    1.0000 </r>
       <r>  -15.9652    1.0000 </r>
       <r>  -15.9107    1.0000 </r>
       <r>  -15.8432    1.0000 </r>
       <r>  -15.7912    1.0000 </r>
       <r>  -15.6870    1.0000 </r>
       <r>  -15.6703    1.0000 </r>
       <r>  -15.5751    1.0000 </r>
       <r>  -15.4442    1.0000 </r>
       <r>  -15.2627    1.0000 </r>
       <r>   -9.7610    1.0000 </r>
       <r>   -9.3646    1.0000 </r>
       <r>   -9.2706    1.0000 </r>
       <r>   -9.0263    1.0000 </r>
       <r>   -9.0014    1.0000 </r>
       <r>   -8.8607    1.0000 </r>
       <r>   -8.4956    1.0000 </r>
       <r>   -8.4388    1.0000 </r>
       <r>   -8.3757    1.0000 </r>
       <r>   -8.3103    1.0000 </r>
       <r>   -8.2525    1.0000 </r>
       <r>   -8.2298    1.0000 </r>
       <r>   -8.1300    1.0000 </r>
       <r>   -8.0457    1.0000 </r>
       <r>   -7.9430    1.0000 </r>
       <r>   -7.9291    1.0000 </r>
       <r>   -7.7897    1.0000 </r>
       <r>   -7.7077    1.0000 </r>
       <r>   -7.4955    1.0000 </r>
       <r>   -7.4117    1.0000 </r>
       <r>   -7.2995    1.0000 </r>
       <r>   -7.2067    1.0000 </r>
       <r>   -7.1332    1.0000 </r>
       <r>   -7.0803    1.0000 </r>
       <r>   -7.0433    1.0000 </r>
       <r>   -6.9211    1.0000 </r>
       <r>   -6.8868    1.0000 </r>
       <r>   -6.8137    1.0000 </r>
       <r>   -6.6560    1.0000 </r>
       <r>   -6.6124    1.0000 </r>
       <r>   -6.5689    1.0000 </r>
       <r>   -6.4546    1.0000 </r>
       <r>   -6.4126    1.0000 </r>
       <r>   -6.3685    1.0000 </r>
       <r>   -6.2472    1.0000 </r>
       <r>   -6.2430    1.0000 </r>
       <r>   -6.1888    1.0000 </r>
       <r>   -6.1121    1.0000 </r>
       <r>   -6.0051    1.0000 </r>
       <r>   -5.9410    1.0000 </r>
       <r>   -5.9184    1.0000 </r>
       <r>   -5.8069    1.0000 </r>
       <r>   -5.7493    1.0000 </r>
       <r>   -5.6065    1.0000 </r>
       <r>   -5.5678    1.0000 </r>
       <r>   -5.4820    1.0000 </r>
       <r>   -5.2029    1.0000 </r>
       <r>   -5.1610    1.0000 </r>
       <r>   -4.8736    1.0000 </r>
       <r>   -4.8112    1.0000 </r>
       <r>   -4.7443    1.0000 </r>
       <r>   -4.5795    1.0000 </r>
       <r>   -4.5582    1.0000 </r>
       <r>   -4.4894    1.0000 </r>
       <r>   -4.3108    1.0000 </r>
       <r>   -4.2761    1.0000 </r>
       <r>   -4.2289    1.0000 </r>
       <r>   -4.1315    1.0000 </r>
       <r>   -3.8954    0.9999 </r>
       <r>   -3.7263    0.9952 </r>
       <r>   -3.5824    0.9420 </r>
       <r>   -3.3809    0.5584 </r>
       <r>   -2.9611    0.0024 </r>
       <r>   -2.8347    0.0001 </r>
       <r>   -2.6751    0.0000 </r>
       <r>   -2.5909    0.0000 </r>
       <r>   -2.5377    0.0000 </r>
       <r>   -2.4080    0.0000 </r>
       <r>   -2.2357    0.0000 </r>
       <r>   -2.0627    0.0000 </r>
       <r>   -2.0009    0.0000 </r>
       <r>   -1.9312    0.0000 </r>
       <r>   -1.6176    0.0000 </r>
       <r>   -1.5795    0.0000 </r>
       <r>   -1.4909    0.0000 </r>
       <r>   -1.4491    0.0000 </r>
       <r>   -1.4176    0.0000 </r>
       <r>   -1.2504    0.0000 </r>
       <r>   -1.1674    0.0000 </r>
       <r>   -1.1142    0.0000 </r>
       <r>   -0.9773    0.0000 </r>
       <r>   -0.8617    0.0000 </r>
       <r>   -0.7898    0.0000 </r>
       <r>   -0.6688    0.0000 </r>
       <r>   -0.6171    0.0000 </r>
       <r>   -0.5466    0.0000 </r>
       <r>   -0.4886    0.0000 </r>
       <r>   -0.2833    0.0000 </r>
       <r>   -0.2486    0.0000 </r>
       <r>   -0.0585    0.0000 </r>
       <r>    0.0320    0.0000 </r>
       <r>    0.2149    0.0000 </r>
       <r>    0.4192    0.0000 </r>
       <r>    0.5803    0.0000 </r>
       <r>    0.6519    0.0000 </r>
       <r>    1.0098    0.0000 </r>
       <r>    1.0590    0.0000 </r>
       <r>    1.1544    0.0000 </r>
       <r>    1.3329    0.0000 </r>
       <r>    2.1811    0.0000 </r>
       <r>    2.2450    0.0000 </r>
       <r>    2.3885    0.0000 </r>
      </set>
     </set>
    </set>
   </array>
  </eigenvalues>
  <separator name="orbital magnetization" >
   <v name="MAGDIPOLOUT">      0.00000000      0.00000000      0.00000000</v>
  </separator>
 </calculation>
 <structure name="finalpos" >
  <crystal>
   <varray name="basis" >
    <v>       8.36339058       4.80159990       0.00000000 </v>
    <v>      -8.37097347       4.81493324       0.00000000 </v>
    <v>       0.00000000       0.00000000      30.00000000 </v>
   </varray>
   <i name="volume">   2413.89698070 </i>
   <varray name="rec_basis" >
    <v>       0.05984017       0.10403476       0.00000000 </v>
    <v>      -0.05967446       0.10394052       0.00000000 </v>
    <v>       0.00000000       0.00000000       0.03333333 </v>
   </varray>
  </crystal>
  <varray name="positions" >
   <v>       0.63954049       0.33920519      -0.00181173 </v>
   <v>       0.35987746       0.65424684       0.00180956 </v>
   <v>       1.01820453       0.36465279      -0.00173666 </v>
   <v>       0.67296445       0.67376717       0.00022298 </v>
   <v>       0.31159030       0.01784156      -0.00242274 </v>
   <v>       0.33557152       0.32476958       0.00061785 </v>
   <v>      -0.00027956      -0.02153788       0.00083841 </v>
   <v>      -0.00749118       0.68633681      -0.00064333 </v>
   <v>       0.67957829      -0.02787480       0.00223178 </v>
   <v>       0.10081611       0.22060647       0.95279024 </v>
   <v>       0.21419488       0.11177907       0.05521263 </v>
   <v>       0.12665430       0.56871567       0.95155267 </v>
   <v>       0.21976770       0.44761646       0.05135291 </v>
   <v>       0.10788577       0.88955520       0.94237230 </v>
   <v>       0.22844448       0.77849133       0.04451909 </v>
   <v>       0.44345127       0.22672477       0.94390208 </v>
   <v>       0.55522325       0.10987480       0.04363441 </v>
   <v>       0.44610731       0.55423595       0.94803184 </v>
   <v>       0.55451535       0.43897833       0.05309892 </v>
   <v>       0.44309663       0.88574030       0.95604585 </v>
   <v>       0.55303291       0.76639939       0.05640152 </v>
   <v>       0.77407198       0.22034037       0.95713185 </v>
   <v>       0.89547422       0.11627827       0.04999445 </v>
   <v>       0.77646729       0.54881925       0.94718940 </v>
   <v>       0.88093249       0.44305571       0.04586668 </v>
   <v>       0.78278423       0.88532202       0.94510182 </v>
   <v>       0.88573796       0.77427383       0.05669513 </v>
  </varray>
 </structure>
</modeling>
