unknown system                          
           1
     8.858447    5.103548    0.000000
    -8.858382    5.103436    0.000000
     0.000000    0.000000   30.000000
   V    Mo   W    S 
   3   3   3  18
Direct configuration=     1
   0.66666669  0.33333334  0.00000000
   0.33333334  0.66666669  0.00000000
   1.00000000  0.33333334  0.00000000
   0.66666669  0.66666669  0.00000000
   0.33333334  0.00000000  0.00000000
   0.33333334  0.33333334  0.00000000
   0.00000000  0.00000000  0.00000000
   0.00000000  0.66666669  0.00000000
   0.66666669  0.00000000  0.00000000
   0.11068511  0.22244981  0.95539999
   0.22244981  0.11068511  0.04460000
   0.11068511  0.55578315  0.95539999
   0.22244981  0.44401845  0.04460000
   0.11068511  0.88911647  0.95539999
   0.22244981  0.77735180  0.04460000
   0.44401845  0.22244981  0.95539999
   0.55578315  0.11068511  0.04460000
   0.44401845  0.55578315  0.95539999
   0.55578315  0.44401845  0.04460000
   0.44401845  0.88911647  0.95539999
   0.55578315  0.77735180  0.04460000
   0.77735180  0.22244981  0.95539999
   0.88911647  0.11068511  0.04460000
   0.77735180  0.55578315  0.95539999
   0.88911647  0.44401845  0.04460000
   0.77735180  0.88911647  0.95539999
   0.88911647  0.77735180  0.04460000
unknown system                          
           1
     8.669621    4.997417    0.000000
    -8.669442    4.997108    0.000000
     0.000000    0.000000   30.000000
   V    Mo   W    S 
   3   3   3  18
Direct configuration=     2
   0.66470296  0.33340091 -0.00016484
   0.33425664  0.66628902  0.00018953
   1.00109720  0.33365066  0.00002732
   0.66534556  0.66531923  0.00012321
   0.33314483  0.00128382 -0.00016680
   0.33471302  0.33350840  0.00003680
   0.00167959  0.00017313 -0.00003184
  -0.00004381  0.66734265  0.00003965
   0.66503686 -0.00103771 -0.00008173
   0.10808465  0.22350950  0.95202133
   0.22105083  0.11056689  0.04925596
   0.11275167  0.55371694  0.95305887
   0.21999187  0.44665072  0.04695185
   0.11030325  0.88844929  0.95064258
   0.22361415  0.77467611  0.04796352
   0.44894768  0.22433832  0.95186059
   0.55818487  0.11506720  0.04804951
   0.44190060  0.55780382  0.95200253
   0.55787096  0.44203377  0.04803560
   0.44312837  0.88486869  0.95195229
   0.55131522  0.77631291  0.04814541
   0.77911829  0.22562375  0.95312747
   0.89055125  0.11463346  0.04807003
   0.77638762  0.55124814  0.95193435
   0.88730895  0.44089984  0.04683266
   0.77828080  0.88971449  0.95081492
   0.88949059  0.77817048  0.04930911
unknown system                          
           1
     8.486868    4.898187    0.000000
    -8.486810    4.898087    0.000000
     0.000000    0.000000   30.000000
   V    Mo   W    S 
   3   3   3  18
Direct configuration=     3
   0.66403945  0.33335698 -0.00018266
   0.33468434  0.66624336  0.00021279
   1.00136811  0.33366492  0.00003672
   0.66509823  0.66513866  0.00009936
   0.33275701  0.00168288 -0.00014543
   0.33511895  0.33331499  0.00003364
   0.00228578 -0.00004900 -0.00003451
  -0.00002015  0.66808545  0.00009598
   0.66460136 -0.00152326 -0.00012971
   0.10795353  0.22334068  0.95203624
   0.22083708  0.11045826  0.04933782
   0.11266082  0.55382281  0.95316116
   0.21998460  0.44670075  0.04691739
   0.11007860  0.88836619  0.95056131
   0.22340360  0.77451806  0.04791063
   0.44913116  0.22446682  0.95174896
   0.55839891  0.11507310  0.04800687
   0.44181767  0.55783881  0.95197150
   0.55794107  0.44196597  0.04813004
   0.44327531  0.88486820  0.95196977
   0.55127297  0.77644162  0.04820066
   0.77903591  0.22544290  0.95323651
   0.89048398  0.11446237  0.04797346
   0.77654314  0.55122285  0.95194640
   0.88736190  0.44108010  0.04670349
   0.77838327  0.88995963  0.95087763
   0.88971785  0.77827036  0.04932388
unknown system                          
           1
     8.281693    4.774933    0.000000
    -8.280664    4.773151    0.000000
     0.000000    0.000000   30.000000
   V    Mo   W    S 
   3   3   3  18
Direct configuration=     4
   0.66148020  0.33316676 -0.00017411
   0.33674012  0.66638217  0.00021566
   1.00216078  0.33336703  0.00005619
   0.66457202  0.66503139 -0.00001846
   0.33058923  0.00301572 -0.00002354
   0.33641822  0.33209150  0.00000331
   0.00451898 -0.00144620 -0.00003763
   0.00011081  0.67173571  0.00026028
   0.66325136 -0.00362317 -0.00025231
   0.10763454  0.22391332  0.95065501
   0.22090088  0.11062776  0.05129112
   0.11309926  0.55354061  0.95223206
   0.21967686  0.44719338  0.04810932
   0.11004297  0.88837212  0.94853595
   0.22386415  0.77405090  0.04915580
   0.45052565  0.22531938  0.94983669
   0.55914509  0.11619600  0.04928087
   0.44104714  0.55823466  0.95043826
   0.55858653  0.44133663  0.04992965
   0.44242143  0.88366463  0.95058800
   0.55001486  0.77574863  0.04992042
   0.77951730  0.22635915  0.95231600
   0.89088391  0.11516475  0.04905320
   0.77605917  0.55005752  0.95053313
   0.88673843  0.44020411  0.04752773
   0.77852093  0.89017291  0.94952862
   0.88969364  0.77833708  0.05103869
unknown system                          
           1
     8.285657    4.770437    0.000000
    -8.285452    4.770086    0.000000
     0.000000    0.000000   30.000000
   V    Mo   W    S 
   3   3   3  18
Direct configuration=     5
   0.65700207  0.33267792  0.00001344
   0.34113418  0.66639850  0.00004590
   1.00337793  0.33271177  0.00007236
   0.66358131  0.66524548 -0.00016430
   0.32539008  0.00546086  0.00010013
   0.33843414  0.32935937 -0.00005222
   0.00934245 -0.00420522 -0.00000186
   0.00067396  0.67907035  0.00036845
   0.66089416 -0.00766066 -0.00034026
   0.10802877  0.22436892  0.94888064
   0.22137850  0.11151030  0.05412228
   0.11360526  0.55377084  0.95118288
   0.22003640  0.44750829  0.04986363
   0.11070000  0.88866936  0.94548249
   0.22453114  0.77420924  0.05070042
   0.45159787  0.22588974  0.94704942
   0.55922958  0.11701891  0.05074438
   0.44022387  0.55800081  0.94837867
   0.55908181  0.44084179  0.05232222
   0.44080140  0.88253572  0.94895902
   0.54864812  0.77454855  0.05237978
   0.77969516  0.22715405  0.95111187
   0.89127306  0.11536358  0.05029035
   0.77562500  0.54911831  0.94872674
   0.88599918  0.43989672  0.04841295
   0.77902062  0.89018717  0.94783721
   0.88890844  0.77856379  0.05351332
unknown system                          
           1
     8.282202    4.766906    0.000000
    -8.281333    4.765402    0.000000
     0.000000    0.000000   30.000000
   V    Mo   W    S 
   3   3   3  18
Direct configuration=     6
   0.65593752  0.33255447  0.00001184
   0.34266795  0.66553558  0.00002516
   1.00374172  0.33260300  0.00007406
   0.66321623  0.66557496 -0.00011638
   0.32398077  0.00596358  0.00000872
   0.33846400  0.32885334 -0.00002012
   0.01043076 -0.00454027  0.00012615
   0.00086087  0.68086346  0.00033675
   0.66067456 -0.00884722 -0.00036104
   0.10847752  0.22382252  0.94883902
   0.22143694  0.11202561  0.05452419
   0.11365409  0.55442859  0.95135179
   0.22069153  0.44740255  0.04993478
   0.11115578  0.88900812  0.94492417
   0.22452832  0.77485393  0.05056289
   0.45114138  0.22551494  0.94678076
   0.55833051  0.11630829  0.05063796
   0.44036672  0.55735117  0.94819609
   0.55893430  0.44101802  0.05246885
   0.44024837  0.88284162  0.94908446
   0.54873104  0.77422253  0.05264663
   0.77922959  0.22677776  0.95121123
   0.89130658  0.11452202  0.05017956
   0.77580291  0.54957303  0.94871593
   0.88607487  0.44080179  0.04821466
   0.77965899  0.89031037  0.94783166
   0.88847062  0.77887069  0.05381009
unknown system                          
           1
     8.291380    4.768795    0.000000
    -8.290026    4.766450    0.000000
     0.000000    0.000000   30.000000
   V    Mo   W    S 
   3   3   3  18
Direct configuration=     7
   0.65410176  0.33225913  0.00002479
   0.34505474  0.66388511 -0.00002789
   1.00440139  0.33251333  0.00001693
   0.66257657  0.66613226 -0.00007686
   0.32160462  0.00715997 -0.00003170
   0.33856285  0.32802851  0.00001660
   0.01240576 -0.00523170  0.00020459
   0.00104133  0.68407995  0.00031407
   0.66036050 -0.01093923 -0.00043967
   0.10887317  0.22322227  0.94879318
   0.22158068  0.11265213  0.05504197
   0.11382251  0.55519213  0.95166032
   0.22140929  0.44734316  0.05007279
   0.11144683  0.88952267  0.94426678
   0.22468637  0.77554471  0.05027001
   0.45068466  0.22527434  0.94640505
   0.55734298  0.11544794  0.05040165
   0.44058143  0.55664824  0.94790520
   0.55887409  0.44118581  0.05266564
   0.43952828  0.88293833  0.94933867
   0.54875517  0.77376537  0.05307646
   0.77869482  0.22633853  0.95143702
   0.89134709  0.11366667  0.05008543
   0.77588832  0.55005306  0.94870859
   0.88614375  0.44182700  0.04786162
   0.78044677  0.89050689  0.94783760
   0.88799874  0.77919785  0.05417106
unknown system                          
           1
     8.309143    4.771423    0.000000
    -8.306152    4.766235    0.000000
     0.000000    0.000000   30.000000
   V    Mo   W    S 
   3   3   3  18
Direct configuration=     8
   0.65304150  0.33210693  0.00002966
   0.34631413  0.66269061 -0.00004150
   1.00485801  0.33250332 -0.00001315
   0.66216440  0.66644221 -0.00005860
   0.32053328  0.00793329 -0.00007976
   0.33855623  0.32774868  0.00005021
   0.01326074 -0.00539868  0.00030103
   0.00099512  0.68565557  0.00029518
   0.66033628 -0.01221872 -0.00047643
   0.10901364  0.22290778  0.94880044
   0.22159036  0.11301814  0.05527003
   0.11395481  0.55558786  0.95189453
   0.22171285  0.44732201  0.05012158
   0.11161077  0.88980826  0.94396203
   0.22481238  0.77586373  0.05000764
   0.45044147  0.22516367  0.94626523
   0.55683580  0.11497805  0.05019287
   0.44076875  0.55628121  0.94776774
   0.55885872  0.44128133  0.05271093
   0.43914894  0.88291352  0.94957963
   0.54878795  0.77355198  0.05326789
   0.77842786  0.22607204  0.95163350
   0.89136240  0.11330378  0.04999779
   0.77596053  0.55029691  0.94875868
   0.88619602  0.44236998  0.04759021
   0.78090557  0.89061404  0.94786629
   0.88776596  0.77941693  0.05430625
unknown system                          
           1
     8.310015    4.771705    0.000000
    -8.306971    4.766426    0.000000
     0.000000    0.000000   30.000000
   V    Mo   W    S 
   3   3   3  18
Direct configuration=     9
   0.65045876  0.33185205  0.00003960
   0.34871722  0.65977652 -0.00002868
   1.00621656  0.33246922 -0.00010947
   0.66121247  0.66704967 -0.00005364
   0.31867799  0.00988934 -0.00019951
   0.33847817  0.32740136  0.00012258
   0.01467636 -0.00538873  0.00050509
   0.00057111  0.68875416  0.00023880
   0.66065631 -0.01533867 -0.00057225
   0.10913797  0.22238824  0.94881111
   0.22158111  0.11385054  0.05570540
   0.11434543  0.55638666  0.95246002
   0.22215669  0.44728891  0.05028217
   0.11186609  0.89048415  0.94345517
   0.22517851  0.77634468  0.04930155
   0.45001939  0.22509609  0.94598700
   0.55599293  0.11409335  0.04966378
   0.44125199  0.55557939  0.94743678
   0.55889458  0.44146828  0.05280532
   0.43835672  0.88260538  0.95022701
   0.54886739  0.77312127  0.05366931
   0.77794402  0.22547059  0.95215126
   0.89137800  0.11290535  0.04986225
   0.77614426  0.55068119  0.94887575
   0.88630316  0.44334295  0.04692007
   0.78180990  0.89077780  0.94789427
   0.88732136  0.77986472  0.05454916
unknown system                          
           1
     8.299702    4.765833    0.000000
    -8.298277    4.763373    0.000000
     0.000000    0.000000   30.000000
   V    Mo   W    S 
   3   3   3  18
Direct configuration=    10
   0.65034174  0.33185655  0.00003955
   0.34878136  0.65966454 -0.00002496
   1.00630189  0.33245720 -0.00011399
   0.66117983  0.66706252 -0.00005474
   0.31863043  0.00997017 -0.00020409
   0.33846854  0.32739810  0.00012582
   0.01470223 -0.00536244  0.00051409
   0.00053597  0.68885181  0.00023606
   0.66070091 -0.01547185 -0.00057523
   0.10913957  0.22237886  0.94880673
   0.22158091  0.11388497  0.05571863
   0.11436521  0.55641968  0.95248267
   0.22216685  0.44728350  0.05029420
   0.11187273  0.89051817  0.94344217
   0.22519830  0.77635468  0.04926988
   0.45000683  0.22510292  0.94597529
   0.55597159  0.11406486  0.04964008
   0.44127396  0.55555140  0.94742153
   0.55889579  0.44147615  0.05281102
   0.43832509  0.88258588  0.95025624
   0.54887222  0.77310189  0.05368589
   0.77792618  0.22544443  0.95217557
   0.89137634  0.11291040  0.04986398
   0.77615081  0.55068662  0.94887778
   0.88630579  0.44336985  0.04689038
   0.78183900  0.89077354  0.94788800
   0.88730437  0.77988007  0.05455734
unknown system                          
           1
     8.319577    4.774887    0.000000
    -8.315781    4.768302    0.000000
     0.000000    0.000000   30.000000
   V    Mo   W    S 
   3   3   3  18
Direct configuration=    11
   0.65004967  0.33172137  0.00004016
   0.34876708  0.65953186 -0.00001502
   1.00622104  0.33260176 -0.00011483
   0.66111876  0.66691097 -0.00005861
   0.31877728  0.01023185 -0.00020797
   0.33855599  0.32721657  0.00013101
   0.01487822 -0.00529100  0.00053329
   0.00055396  0.68889739  0.00023287
   0.66066336 -0.01545604 -0.00057022
   0.10906798  0.22239675  0.94878663
   0.22157158  0.11390199  0.05574857
   0.11445613  0.55641698  0.95245357
   0.22214094  0.44732241  0.05032764
   0.11187487  0.89052149  0.94341201
   0.22527092  0.77632231  0.04927114
   0.45011245  0.22518023  0.94595681
   0.55599198  0.11415777  0.04964373
   0.44127808  0.55556718  0.94736804
   0.55897465  0.44143033  0.05281975
   0.43825037  0.88248951  0.95024821
   0.54884379  0.77310234  0.05372746
   0.77792655  0.22552125  0.95216112
   0.89136119  0.11294108  0.04986251
   0.77611516  0.55057354  0.94888516
   0.88620612  0.44326281  0.04690221
   0.78188067  0.89083891  0.94787364
   0.88730565  0.77990284  0.05458103
unknown system                          
           1
     8.327078    4.777447    0.000000
    -8.322799    4.770024    0.000000
     0.000000    0.000000   30.000000
   V    Mo   W    S 
   3   3   3  18
Direct configuration=    12
   0.64915553  0.33204610  0.00004131
   0.34938651  0.65850175  0.00001843
   1.00741251  0.33214729 -0.00016734
   0.66086200  0.66724105 -0.00006739
   0.31805667  0.01077120 -0.00024553
   0.33829901  0.32746192  0.00016408
   0.01483301 -0.00502223  0.00062488
   0.00006954  0.68986894  0.00020374
   0.66135310 -0.01699464 -0.00060510
   0.10917875  0.22231683  0.94876089
   0.22155231  0.11423071  0.05579895
   0.11453524  0.55677777  0.95277434
   0.22225655  0.44720164  0.05041669
   0.11191449  0.89090422  0.94335286
   0.22536440  0.77642645  0.04889358
   0.44982735  0.22518408  0.94589355
   0.55577714  0.11371795  0.04933473
   0.44154133  0.55526733  0.94728430
   0.55886217  0.44158010  0.05284443
   0.43805325  0.88240924  0.95061476
   0.54894248  0.77289027  0.05383898
   0.77775187  0.22510370  0.95248399
   0.89134377  0.11301998  0.04989376
   0.77624345  0.55079193  0.94890579
   0.88640670  0.44367517  0.04652455
   0.78210688  0.89066584  0.94780385
   0.88712844  0.78002988  0.05461281
unknown system                          
           1
     8.323117    4.776962    0.000000
    -8.319370    4.770462    0.000000
     0.000000    0.000000   30.000000
   V    Mo   W    S 
   3   3   3  18
Direct configuration=    13
   0.64763683  0.33239509  0.00003088
   0.35002855  0.65725932  0.00007091
   1.00887250  0.33168046 -0.00021559
   0.66050778  0.66726842 -0.00010599
   0.31751375  0.01172670 -0.00031693
   0.33815236  0.32753179  0.00018818
   0.01481157 -0.00449914  0.00071389
  -0.00050540  0.69091672  0.00016311
   0.66230776 -0.01870194 -0.00063616
   0.10923047  0.22228647  0.94863978
   0.22153982  0.11464085  0.05594521
   0.11475161  0.55718662  0.95306765
   0.22234050  0.44711112  0.05060869
   0.11192363  0.89139085  0.94325506
   0.22559365  0.77648811  0.04850278
   0.44967997  0.22531560  0.94575682
   0.55563999  0.11341429  0.04899643
   0.44177574  0.55497685  0.94713482
   0.55882652  0.44168103  0.05293908
   0.43775646  0.88221195  0.95101428
   0.54899322  0.77261334  0.05403275
   0.77753686  0.22474875  0.95284155
   0.89127206  0.11322494  0.05000388
   0.77629304  0.55077077  0.94889522
   0.88643965  0.44391115  0.04611037
   0.78237131  0.89044726  0.94765559
   0.88692426  0.78021707  0.05470763
unknown system                          
           1
     8.315317    4.772026    0.000000
    -8.312115    4.766475    0.000000
     0.000000    0.000000   30.000000
   V    Mo   W    S 
   3   3   3  18
Direct configuration=    14
   0.64906044  0.33185015  0.00004958
   0.34942269  0.65838778  0.00000374
   1.00715768  0.33238333 -0.00018428
   0.66084145  0.66730028 -0.00007669
   0.31819150  0.01087696 -0.00026203
   0.33837124  0.32741483  0.00014453
   0.01493825 -0.00513731  0.00060054
   0.00009970  0.68991136  0.00020013
   0.66111962 -0.01703194 -0.00062617
   0.10911811  0.22228320  0.94880256
   0.22160048  0.11428164  0.05586088
   0.11460388  0.55678877  0.95273902
   0.22224670  0.44720942  0.05041496
   0.11197280  0.89088657  0.94332340
   0.22542371  0.77641116  0.04890899
   0.44988694  0.22520866  0.94588903
   0.55574576  0.11374033  0.04938738
   0.44156847  0.55525627  0.94725907
   0.55894905  0.44155609  0.05283880
   0.43795072  0.88230928  0.95057911
   0.54893794  0.77291697  0.05386482
   0.77774785  0.22514946  0.95242927
   0.89138981  0.11298505  0.04985927
   0.77623616  0.55078639  0.94892576
   0.88636712  0.44368167  0.04657380
   0.78215911  0.89080179  0.94784806
   0.88710728  0.78000631  0.05464637
unknown system                          
           1
     8.318457    4.773404    0.000000
    -8.315765    4.768741    0.000000
     0.000000    0.000000   30.000000
   V    Mo   W    S 
   3   3   3  18
Direct configuration=    15
   0.65015504  0.33076250  0.00009284
   0.34903555  0.65898844 -0.00002774
   1.00506630  0.33379264 -0.00017405
   0.66103373  0.66755546 -0.00002843
   0.31886731  0.01036479 -0.00016516
   0.33861264  0.32715114  0.00014830
   0.01556019 -0.00601514  0.00059007
   0.00077069  0.68925973  0.00026972
   0.65936446 -0.01572501 -0.00061198
   0.10894188  0.22216888  0.94908935
   0.22170204  0.11403199  0.05574404
   0.11464014  0.55656346  0.95243671
   0.22221414  0.44727627  0.05016273
   0.11220226  0.89046852  0.94336472
   0.22532161  0.77635250  0.04914147
   0.45013627  0.22515590  0.94599588
   0.55573405  0.11396987  0.04975705
   0.44153962  0.55540075  0.94733570
   0.55914984  0.44147480  0.05267150
   0.43797215  0.88220438  0.95020596
   0.54892740  0.77322749  0.05368509
   0.77780927  0.22540253  0.95203036
   0.89151381  0.11265302  0.04953711
   0.77625610  0.55089487  0.94906134
   0.88624789  0.44362936  0.04700779
   0.78215196  0.89136390  0.94812313
   0.88728812  0.77984140  0.05455640
unknown system                          
           1
     8.321807    4.771848    0.000000
    -8.319340    4.767580    0.000000
     0.000000    0.000000   30.000000
   V    Mo   W    S 
   3   3   3  18
Direct configuration=    16
   0.65092161  0.32993132  0.00009370
   0.34880186  0.65930936 -0.00005914
   1.00363823  0.33497074 -0.00017676
   0.66110295  0.66777417 -0.00002991
   0.31942344  0.01005147 -0.00016016
   0.33880764  0.32703082  0.00010679
   0.01592946 -0.00659690  0.00053526
   0.00120142  0.68875173  0.00027303
   0.65813828 -0.01489731 -0.00060358
   0.10880116  0.22206510  0.94929082
   0.22179377  0.11391831  0.05575434
   0.11470322  0.55642979  0.95221661
   0.22218485  0.44730762  0.05002343
   0.11239442  0.89023832  0.94337595
   0.22533612  0.77628376  0.04931444
   0.45029036  0.22511438  0.94605467
   0.55570734  0.11410441  0.05004129
   0.44152056  0.55547432  0.94737798
   0.55930058  0.44144448  0.05259948
   0.43791570  0.88207869  0.94994819
   0.54888192  0.77338168  0.05361802
   0.77784221  0.22558546  0.95175296
   0.89160531  0.11245053  0.04931923
   0.77627952  0.55096111  0.94914958
   0.88614444  0.44358461  0.04732551
   0.78220138  0.89175461  0.94829922
   0.88734671  0.77971187  0.05455895
unknown system                          
           1
     8.325477    4.774187    0.000000
    -8.322773    4.769507    0.000000
     0.000000    0.000000   30.000000
   V    Mo   W    S 
   3   3   3  18
Direct configuration=    17
   0.65022713  0.32905332  0.00004714
   0.34920743  0.65818805  0.00001468
   1.00351014  0.33645295 -0.00019484
   0.66075545  0.66813313 -0.00006789
   0.31951871  0.01085346 -0.00021722
   0.33902070  0.32692945  0.00011205
   0.01639475 -0.00676489  0.00062487
   0.00105967  0.68922972  0.00023790
   0.65769799 -0.01576174 -0.00056110
   0.10868322  0.22187111  0.94945129
   0.22185650  0.11419869  0.05585866
   0.11501797  0.55675085  0.95227499
   0.22224593  0.44717510  0.05004125
   0.11266101  0.89058317  0.94330075
   0.22558924  0.77625205  0.04900824
   0.45028261  0.22521036  0.94596407
   0.55551488  0.11388482  0.04996967
   0.44176719  0.55516135  0.94727768
   0.55937506  0.44157749  0.05258383
   0.43757435  0.88172583  0.95012608
   0.54886474  0.77318276  0.05373738
   0.77756456  0.22533435  0.95187589
   0.89156860  0.11247022  0.04907196
   0.77640208  0.55102844  0.94928229
   0.88603095  0.44378964  0.04722827
   0.78259882  0.89192471  0.94834585
   0.88722475  0.77978008  0.05460614
unknown system                          
           1
     8.332009    4.777261    0.000000
    -8.329107    4.772235    0.000000
     0.000000    0.000000   30.000000
   V    Mo   W    S 
   3   3   3  18
Direct configuration=    18
   0.64981598  0.32945651  0.00004379
   0.34935317  0.65798361  0.00002248
   1.00424002  0.33591225 -0.00020656
   0.66069320  0.66804237 -0.00007758
   0.31926360  0.01101819 -0.00024074
   0.33889534  0.32701206  0.00011767
   0.01620283 -0.00646343  0.00063403
   0.00084235  0.68948928  0.00022080
   0.65828838 -0.01624617 -0.00057627
   0.10874585  0.22191794  0.94934729
   0.22182629  0.11429041  0.05589406
   0.11502069  0.55684197  0.95238103
   0.22226373  0.44715778  0.05012984
   0.11258392  0.89072195  0.94328535
   0.22562513  0.77628204  0.04892395
   0.45020116  0.22523096  0.94592060
   0.55551557  0.11380682  0.04984242
   0.44178343  0.55511571  0.94724521
   0.55931570  0.44159828  0.05264199
   0.43755505  0.88174992  0.95025551
   0.54887943  0.77308444  0.05379589
   0.77754414  0.22523816  0.95200867
   0.89153664  0.11258052  0.04919528
   0.77639484  0.55099264  0.94923099
   0.88606846  0.44382092  0.04707717
   0.78259686  0.89173883  0.94824941
   0.88716267  0.77984050  0.05463763
unknown system                          
           1
     8.336441    4.777712    0.000000
    -8.333395    4.772439    0.000000
     0.000000    0.000000   30.000000
   V    Mo   W    S 
   3   3   3  18
Direct configuration=    19
   0.64861388  0.32939342  0.00003752
   0.34987705  0.65684485  0.00009324
   1.00534995  0.33650266 -0.00026475
   0.66039646  0.66828954 -0.00008642
   0.31886659  0.01187562 -0.00028355
   0.33876670  0.32694280  0.00015281
   0.01631507 -0.00625243  0.00072457
   0.00045064  0.69034277  0.00019887
   0.65886706 -0.01781154 -0.00058612
   0.10871562  0.22186703  0.94933762
   0.22184655  0.11460194  0.05597463
   0.11535381  0.55728851  0.95256199
   0.22234169  0.44699859  0.05028709
   0.11265760  0.89123732  0.94322791
   0.22588064  0.77632209  0.04852845
   0.45003725  0.22532868  0.94577179
   0.55534611  0.11348916  0.04958972
   0.44197570  0.55482467  0.94711672
   0.55930221  0.44170292  0.05268189
   0.43724886  0.88147170  0.95060863
   0.54890981  0.77273975  0.05396971
   0.77729589  0.22482814  0.95230384
   0.89149505  0.11279716  0.04920218
   0.77648281  0.55099864  0.94923741
   0.88599381  0.44403690  0.04679345
   0.78283010  0.89159566  0.94814050
   0.88699753  0.77995789  0.05468022
unknown system                          
           1
     8.336942    4.777908    0.000000
    -8.333878    4.772604    0.000000
     0.000000    0.000000   30.000000
   V    Mo   W    S 
   3   3   3  18
Direct configuration=    20
   0.64752399  0.32933819  0.00002022
   0.35025090  0.65592193  0.00015197
   1.00626378  0.33728944 -0.00032277
   0.66018571  0.66843628 -0.00012862
   0.31865177  0.01265742 -0.00035189
   0.33873778  0.32688093  0.00015741
   0.01629053 -0.00609539  0.00080525
   0.00009502  0.69092023  0.00016022
   0.65942148 -0.01911715 -0.00058310
   0.10866435  0.22181326  0.94936577
   0.22183884  0.11486058  0.05606014
   0.11567402  0.55768022  0.95266974
   0.22238714  0.44683033  0.05041503
   0.11273686  0.89163034  0.94318032
   0.22608576  0.77631979  0.04821930
   0.44992989  0.22541655  0.94567480
   0.55521725  0.11324660  0.04938767
   0.44214997  0.55456230  0.94703271
   0.55929240  0.44175273  0.05270437
   0.43701658  0.88124603  0.95089165
   0.54893328  0.77245450  0.05412442
   0.77708280  0.22447991  0.95254754
   0.89146922  0.11299140  0.04918376
   0.77656677  0.55099065  0.94926668
   0.88587461  0.44420353  0.04658782
   0.78303114  0.89145657  0.94804942
   0.88684263  0.78004729  0.05473006
unknown system                          
           1
     8.329737    4.774830    0.000000
    -8.326312    4.768894    0.000000
     0.000000    0.000000   30.000000
   V    Mo   W    S 
   3   3   3  18
Direct configuration=    21
   0.64738145  0.32935717  0.00001964
   0.35028472  0.65582973  0.00016218
   1.00640167  0.33741844 -0.00033086
   0.66019576  0.66846589 -0.00012970
   0.31860036  0.01273354 -0.00035589
   0.33872283  0.32685546  0.00016222
   0.01626840 -0.00609547  0.00081566
   0.00005125  0.69100040  0.00016064
   0.65953541 -0.01929011 -0.00057947
   0.10865174  0.22180822  0.94936759
   0.22183511  0.11489090  0.05606836
   0.11572082  0.55774205  0.95267770
   0.22238781  0.44679828  0.05043593
   0.11274126  0.89168792  0.94317394
   0.22610718  0.77632490  0.04817728
   0.44991357  0.22542907  0.94565450
   0.55520160  0.11320772  0.04935558
   0.44217080  0.55452066  0.94701687
   0.55928581  0.44175614  0.05271107
   0.43699559  0.88123052  0.95093132
   0.54894157  0.77240938  0.05414703
   0.77705149  0.22442457  0.95258296
   0.89146375  0.11302561  0.04918573
   0.77657578  0.55098209  0.94926403
   0.88585373  0.44422284  0.04656148
   0.78305519  0.89142768  0.94802743
   0.88681979  0.78005085  0.05473668
unknown system                          
           1
     8.342163    4.779515    0.000000
    -8.339092    4.774198    0.000000
     0.000000    0.000000   30.000000
   V    Mo   W    S 
   3   3   3  18
Direct configuration=    22
   0.64820047  0.32922206  0.00003107
   0.34984923  0.65637463  0.00010815
   1.00550429  0.33664235 -0.00028235
   0.66044562  0.66840069 -0.00010922
   0.31880947  0.01222097 -0.00031159
   0.33877354  0.32685136  0.00014920
   0.01641919 -0.00620066  0.00075385
   0.00029794  0.69065208  0.00018008
   0.65900214 -0.01817258 -0.00060403
   0.10868815  0.22184757  0.94936987
   0.22187726  0.11476577  0.05602385
   0.11539383  0.55737369  0.95263134
   0.22231137  0.44684920  0.05035169
   0.11272239  0.89139331  0.94320662
   0.22592314  0.77633363  0.04839083
   0.45000833  0.22538988  0.94573573
   0.55526559  0.11339300  0.04953488
   0.44211197  0.55465434  0.94704666
   0.55933363  0.44174434  0.05267361
   0.43712463  0.88135776  0.95070582
   0.54898611  0.77270945  0.05405476
   0.77724723  0.22471373  0.95238732
   0.89149178  0.11285597  0.04916160
   0.77654843  0.55105752  0.94927588
   0.88601318  0.44414846  0.04668963
   0.78292990  0.89160573  0.94815343
   0.88693566  0.78003021  0.05469122
unknown system                          
           1
     8.345082    4.780338    0.000000
    -8.342074    4.775133    0.000000
     0.000000    0.000000   30.000000
   V    Mo   W    S 
   3   3   3  18
Direct configuration=    23
   0.64611992  0.32955526  0.00000607
   0.35075414  0.65497643  0.00023931
   1.00770125  0.33837013 -0.00040260
   0.66003021  0.66862041 -0.00016013
   0.31820290  0.01348758 -0.00041503
   0.33861324  0.32675774  0.00018655
   0.01609186 -0.00595665  0.00090740
  -0.00034533  0.69165139  0.00013992
   0.66044072 -0.02087779 -0.00055952
   0.10859182  0.22176016  0.94936673
   0.22178670  0.11512989  0.05613648
   0.11613335  0.55825816  0.95277883
   0.22245161  0.44662984  0.05059148
   0.11276735  0.89214945  0.94313080
   0.22632500  0.77634382  0.04782876
   0.44975934  0.22551144  0.94552397
   0.55508699  0.11290594  0.04907405
   0.44231627  0.55424294  0.94692838
   0.55921921  0.44178793  0.05276285
   0.43680876  0.88106665  0.95128135
   0.54895656  0.77201752  0.05431631
   0.77678321  0.22397506  0.95289507
   0.89141328  0.11328822  0.04921613
   0.77664463  0.55091238  0.94925549
   0.88567885  0.44437736  0.04632452
   0.78323963  0.89116447  0.94785676
   0.88664300  0.78010872  0.05478998
unknown system                          
           1
     8.333944    4.774384    0.000000
    -8.330769    4.768887    0.000000
     0.000000    0.000000   30.000000
   V    Mo   W    S 
   3   3   3  18
Direct configuration=    24
   0.64541070  0.32983970 -0.00001076
   0.35096719  0.65447137  0.00028220
   1.00869324  0.33889882 -0.00044899
   0.65998816  0.66867099 -0.00018700
   0.31791396  0.01389479 -0.00046723
   0.33842349  0.32671098  0.00019586
   0.01587757 -0.00579559  0.00096323
  -0.00061514  0.69198412  0.00011874
   0.66122226 -0.02179652 -0.00053349
   0.10853673  0.22176271  0.94935351
   0.22171524  0.11526645  0.05618912
   0.11636453  0.55854452  0.95284961
   0.22243999  0.44649594  0.05070010
   0.11274752  0.89242770  0.94309909
   0.22644981  0.77636533  0.04762746
   0.44962854  0.22555030  0.94543471
   0.55501801  0.11269539  0.04888028
   0.44241125  0.55406615  0.94687965
   0.55914311  0.44181404  0.05281698
   0.43674323  0.88102958  0.95151404