   27   27  100    1
  0.9710400E+02  0.1002848E-08  0.1002848E-08  0.3000000E-08  0.5000000E-15
  1.000000000000000E-004
  CAR 
 unknown system                          
    159     34    120
 
  0.0000000E+00  0.0000000E+00  0.0000000E+00  0.1562500E-01
    1      -17.800546   1.000000
    2      -16.703494   1.000000
    3      -16.643610   1.000000
    4      -16.607500   1.000000
    5      -16.503867   1.000000
    6      -16.437549   1.000000
    7      -16.405344   1.000000
    8      -16.272539   1.000000
    9      -16.155796   1.000000
   10      -16.127443   1.000000
   11      -16.047264   1.000000
   12      -15.897262   1.000000
   13      -15.876019   1.000000
   14      -15.681339   1.000000
   15      -15.575686   1.000000
   16      -15.522477   1.000000
   17      -15.419098   1.000000
   18      -15.327221   1.000000
   19       -9.394715   1.000000
   20       -9.048430   1.000000
   21       -8.937197   1.000000
   22       -8.870842   1.000000
   23       -8.721522   1.000000
   24       -8.665155   1.000000
   25       -8.608190   1.000000
   26       -8.528100   1.000000
   27       -8.467256   1.000000
   28       -8.433097   1.000000
   29       -8.419089   1.000000
   30       -8.331824   1.000000
   31       -8.257969   1.000000
   32       -8.145799   1.000000
   33       -8.068425   1.000000
   34       -8.010863   1.000000
   35       -7.888858   1.000000
   36       -7.733875   1.000000
   37       -7.716797   1.000000
   38       -7.539872   1.000000
   39       -7.479349   1.000000
   40       -7.452633   1.000000
   41       -7.393663   1.000000
   42       -7.161876   1.000000
   43       -7.119205   1.000000
   44       -6.963823   1.000000
   45       -6.838149   1.000000
   46       -6.790361   1.000000
   47       -6.733765   1.000000
   48       -6.701168   1.000000
   49       -6.634086   1.000000
   50       -6.460348   1.000000
   51       -6.423708   1.000000
   52       -6.408914   1.000000
   53       -6.253969   1.000000
   54       -6.201277   1.000000
   55       -6.189673   1.000000
   56       -6.075165   1.000000
   57       -5.972342   1.000000
   58       -5.912546   1.000000
   59       -5.761164   1.000000
   60       -5.566117   1.000000
   61       -5.454498   1.000000
   62       -5.438757   1.000000
   63       -5.229144   1.000000
   64       -5.147612   1.000000
   65       -5.078821   1.000000
   66       -5.039492   1.000000
   67       -4.897095   1.000000
   68       -4.845777   1.000000
   69       -4.804591   1.000000
   70       -4.781350   1.000000
   71       -4.648111   1.000000
   72       -4.549982   1.000000
   73       -4.510575   1.000000
   74       -4.488894   1.000000
   75       -4.193536   1.000000
   76       -4.046461   0.999999
   77       -3.822574   0.999351
   78       -3.723240   0.994034
   79       -3.637176   0.971646
   80       -3.380988   0.537460
   81       -3.228900   0.163202
   82       -2.727806   0.000003
   83       -2.648727   0.000000
   84       -2.585187   0.000000
   85       -2.569247   0.000000
   86       -2.511726   0.000000
   87       -2.355645   0.000000
   88       -2.300607   0.000000
   89       -2.269414   0.000000
   90       -2.163350   0.000000
   91       -1.732919   0.000000
   92       -1.654400   0.000000
   93       -1.588114   0.000000
   94       -1.319914   0.000000
   95       -1.185304   0.000000
   96       -1.036690   0.000000
   97       -0.942407   0.000000
   98       -0.865160   0.000000
   99       -0.727177   0.000000
  100       -0.648476   0.000000
  101       -0.590518   0.000000
  102       -0.553285   0.000000
  103       -0.495075   0.000000
  104       -0.473654   0.000000
  105       -0.232057   0.000000
  106       -0.059861   0.000000
  107       -0.022942   0.000000
  108        0.011305   0.000000
  109        0.143137   0.000000
  110        0.383640   0.000000
  111        0.421489   0.000000
  112        0.433765   0.000000
  113        0.547521   0.000000
  114        0.726617   0.000000
  115        0.770832   0.000000
  116        0.983607   0.000000
  117        1.205297   0.000000
  118        1.639638   0.000000
  119        1.834104   0.000000
  120        2.147749   0.000000
 
  0.1250000E+00  0.2775558E-16  0.0000000E+00  0.3125000E-01
    1      -17.776138   1.000000
    2      -16.753943   1.000000
    3      -16.699606   1.000000
    4      -16.646712   1.000000
    5      -16.523089   1.000000
    6      -16.409530   1.000000
    7      -16.371492   1.000000
    8      -16.261923   1.000000
    9      -16.164771   1.000000
   10      -16.099046   1.000000
   11      -15.999023   1.000000
   12      -15.897846   1.000000
   13      -15.828017   1.000000
   14      -15.691165   1.000000
   15      -15.587723   1.000000
   16      -15.512328   1.000000
   17      -15.422244   1.000000
   18      -15.347929   1.000000
   19       -9.393146   1.000000
   20       -9.128077   1.000000
   21       -9.065112   1.000000
   22       -8.960313   1.000000
   23       -8.766256   1.000000
   24       -8.658976   1.000000
   25       -8.644848   1.000000
   26       -8.558855   1.000000
   27       -8.478231   1.000000
   28       -8.436590   1.000000
   29       -8.327654   1.000000
   30       -8.275251   1.000000
   31       -8.189927   1.000000
   32       -8.069815   1.000000
   33       -8.022928   1.000000
   34       -7.903815   1.000000
   35       -7.782425   1.000000
   36       -7.763214   1.000000
   37       -7.662225   1.000000
   38       -7.578018   1.000000
   39       -7.486641   1.000000
   40       -7.416429   1.000000
   41       -7.352674   1.000000
   42       -7.171599   1.000000
   43       -7.127130   1.000000
   44       -6.980525   1.000000
   45       -6.947956   1.000000
   46       -6.868171   1.000000
   47       -6.725583   1.000000
   48       -6.652798   1.000000
   49       -6.591242   1.000000
   50       -6.482784   1.000000
   51       -6.433306   1.000000
   52       -6.332702   1.000000
   53       -6.279137   1.000000
   54       -6.200694   1.000000
   55       -6.172628   1.000000
   56       -6.089697   1.000000
   57       -5.946358   1.000000
   58       -5.889407   1.000000
   59       -5.740678   1.000000
   60       -5.574242   1.000000
   61       -5.505966   1.000000
   62       -5.421976   1.000000
   63       -5.320243   1.000000
   64       -5.200143   1.000000
   65       -5.099071   1.000000
   66       -5.055248   1.000000
   67       -4.991975   1.000000
   68       -4.908002   1.000000
   69       -4.790462   1.000000
   70       -4.710942   1.000000
   71       -4.636399   1.000000
   72       -4.547018   1.000000
   73       -4.492474   1.000000
   74       -4.369471   1.000000
   75       -4.100582   1.000000
   76       -4.032213   0.999999
   77       -3.887276   0.999881
   78       -3.779902   0.998220
   79       -3.643285   0.974338
   80       -3.483405   0.793388
   81       -3.099169   0.028800
   82       -2.761177   0.000009
   83       -2.684017   0.000001
   84       -2.586430   0.000000
   85       -2.570175   0.000000
   86       -2.476749   0.000000
   87       -2.368999   0.000000
   88       -2.261448   0.000000
   89       -2.238903   0.000000
   90       -2.147555   0.000000
   91       -1.751423   0.000000
   92       -1.620491   0.000000
   93       -1.566239   0.000000
   94       -1.322340   0.000000
   95       -1.180217   0.000000
   96       -1.047307   0.000000
   97       -0.940464   0.000000
   98       -0.887820   0.000000
   99       -0.792899   0.000000
  100       -0.690864   0.000000
  101       -0.632800   0.000000
  102       -0.583443   0.000000
  103       -0.540578   0.000000
  104       -0.411986   0.000000
  105       -0.263557   0.000000
  106       -0.142918   0.000000
  107       -0.080844   0.000000
  108       -0.004366   0.000000
  109        0.088541   0.000000
  110        0.361082   0.000000
  111        0.377664   0.000000
  112        0.496936   0.000000
  113        0.609007   0.000000
  114        0.692187   0.000000
  115        0.864591   0.000000
  116        1.013715   0.000000
  117        1.222212   0.000000
  118        1.684578   0.000000
  119        1.871158   0.000000
  120        2.182897   0.000000
 
  0.2500000E+00  0.5551115E-16  0.0000000E+00  0.3125000E-01
    1      -17.704993   1.000000
    2      -16.954027   1.000000
    3      -16.722805   1.000000
    4      -16.678008   1.000000
    5      -16.574653   1.000000
    6      -16.398317   1.000000
    7      -16.315773   1.000000
    8      -16.219101   1.000000
    9      -16.164917   1.000000
   10      -16.031219   1.000000
   11      -15.970817   1.000000
   12      -15.835904   1.000000
   13      -15.739362   1.000000
   14      -15.719639   1.000000
   15      -15.604388   1.000000
   16      -15.508120   1.000000
   17      -15.424858   1.000000
   18      -15.397458   1.000000
   19       -9.507229   1.000000
   20       -9.256572   1.000000
   21       -9.196840   1.000000
   22       -9.065377   1.000000
   23       -8.834170   1.000000
   24       -8.749296   1.000000
   25       -8.629088   1.000000
   26       -8.541808   1.000000
   27       -8.495289   1.000000
   28       -8.401487   1.000000
   29       -8.224361   1.000000
   30       -8.174975   1.000000
   31       -8.080128   1.000000
   32       -8.019393   1.000000
   33       -7.966246   1.000000
   34       -7.824079   1.000000
   35       -7.798713   1.000000
   36       -7.673884   1.000000
   37       -7.583901   1.000000
   38       -7.512222   1.000000
   39       -7.450211   1.000000
   40       -7.322951   1.000000
   41       -7.259474   1.000000
   42       -7.218218   1.000000
   43       -7.095666   1.000000
   44       -7.058507   1.000000
   45       -6.981655   1.000000
   46       -6.832373   1.000000
   47       -6.709230   1.000000
   48       -6.660822   1.000000
   49       -6.604603   1.000000
   50       -6.499257   1.000000
   51       -6.410748   1.000000
   52       -6.330121   1.000000
   53       -6.227967   1.000000
   54       -6.196124   1.000000
   55       -6.113076   1.000000
   56       -6.050242   1.000000
   57       -5.966244   1.000000
   58       -5.844414   1.000000
   59       -5.740509   1.000000
   60       -5.679204   1.000000
   61       -5.620318   1.000000
   62       -5.526565   1.000000
   63       -5.471529   1.000000
   64       -5.302553   1.000000
   65       -5.174976   1.000000
   66       -5.121544   1.000000
   67       -4.955620   1.000000
   68       -4.891433   1.000000
   69       -4.784279   1.000000
   70       -4.727557   1.000000
   71       -4.557165   1.000000
   72       -4.497648   1.000000
   73       -4.363890   1.000000
   74       -4.282561   1.000000
   75       -4.169181   1.000000
   76       -4.081745   1.000000
   77       -3.899102   0.999914
   78       -3.844551   0.999627
   79       -3.632824   0.969589
   80       -3.425803   0.659437
   81       -3.040493   0.010344
   82       -2.803707   0.000033
   83       -2.720602   0.000002
   84       -2.618114   0.000000
   85       -2.557052   0.000000
   86       -2.449884   0.000000
   87       -2.356680   0.000000
   88       -2.223998   0.000000
   89       -2.153520   0.000000
   90       -2.091963   0.000000
   91       -1.782771   0.000000
   92       -1.579685   0.000000
   93       -1.485207   0.000000
   94       -1.339201   0.000000
   95       -1.180300   0.000000
   96       -1.086121   0.000000
   97       -0.983850   0.000000
   98       -0.939095   0.000000
   99       -0.876928   0.000000
  100       -0.793297   0.000000
  101       -0.666235   0.000000
  102       -0.630604   0.000000
  103       -0.570796   0.000000
  104       -0.471339   0.000000
  105       -0.340868   0.000000
  106       -0.278045   0.000000
  107       -0.191110   0.000000
  108       -0.059808   0.000000
  109        0.030564   0.000000
  110        0.275150   0.000000
  111        0.318635   0.000000
  112        0.537217   0.000000
  113        0.633745   0.000000
  114        0.775662   0.000000
  115        1.044295   0.000000
  116        1.086271   0.000000
  117        1.262700   0.000000
  118        1.808631   0.000000
  119        1.978577   0.000000
  120        2.286937   0.000000
 
  0.3750000E+00  0.0000000E+00  0.0000000E+00  0.3125000E-01
    1      -17.597324   1.000000
    2      -17.156148   1.000000
    3      -16.762621   1.000000
    4      -16.671395   1.000000
    5      -16.615513   1.000000
    6      -16.410141   1.000000
    7      -16.271579   1.000000
    8      -16.210877   1.000000
    9      -16.127949   1.000000
   10      -15.995035   1.000000
   11      -15.907135   1.000000
   12      -15.770520   1.000000
   13      -15.754883   1.000000
   14      -15.674813   1.000000
   15      -15.611226   1.000000
   16      -15.545909   1.000000
   17      -15.465274   1.000000
   18      -15.387027   1.000000
   19       -9.698416   1.000000
   20       -9.342549   1.000000
   21       -9.222220   1.000000
   22       -9.098778   1.000000
   23       -8.897498   1.000000
   24       -8.791662   1.000000
   25       -8.642992   1.000000
   26       -8.496935   1.000000
   27       -8.467688   1.000000
   28       -8.278990   1.000000
   29       -8.222414   1.000000
   30       -8.183747   1.000000
   31       -8.066436   1.000000
   32       -7.992053   1.000000
   33       -7.926018   1.000000
   34       -7.854560   1.000000
   35       -7.755586   1.000000
   36       -7.670541   1.000000
   37       -7.575519   1.000000
   38       -7.516874   1.000000
   39       -7.412544   1.000000
   40       -7.281835   1.000000
   41       -7.213183   1.000000
   42       -7.133116   1.000000
   43       -7.025941   1.000000
   44       -6.980719   1.000000
   45       -6.881530   1.000000
   46       -6.732667   1.000000
   47       -6.683588   1.000000
   48       -6.646694   1.000000
   49       -6.553390   1.000000
   50       -6.448124   1.000000
   51       -6.421068   1.000000
   52       -6.299472   1.000000
   53       -6.248375   1.000000
   54       -6.179055   1.000000
   55       -6.090698   1.000000
   56       -6.051512   1.000000
   57       -5.946315   1.000000
   58       -5.890506   1.000000
   59       -5.843874   1.000000
   60       -5.801673   1.000000
   61       -5.743921   1.000000
   62       -5.648316   1.000000
   63       -5.560326   1.000000
   64       -5.360987   1.000000
   65       -5.237428   1.000000
   66       -5.122359   1.000000
   67       -4.964042   1.000000
   68       -4.884162   1.000000
   69       -4.812661   1.000000
   70       -4.680114   1.000000
   71       -4.557678   1.000000
   72       -4.475664   1.000000
   73       -4.436195   1.000000
   74       -4.278027   1.000000
   75       -4.174318   1.000000
   76       -4.056231   0.999999
   77       -3.889719   0.999888
   78       -3.729973   0.994792
   79       -3.633349   0.969844
   80       -3.347048   0.441979
   81       -3.032854   0.008951
   82       -2.815087   0.000047
   83       -2.748124   0.000006
   84       -2.673507   0.000000
   85       -2.542960   0.000000
   86       -2.444864   0.000000
   87       -2.315712   0.000000
   88       -2.199598   0.000000
   89       -2.115930   0.000000
   90       -1.996778   0.000000
   91       -1.787666   0.000000
   92       -1.561590   0.000000
   93       -1.421281   0.000000
   94       -1.335479   0.000000
   95       -1.241514   0.000000
   96       -1.158531   0.000000
   97       -1.021716   0.000000
   98       -0.979064   0.000000
   99       -0.920805   0.000000
  100       -0.821347   0.000000
  101       -0.703052   0.000000
  102       -0.686703   0.000000
  103       -0.610484   0.000000
  104       -0.546159   0.000000
  105       -0.446847   0.000000
  106       -0.382944   0.000000
  107       -0.272208   0.000000
  108       -0.141244   0.000000
  109       -0.003094   0.000000
  110        0.200448   0.000000
  111        0.282737   0.000000
  112        0.552943   0.000000
  113        0.655270   0.000000
  114        0.859443   0.000000
  115        1.136810   0.000000
  116        1.190491   0.000000
  117        1.323368   0.000000
  118        1.992812   0.000000
  119        2.149295   0.000000
  120        2.454367   0.000000
 
  0.5000000E+00  0.1110223E-15  0.0000000E+00  0.1562500E-01
    1      -17.516159   1.000000
    2      -17.270916   1.000000
    3      -16.777462   1.000000
    4      -16.667034   1.000000
    5      -16.630116   1.000000
    6      -16.416638   1.000000
    7      -16.259206   1.000000
    8      -16.209840   1.000000
    9      -16.104891   1.000000
   10      -15.995428   1.000000
   11      -15.858755   1.000000
   12      -15.758481   1.000000
   13      -15.727843   1.000000
   14      -15.670057   1.000000
   15      -15.647996   1.000000
   16      -15.546875   1.000000
   17      -15.496784   1.000000
   18      -15.368658   1.000000
   19       -9.773361   1.000000
   20       -9.375536   1.000000
   21       -9.252716   1.000000
   22       -9.069428   1.000000
   23       -8.920074   1.000000
   24       -8.801755   1.000000
   25       -8.640275   1.000000
   26       -8.539493   1.000000
   27       -8.395341   1.000000
   28       -8.292039   1.000000
   29       -8.173817   1.000000
   30       -8.131899   1.000000
   31       -8.095756   1.000000
   32       -8.037561   1.000000
   33       -7.888499   1.000000
   34       -7.853794   1.000000
   35       -7.771025   1.000000
   36       -7.669606   1.000000
   37       -7.645551   1.000000
   38       -7.497795   1.000000
   39       -7.456699   1.000000
   40       -7.278823   1.000000
   41       -7.154271   1.000000
   42       -7.079866   1.000000
   43       -6.935932   1.000000
   44       -6.880478   1.000000
   45       -6.769970   1.000000
   46       -6.720826   1.000000
   47       -6.655335   1.000000
   48       -6.588017   1.000000
   49       -6.576680   1.000000
   50       -6.533873   1.000000
   51       -6.447301   1.000000
   52       -6.297489   1.000000
   53       -6.271177   1.000000
   54       -6.185336   1.000000
   55       -6.100537   1.000000
   56       -6.073993   1.000000
   57       -5.916842   1.000000
   58       -5.891222   1.000000
   59       -5.808350   1.000000
   60       -5.778458   1.000000
   61       -5.739230   1.000000
   62       -5.668188   1.000000
   63       -5.578063   1.000000
   64       -5.507143   1.000000
   65       -5.360455   1.000000
   66       -5.105506   1.000000
   67       -5.048929   1.000000
   68       -4.930636   1.000000
   69       -4.798593   1.000000
   70       -4.574101   1.000000
   71       -4.544626   1.000000
   72       -4.484621   1.000000
   73       -4.425209   1.000000
   74       -4.389549   1.000000
   75       -4.080954   1.000000
   76       -4.040345   0.999999
   77       -3.875685   0.999836
   78       -3.734925   0.995294
   79       -3.572058   0.925786
   80       -3.367828   0.500392
   81       -2.934427   0.001093
   82       -2.902131   0.000497
   83       -2.747453   0.000006
   84       -2.696741   0.000001
   85       -2.537720   0.000000
   86       -2.440199   0.000000
   87       -2.300175   0.000000
   88       -2.187113   0.000000
   89       -2.108746   0.000000
   90       -1.957898   0.000000
   91       -1.773191   0.000000
   92       -1.564999   0.000000
   93       -1.417174   0.000000
   94       -1.295302   0.000000
   95       -1.262384   0.000000
   96       -1.243376   0.000000
   97       -1.009213   0.000000
   98       -0.996756   0.000000
   99       -0.925030   0.000000
  100       -0.827748   0.000000
  101       -0.748249   0.000000
  102       -0.700695   0.000000
  103       -0.622185   0.000000
  104       -0.561649   0.000000
  105       -0.509042   0.000000
  106       -0.420435   0.000000
  107       -0.308436   0.000000
  108       -0.171627   0.000000
  109       -0.013941   0.000000
  110        0.177462   0.000000
  111        0.269038   0.000000
  112        0.554739   0.000000
  113        0.669055   0.000000
  114        0.889934   0.000000
  115        1.157504   0.000000
  116        1.231622   0.000000
  117        1.356260   0.000000
  118        2.213425   0.000000
  119        2.237806   0.000000
  120        2.363119   0.000000
 
  0.0000000E+00  0.1250000E+00  0.0000000E+00  0.3125000E-01
    1      -17.776566   1.000000
    2      -16.771549   1.000000
    3      -16.689405   1.000000
    4      -16.620293   1.000000
    5      -16.547684   1.000000
    6      -16.410604   1.000000
    7      -16.357603   1.000000
    8      -16.271346   1.000000
    9      -16.152805   1.000000
   10      -16.100486   1.000000
   11      -15.982047   1.000000
   12      -15.901076   1.000000
   13      -15.860669   1.000000
   14      -15.679190   1.000000
   15      -15.590039   1.000000
   16      -15.513434   1.000000
   17      -15.431134   1.000000
   18      -15.337385   1.000000
   19       -9.407628   1.000000
   20       -9.117195   1.000000
   21       -9.035822   1.000000
   22       -8.954396   1.000000
   23       -8.774839   1.000000
   24       -8.676286   1.000000
   25       -8.616886   1.000000
   26       -8.539759   1.000000
   27       -8.487613   1.000000
   28       -8.456120   1.000000
   29       -8.394593   1.000000
   30       -8.233805   1.000000
   31       -8.174763   1.000000
   32       -8.095121   1.000000
   33       -7.968525   1.000000
   34       -7.919701   1.000000
   35       -7.825407   1.000000
   36       -7.728108   1.000000
   37       -7.684874   1.000000
   38       -7.577238   1.000000
   39       -7.488615   1.000000
   40       -7.398924   1.000000
   41       -7.357095   1.000000
   42       -7.194687   1.000000
   43       -7.114951   1.000000
   44       -7.032673   1.000000
   45       -6.903172   1.000000
   46       -6.834545   1.000000
   47       -6.738840   1.000000
   48       -6.636142   1.000000
   49       -6.591921   1.000000
   50       -6.501995   1.000000
   51       -6.454199   1.000000
   52       -6.371650   1.000000
   53       -6.244813   1.000000
   54       -6.198699   1.000000
   55       -6.169957   1.000000
   56       -6.084812   1.000000
   57       -5.960467   1.000000
   58       -5.904317   1.000000
   59       -5.726072   1.000000
   60       -5.553737   1.000000
   61       -5.518961   1.000000
   62       -5.416836   1.000000
   63       -5.328636   1.000000
   64       -5.191249   1.000000
   65       -5.101196   1.000000
   66       -5.011830   1.000000
   67       -4.986276   1.000000
   68       -4.919216   1.000000
   69       -4.784295   1.000000
   70       -4.761791   1.000000
   71       -4.659988   1.000000
   72       -4.573751   1.000000
   73       -4.415185   1.000000
   74       -4.335969   1.000000
   75       -4.141238   1.000000
   76       -4.037289   0.999999
   77       -3.878949   0.999850
   78       -3.748803   0.996479
   79       -3.637401   0.971750
   80       -3.541027   0.889841
   81       -3.064620   0.016056
   82       -2.742202   0.000005
   83       -2.703782   0.000001
   84       -2.578238   0.000000
   85       -2.560038   0.000000
   86       -2.481785   0.000000
   87       -2.375604   0.000000
   88       -2.283306   0.000000
   89       -2.227997   0.000000
   90       -2.155636   0.000000
   91       -1.753361   0.000000
   92       -1.625087   0.000000
   93       -1.568382   0.000000
   94       -1.307940   0.000000
   95       -1.172436   0.000000
   96       -1.037044   0.000000
   97       -0.951938   0.000000
   98       -0.877917   0.000000
   99       -0.755181   0.000000
  100       -0.681166   0.000000
  101       -0.650425   0.000000
  102       -0.606251   0.000000
  103       -0.568784   0.000000
  104       -0.464267   0.000000
  105       -0.278343   0.000000
  106       -0.139835   0.000000
  107       -0.047116   0.000000
  108       -0.009196   0.000000
  109        0.128206   0.000000
  110        0.288571   0.000000
  111        0.372524   0.000000
  112        0.475863   0.000000
  113        0.588158   0.000000
  114        0.772118   0.000000
  115        0.863112   0.000000
  116        1.015648   0.000000
  117        1.250501   0.000000
  118        1.683727   0.000000
  119        1.872789   0.000000
  120        2.182947   0.000000
 
  0.1250000E+00  0.1250000E+00  0.0000000E+00  0.3125000E-01
    1      -17.729066   1.000000
    2      -16.857847   1.000000
    3      -16.795133   1.000000
    4      -16.663181   1.000000
    5      -16.504236   1.000000
    6      -16.404166   1.000000
    7      -16.348981   1.000000
    8      -16.227543   1.000000
    9      -16.147177   1.000000
   10      -16.096263   1.000000
   11      -15.958857   1.000000
   12      -15.837990   1.000000
   13      -15.793228   1.000000
   14      -15.689896   1.000000
   15      -15.604950   1.000000
   16      -15.496025   1.000000
   17      -15.436504   1.000000
   18      -15.382118   1.000000
   19       -9.457629   1.000000
   20       -9.250300   1.000000
   21       -9.138622   1.000000
   22       -9.059919   1.000000
   23       -8.825154   1.000000
   24       -8.688069   1.000000
   25       -8.622987   1.000000
   26       -8.526743   1.000000
   27       -8.441956   1.000000
   28       -8.389855   1.000000
   29       -8.364651   1.000000
   30       -8.255173   1.000000
   31       -8.132845   1.000000
   32       -8.058512   1.000000
   33       -7.982094   1.000000
   34       -7.824817   1.000000
   35       -7.721213   1.000000
   36       -7.663038   1.000000
   37       -7.595786   1.000000
   38       -7.484756   1.000000
   39       -7.406716   1.000000
   40       -7.377483   1.000000
   41       -7.308890   1.000000
   42       -7.195159   1.000000
   43       -7.164427   1.000000
   44       -7.070012   1.000000
   45       -6.980953   1.000000
   46       -6.878216   1.000000
   47       -6.726495   1.000000
   48       -6.667777   1.000000
   49       -6.590907   1.000000
   50       -6.513953   1.000000
   51       -6.454569   1.000000
   52       -6.329583   1.000000
   53       -6.234297   1.000000
   54       -6.174447   1.000000
   55       -6.123190   1.000000
   56       -6.061521   1.000000
   57       -5.926416   1.000000
   58       -5.860106   1.000000
   59       -5.701432   1.000000
   60       -5.654453   1.000000
   61       -5.544538   1.000000
   62       -5.490855   1.000000
   63       -5.431056   1.000000
   64       -5.297408   1.000000
   65       -5.157375   1.000000
   66       -5.113845   1.000000
   67       -4.985971   1.000000
   68       -4.895186   1.000000
   69       -4.786772   1.000000
   70       -4.744556   1.000000
   71       -4.621257   1.000000
   72       -4.512182   1.000000
   73       -4.352921   1.000000
   74       -4.225179   1.000000
   75       -4.095947   1.000000
   76       -4.082189   1.000000
   77       -3.924791   0.999959
   78       -3.844498   0.999626
   79       -3.676919   0.985614
   80       -3.443908   0.705040
   81       -3.000219   0.004683
   82       -2.804141   0.000034
   83       -2.748388   0.000006
   84       -2.604905   0.000000
   85       -2.545630   0.000000
   86       -2.449521   0.000000
   87       -2.396173   0.000000
   88       -2.229216   0.000000
   89       -2.193669   0.000000
   90       -2.134057   0.000000
   91       -1.791980   0.000000
   92       -1.570062   0.000000
   93       -1.506808   0.000000
   94       -1.298610   0.000000
   95       -1.163432   0.000000
   96       -1.065198   0.000000
   97       -0.962365   0.000000
   98       -0.915282   0.000000
   99       -0.838065   0.000000
  100       -0.730159   0.000000
  101       -0.686229   0.000000
  102       -0.646113   0.000000
  103       -0.594577   0.000000
  104       -0.471106   0.000000
  105       -0.350624   0.000000
  106       -0.252913   0.000000
  107       -0.133747   0.000000
  108       -0.043847   0.000000
  109        0.042934   0.000000
  110        0.247582   0.000000
  111        0.293583   0.000000
  112        0.501168   0.000000
  113        0.616888   0.000000
  114        0.823620   0.000000
  115        1.000281   0.000000
  116        1.080358   0.000000
  117        1.323251   0.000000
  118        1.770688   0.000000
  119        1.943406   0.000000
  120        2.253138   0.000000
 
  0.2500000E+00  0.1250000E+00  0.0000000E+00  0.3125000E-01
    1      -17.638813   1.000000
    2      -17.040405   1.000000
    3      -16.890299   1.000000
    4      -16.648079   1.000000
    5      -16.501842   1.000000
    6      -16.395247   1.000000
    7      -16.319394   1.000000
    8      -16.195158   1.000000
    9      -16.129422   1.000000
   10      -16.059786   1.000000
   11      -15.946424   1.000000
   12      -15.785294   1.000000
   13      -15.726386   1.000000
   14      -15.688172   1.000000
   15      -15.600856   1.000000
   16      -15.510097   1.000000
   17      -15.472462   1.000000
   18      -15.396182   1.000000
   19       -9.605696   1.000000
   20       -9.410202   1.000000
   21       -9.218725   1.000000
   22       -9.101946   1.000000
   23       -8.818375   1.000000
   24       -8.718982   1.000000
   25       -8.618818   1.000000
   26       -8.484988   1.000000
   27       -8.416861   1.000000
   28       -8.351731   1.000000
   29       -8.241584   1.000000
   30       -8.207541   1.000000
   31       -8.120565   1.000000
   32       -8.044715   1.000000
   33       -7.989354   1.000000
   34       -7.919456   1.000000
   35       -7.785717   1.000000
   36       -7.583892   1.000000
   37       -7.519983   1.000000
   38       -7.413782   1.000000
   39       -7.346921   1.000000
   40       -7.326054   1.000000
   41       -7.278197   1.000000
   42       -7.190685   1.000000
   43       -7.067642   1.000000
   44       -7.003152   1.000000
   45       -6.892577   1.000000
   46       -6.772118   1.000000
   47       -6.720971   1.000000