       N       E                     dE             d eps       ncg     rms          rms(c)
DAV:   1     0.112346951234E+04    0.11235E+04   -0.35866E+04  8160   0.577E+02
DAV:   2    -0.859308015978E+00   -0.11243E+04   -0.10815E+04 11080   0.173E+02
DAV:   3    -0.199538724348E+03   -0.19868E+03   -0.19048E+03 10880   0.821E+01
DAV:   4    -0.208952433609E+03   -0.94137E+01   -0.90940E+01 11960   0.263E+01
DAV:   5    -0.209313008506E+03   -0.36057E+00   -0.35959E+00 11520   0.381E+00    0.275E+01
DAV:   6    -0.237227151265E+03   -0.27914E+02   -0.10629E+02 12640   0.605E+01    0.595E+01
DAV:   7    -0.196470139457E+03    0.40757E+02   -0.17626E+02 13280   0.152E+02    0.200E+01
DAV:   8    -0.189425954984E+03    0.70442E+01   -0.17590E+01 11840   0.127E+01    0.125E+01
DAV:   9    -0.188229078221E+03    0.11969E+01   -0.35808E+00 12520   0.614E+00    0.929E+00
DAV:  10    -0.187079305524E+03    0.11498E+01   -0.20079E+00 13360   0.733E+00    0.319E+00
DAV:  11    -0.187029479883E+03    0.49826E-01   -0.72216E-01 13480   0.321E+00    0.342E+00
DAV:  12    -0.187173608631E+03   -0.14413E+00   -0.11482E+00 12680   0.556E+00    0.487E+00
DAV:  13    -0.186927075807E+03    0.24653E+00   -0.49602E-01 13240   0.360E+00    0.215E+00
DAV:  14    -0.186879742833E+03    0.47333E-01   -0.11162E-01 13280   0.163E+00    0.777E-01
DAV:  15    -0.186881694858E+03   -0.19520E-02   -0.42089E-02 12440   0.119E+00    0.118E+00
DAV:  16    -0.186872613291E+03    0.90816E-02   -0.20803E-02 13160   0.813E-01    0.565E-01
DAV:  17    -0.186869284729E+03    0.33286E-02   -0.98750E-03 12680   0.520E-01    0.221E-01
DAV:  18    -0.186869092144E+03    0.19258E-03   -0.20535E-03 11920   0.150E-01    0.153E-01
DAV:  19    -0.186868745058E+03    0.34709E-03   -0.89767E-04 11280   0.104E-01    0.510E-02
DAV:  20    -0.186869511787E+03   -0.76673E-03   -0.74171E-04  9200   0.626E-02    0.540E-02
DAV:  21    -0.186870119540E+03   -0.60775E-03   -0.20913E-04  8160   0.456E-02    0.323E-02
DAV:  22    -0.186871226694E+03   -0.11072E-02   -0.17903E-04  7600   0.419E-02    0.332E-02
DAV:  23    -0.186872453239E+03   -0.12265E-02   -0.13123E-04  7520   0.409E-02    0.119E-02
DAV:  24    -0.186873038672E+03   -0.58543E-03   -0.25097E-05  6840   0.133E-02    0.760E-03
DAV:  25    -0.186873417671E+03   -0.37900E-03   -0.15761E-05  5480   0.118E-02    0.487E-03
DAV:  26    -0.186873636287E+03   -0.21862E-03   -0.82916E-06  6840   0.712E-03    0.209E-03
DAV:  27    -0.186873740091E+03   -0.10380E-03   -0.38326E-06  6960   0.408E-03    0.127E-03
DAV:  28    -0.186873790318E+03   -0.50227E-04   -0.20962E-06  7240   0.299E-03
   1 F= -.18687379E+03 E0= -.18670212E+03  d E =-.186874E+03
       N       E                     dE             d eps       ncg     rms          rms(c)
DAV:   1    -0.187499220536E+03   -0.62548E+00   -0.27028E+02  8160   0.349E+01    0.465E+00
DAV:   2    -0.189500832683E+03   -0.20016E+01   -0.20288E+01 12240   0.156E+01    0.985E+00
DAV:   3    -0.189340455440E+03    0.16038E+00   -0.49436E+00 12440   0.126E+01    0.628E+00
DAV:   4    -0.188767323304E+03    0.57313E+00   -0.55954E-01 11840   0.439E+00    0.201E+00
DAV:   5    -0.188899907552E+03   -0.13258E+00   -0.48382E-01 12200   0.390E+00    0.550E+00
DAV:   6    -0.188742323056E+03    0.15758E+00   -0.78678E-01 12680   0.436E+00    0.229E+00
DAV:   7    -0.188712332893E+03    0.29990E-01   -0.21102E-01 11680   0.214E+00    0.203E+00
DAV:   8    -0.188695388724E+03    0.16944E-01   -0.11972E-01 12920   0.209E+00    0.173E+00
DAV:   9    -0.188670362942E+03    0.25026E-01   -0.47788E-02 11960   0.113E+00    0.507E-01
DAV:  10    -0.188668690516E+03    0.16724E-02   -0.58693E-03 11120   0.273E-01    0.259E-01
DAV:  11    -0.188668136909E+03    0.55361E-03   -0.28850E-03 13120   0.223E-01    0.139E-01
DAV:  12    -0.188668074703E+03    0.62205E-04   -0.10810E-03 11800   0.103E-01    0.104E-01
DAV:  13    -0.188668054246E+03    0.20457E-04   -0.27037E-04  7520   0.678E-02
   2 F= -.18866805E+03 E0= -.18852820E+03  d E =-.179426E+01
       N       E                     dE             d eps       ncg     rms          rms(c)
DAV:   1    -0.190590449106E+03   -0.19224E+01   -0.31014E+01  9200   0.142E+01    0.446E+00
DAV:   2    -0.190573109897E+03    0.17339E-01   -0.28209E+00 11160   0.969E+00    0.741E+00
DAV:   3    -0.190062369703E+03    0.51074E+00   -0.13084E+00 12280   0.868E+00    0.416E+00
DAV:   4    -0.189856137876E+03    0.20623E+00   -0.68886E-01 12760   0.413E+00    0.248E+00
DAV:   5    -0.189791476329E+03    0.64662E-01   -0.31240E-01 11080   0.236E+00    0.199E+00
DAV:   6    -0.189759745109E+03    0.31731E-01   -0.10524E-01 12720   0.193E+00    0.844E-01
DAV:   7    -0.189752284857E+03    0.74603E-02   -0.14996E-02 12560   0.589E-01    0.195E-01
DAV:   8    -0.189752303734E+03   -0.18877E-04   -0.26901E-03 10440   0.158E-01    0.139E-01
DAV:   9    -0.189752528217E+03   -0.22448E-03   -0.10610E-03 10480   0.120E-01    0.138E-01
DAV:  10    -0.189752694561E+03   -0.16634E-03   -0.97814E-04 10400   0.198E-01    0.188E-01
DAV:  11    -0.189752394101E+03    0.30046E-03   -0.53265E-04  9520   0.161E-01    0.357E-02
DAV:  12    -0.189752400716E+03   -0.66146E-05   -0.58203E-05  5920   0.353E-02
   3 F= -.18975240E+03 E0= -.18963509E+03  d E =-.108435E+01
       N       E                     dE             d eps       ncg     rms          rms(c)
DAV:   1    -0.191295787597E+03   -0.15434E+01   -0.71079E+01  8160   0.193E+01    0.461E+00
DAV:   2    -0.191186676595E+03    0.10911E+00   -0.54046E+00 13400   0.839E+00    0.520E+00
DAV:   3    -0.191235168046E+03   -0.48491E-01   -0.15751E+00 11680   0.922E+00    0.685E+00
DAV:   4    -0.190908094783E+03    0.32707E+00   -0.15644E+00 12520   0.785E+00    0.410E+00
DAV:   5    -0.190895877976E+03    0.12217E-01   -0.86755E-01 11200   0.587E+00    0.360E+00
DAV:   6    -0.190712762766E+03    0.18312E+00   -0.20615E-01 11240   0.297E+00    0.601E-01
DAV:   7    -0.190711292426E+03    0.14703E-02   -0.36861E-02 11360   0.692E-01    0.450E-01
DAV:   8    -0.190707812673E+03    0.34798E-02   -0.70890E-03 10200   0.335E-01    0.147E-01
DAV:   9    -0.190708511039E+03   -0.69837E-03   -0.17898E-03 12360   0.255E-01    0.247E-01
DAV:  10    -0.190708268178E+03    0.24286E-03   -0.16369E-03 10440   0.292E-01    0.145E-01
DAV:  11    -0.190708076846E+03    0.19133E-03   -0.60261E-04  9880   0.132E-01    0.434E-02
DAV:  12    -0.190708089218E+03   -0.12371E-04   -0.13214E-04  6600   0.445E-02
   4 F= -.19070809E+03 E0= -.19060968E+03  d E =-.955689E+00
       N       E                     dE             d eps       ncg     rms          rms(c)
DAV:   1    -0.192099846969E+03   -0.13918E+01   -0.14506E+02  8160   0.271E+01    0.575E+00
DAV:   2    -0.191940665045E+03    0.15918E+00   -0.95004E+00 12240   0.938E+00    0.546E+00
DAV:   3    -0.192384622121E+03   -0.44396E+00   -0.32445E+00 12240   0.125E+01    0.932E+00
DAV:   4    -0.191533067328E+03    0.85155E+00   -0.21311E+00 12320   0.105E+01    0.299E+00
DAV:   5    -0.191506060757E+03    0.27007E-01   -0.53416E-01 11840   0.484E+00    0.411E+00
DAV:   6    -0.191370395283E+03    0.13567E+00   -0.57385E-01 12200   0.509E+00    0.157E+00
DAV:   7    -0.191346587699E+03    0.23808E-01   -0.69276E-02 11880   0.144E+00    0.687E-01
DAV:   8    -0.191345210711E+03    0.13770E-02   -0.24595E-02 12080   0.111E+00    0.749E-01
DAV:   9    -0.191339645646E+03    0.55651E-02   -0.97883E-03 11400   0.743E-01    0.225E-01
DAV:  10    -0.191339785276E+03   -0.13963E-03   -0.26938E-03 11640   0.219E-01    0.113E-01
DAV:  11    -0.191339663287E+03    0.12199E-03   -0.82799E-04 10720   0.106E-01    0.636E-02
DAV:  12    -0.191339627325E+03    0.35962E-04   -0.13758E-04  7200   0.471E-02
   5 F= -.19133963E+03 E0= -.19124641E+03  d E =-.631538E+00
       N       E                     dE             d eps       ncg     rms          rms(c)
DAV:   1    -0.191389971618E+03   -0.50308E-01   -0.41554E+00  8160   0.432E+00    0.604E-01
DAV:   2    -0.191446821756E+03   -0.56850E-01   -0.22754E-01 12560   0.262E+00    0.224E+00
DAV:   3    -0.191399737797E+03    0.47084E-01   -0.10935E-01 12000   0.224E+00    0.515E-01
DAV:   4    -0.191400025718E+03   -0.28792E-03   -0.14156E-02 11440   0.807E-01    0.561E-01
DAV:   5    -0.191396808848E+03    0.32169E-02   -0.63750E-03 11440   0.583E-01    0.179E-01
DAV:   6    -0.191396868785E+03   -0.59937E-04   -0.20095E-03 11400   0.279E-01    0.215E-01
DAV:   7    -0.191396852375E+03    0.16410E-04   -0.22287E-03 11040   0.356E-01    0.199E-01
DAV:   8    -0.191396391457E+03    0.46092E-03   -0.77411E-04  9520   0.187E-01    0.282E-02
DAV:   9    -0.191396407040E+03   -0.15582E-04   -0.86234E-05  6280   0.361E-02
   6 F= -.19139641E+03 E0= -.19130088E+03  d E =-.567797E-01
       N       E                     dE             d eps       ncg     rms          rms(c)
DAV:   1    -0.191467539574E+03   -0.71148E-01   -0.10949E+01  8160   0.699E+00    0.928E-01
DAV:   2    -0.191591495588E+03   -0.12396E+00   -0.46554E-01 13040   0.359E+00    0.358E+00
DAV:   3    -0.191485062150E+03    0.10643E+00   -0.31478E-01 12000   0.350E+00    0.899E-01
DAV:   4    -0.191484124815E+03    0.93733E-03   -0.37346E-02 11640   0.131E+00    0.894E-01
DAV:   5    -0.191475918585E+03    0.82062E-02   -0.17155E-02 11680   0.942E-01    0.314E-01
DAV:   6    -0.191476026006E+03   -0.10742E-03   -0.61304E-03 11320   0.512E-01    0.387E-01
DAV:   7    -0.191475242343E+03    0.78366E-03   -0.55551E-03 11240   0.564E-01    0.255E-01
DAV:   8    -0.191474458196E+03    0.78415E-03   -0.15043E-03 10600   0.251E-01    0.468E-02
DAV:   9    -0.191474442082E+03    0.16114E-04   -0.17072E-04  6720   0.544E-02
   7 F= -.19147444E+03 E0= -.19137683E+03  d E =-.780350E-01
       N       E                     dE             d eps       ncg     rms          rms(c)
DAV:   1    -0.191514197958E+03   -0.39740E-01   -0.31429E+00  8160   0.378E+00    0.533E-01
DAV:   2    -0.191556480962E+03   -0.42283E-01   -0.15824E-01 12560   0.229E+00    0.205E+00
DAV:   3    -0.191518983775E+03    0.37497E-01   -0.88885E-02 12120   0.196E+00    0.454E-01
DAV:   4    -0.191519551681E+03   -0.56791E-03   -0.11811E-02 11440   0.745E-01    0.528E-01
DAV:   5    -0.191516741955E+03    0.28097E-02   -0.61181E-03 11440   0.546E-01    0.185E-01
DAV:   6    -0.191516931887E+03   -0.18993E-03   -0.23862E-03 11120   0.336E-01    0.248E-01
DAV:   7    -0.191516491281E+03    0.44061E-03   -0.19423E-03 10440   0.330E-01    0.124E-01
DAV:   8    -0.191516278461E+03    0.21282E-03   -0.41191E-04  8480   0.122E-01    0.262E-02
DAV:   9    -0.191516275118E+03    0.33427E-05   -0.66674E-05  7040   0.337E-02
   8 F= -.19151628E+03 E0= -.19141845E+03  d E =-.418330E-01
       N       E                     dE             d eps       ncg     rms          rms(c)
DAV:   1    -0.191592963854E+03   -0.76685E-01   -0.14658E+01  8160   0.819E+00    0.102E+00
DAV:   2    -0.191728115370E+03   -0.13515E+00   -0.59309E-01 12600   0.394E+00    0.375E+00
DAV:   3    -0.191619565625E+03    0.10855E+00   -0.35217E-01 12280   0.360E+00    0.968E-01
DAV:   4    -0.191620811462E+03   -0.12458E-02   -0.47629E-02 11360   0.153E+00    0.108E+00
DAV:   5    -0.191607929810E+03    0.12882E-01   -0.24109E-02 11720   0.114E+00    0.369E-01
DAV:   6    -0.191608417124E+03   -0.48731E-03   -0.86409E-03 11560   0.627E-01    0.459E-01
DAV:   7    -0.191607274233E+03    0.11429E-02   -0.76979E-03 11560   0.692E-01    0.299E-01
DAV:   8    -0.191605967496E+03    0.13067E-02   -0.20891E-03 11000   0.310E-01    0.520E-02
DAV:   9    -0.191605955204E+03    0.12293E-04   -0.28398E-04  8200   0.622E-02
   9 F= -.19160596E+03 E0= -.19151144E+03  d E =-.896801E-01
       N       E                     dE             d eps       ncg     rms          rms(c)
DAV:   1    -0.191609630086E+03   -0.36626E-02   -0.23345E-02  8160   0.330E-01    0.450E-02
DAV:   2    -0.191609821596E+03   -0.19151E-03   -0.11254E-03 12360   0.156E-01    0.122E-01
DAV:   3    -0.191609683819E+03    0.13778E-03   -0.39280E-04  7720   0.137E-01    0.477E-02
DAV:   4    -0.191609680126E+03    0.36927E-05   -0.82349E-05  5680   0.628E-02
  10 F= -.19160968E+03 E0= -.19151539E+03  d E =-.372492E-02
       N       E                     dE             d eps       ncg     rms          rms(c)
DAV:   1    -0.191610255767E+03   -0.57195E-03   -0.14110E-01  8160   0.878E-01    0.244E-01
DAV:   2    -0.191612846435E+03   -0.25907E-02   -0.14572E-02 11320   0.776E-01    0.596E-01
DAV:   3    -0.191608925469E+03    0.39210E-02   -0.73259E-03 10720   0.671E-01    0.168E-01
DAV:   4    -0.191609314853E+03   -0.38938E-03   -0.27494E-03 10440   0.359E-01    0.291E-01
DAV:   5    -0.191608684598E+03    0.63026E-03   -0.26243E-03  9800   0.350E-01    0.161E-01
DAV:   6    -0.191608481454E+03    0.20314E-03   -0.91542E-04  9720   0.189E-01    0.110E-01
DAV:   7    -0.191608363234E+03    0.11822E-03   -0.27045E-04  7480   0.125E-01    0.280E-02
DAV:   8    -0.191608363909E+03   -0.67517E-06   -0.35059E-05  6480   0.339E-02
  11 F= -.19160836E+03 E0= -.19151445E+03  d E =0.131622E-02
       N       E                     dE             d eps       ncg     rms          rms(c)
DAV:   1    -0.191655092228E+03   -0.46729E-01   -0.31458E+00  8160   0.386E+00    0.556E-01
DAV:   2    -0.191670138910E+03   -0.15047E-01   -0.12812E-01 13320   0.165E+00    0.118E+00
DAV:   3    -0.191657397335E+03    0.12742E-01   -0.41206E-02 12160   0.149E+00    0.483E-01
DAV:   4    -0.191656943129E+03    0.45421E-03   -0.11867E-02 12240   0.753E-01    0.552E-01
DAV:   5    -0.191654404775E+03    0.25384E-02   -0.86332E-03 11920   0.711E-01    0.320E-01
DAV:   6    -0.191654132587E+03    0.27219E-03   -0.47050E-03 11040   0.440E-01    0.293E-01
DAV:   7    -0.191653436910E+03    0.69568E-03   -0.26190E-03 10960   0.380E-01    0.142E-01
DAV:   8    -0.191653198190E+03    0.23872E-03   -0.52379E-04  8600   0.150E-01    0.356E-02
DAV:   9    -0.191653174195E+03    0.23995E-04   -0.74166E-05  7440   0.370E-02
  12 F= -.19165317E+03 E0= -.19156193E+03  d E =-.448103E-01
       N       E                     dE             d eps       ncg     rms          rms(c)
DAV:   1    -0.191702691254E+03   -0.49493E-01   -0.40002E+00  8160   0.429E+00    0.439E-01
DAV:   2    -0.191710865556E+03   -0.81743E-02   -0.11687E-01 12120   0.101E+00    0.477E-01
DAV:   3    -0.191712865841E+03   -0.20003E-02   -0.20717E-02 11480   0.965E-01    0.686E-01
DAV:   4    -0.191708367267E+03    0.44986E-02   -0.93532E-03 11440   0.699E-01    0.288E-01
DAV:   5    -0.191707868817E+03    0.49845E-03   -0.31033E-03 11240   0.422E-01    0.245E-01
DAV:   6    -0.191707640115E+03    0.22870E-03   -0.25658E-03 11640   0.378E-01    0.169E-01
DAV:   7    -0.191707251441E+03    0.38867E-03   -0.96043E-04  9800   0.194E-01    0.800E-02
DAV:   8    -0.191707208207E+03    0.43234E-04   -0.25342E-04  8080   0.124E-01
  13 F= -.19170721E+03 E0= -.19162067E+03  d E =-.540340E-01
       N       E                     dE             d eps       ncg     rms          rms(c)
DAV:   1    -0.191644626114E+03    0.62625E-01   -0.44733E+00  8160   0.451E+00    0.442E-01
DAV:   2    -0.191652661986E+03   -0.80359E-02   -0.12654E-01 12280   0.960E-01    0.306E-01
DAV:   3    -0.191653656100E+03   -0.99411E-03   -0.12630E-02 11320   0.615E-01    0.508E-01
DAV:   4    -0.191651825306E+03    0.18308E-02   -0.86826E-03 11080   0.644E-01    0.371E-01
DAV:   5    -0.191650520956E+03    0.13043E-02   -0.36041E-03 11200   0.362E-01    0.150E-01
DAV:   6    -0.191650973362E+03   -0.45241E-03   -0.20535E-03 12400   0.334E-01    0.237E-01
DAV:   7    -0.191650244751E+03    0.72861E-03   -0.92948E-04 10080   0.254E-01    0.322E-02
DAV:   8    -0.191650255021E+03   -0.10270E-04   -0.82723E-05  6120   0.497E-02
  14 F= -.19165026E+03 E0= -.19155872E+03  d E =0.569532E-01
       N       E                     dE             d eps       ncg     rms          rms(c)
DAV:   1    -0.191600691397E+03    0.49553E-01   -0.49382E+00  8160   0.478E+00    0.535E-01
DAV:   2    -0.191612718117E+03   -0.12027E-01   -0.15265E-01 13360   0.132E+00    0.753E-01
DAV:   3    -0.191612465606E+03    0.25251E-03   -0.35031E-02 12480   0.129E+00    0.822E-01
DAV:   4    -0.191607210504E+03    0.52551E-02   -0.15867E-02 12440   0.834E-01    0.416E-01
DAV:   5    -0.191606002389E+03    0.12081E-02   -0.60941E-03 10960   0.564E-01    0.313E-01
DAV:   6    -0.191605319889E+03    0.68250E-03   -0.37428E-03 11880   0.427E-01    0.166E-01
DAV:   7    -0.191604977778E+03    0.34211E-03   -0.12730E-03 10920   0.209E-01    0.109E-01
DAV:   8    -0.191604888704E+03    0.89074E-04   -0.45065E-04  9440   0.160E-01
  15 F= -.19160489E+03 E0= -.19151129E+03  d E =0.453663E-01
       N       E                     dE             d eps       ncg     rms          rms(c)
DAV:   1    -0.191582254533E+03    0.22723E-01   -0.23414E+00  8160   0.330E+00    0.352E-01
DAV:   2    -0.191586945638E+03   -0.46911E-02   -0.67899E-02 12680   0.756E-01    0.386E-01
DAV:   3    -0.191588134760E+03   -0.11891E-02   -0.12656E-02 12280   0.757E-01    0.578E-01
DAV:   4    -0.191585405874E+03    0.27289E-02   -0.69210E-03 11840   0.589E-01    0.243E-01
DAV:   5    -0.191584848741E+03    0.55713E-03   -0.22153E-03 11200   0.281E-01    0.188E-01
DAV:   6    -0.191584972003E+03   -0.12326E-03   -0.20442E-03 10280   0.346E-01    0.203E-01
DAV:   7    -0.191584497842E+03    0.47416E-03   -0.82682E-04  9200   0.205E-01    0.478E-02
DAV:   8    -0.191584495531E+03    0.23116E-05   -0.99544E-05  6400   0.808E-02
  16 F= -.19158450E+03 E0= -.19149099E+03  d E =0.203932E-01
       N       E                     dE             d eps       ncg     rms          rms(c)
DAV:   1    -0.191603191005E+03   -0.18693E-01   -0.13841E+00  8160   0.254E+00    0.317E-01
DAV:   2    -0.191614939198E+03   -0.11748E-01   -0.54490E-02 13560   0.114E+00    0.104E+00
DAV:   3    -0.191605582008E+03    0.93572E-02   -0.20845E-02 12040   0.102E+00    0.273E-01
DAV:   4    -0.191606080076E+03   -0.49807E-03   -0.36036E-03 11160   0.435E-01    0.352E-01
DAV:   5    -0.191604794833E+03    0.12852E-02   -0.25770E-03 10040   0.405E-01    0.119E-01
DAV:   6    -0.191604916987E+03   -0.12215E-03   -0.88640E-04 10280   0.195E-01    0.138E-01
DAV:   7    -0.191604748204E+03    0.16878E-03   -0.56990E-04  9080   0.200E-01    0.783E-02
DAV:   8    -0.191604660319E+03    0.87886E-04   -0.11493E-04  5840   0.793E-02
  17 F= -.19160466E+03 E0= -.19151354E+03  d E =-.201648E-01
       N       E                     dE             d eps       ncg     rms          rms(c)
DAV:   1    -0.191613737905E+03   -0.89897E-02   -0.61981E-01  8160   0.170E+00    0.205E-01
DAV:   2    -0.191615815157E+03   -0.20773E-02   -0.20502E-02 13360   0.569E-01    0.356E-01
DAV:   3    -0.191614780867E+03    0.10343E-02   -0.44455E-03 12320   0.506E-01    0.222E-01
DAV:   4    -0.191614609194E+03    0.17167E-03   -0.18914E-03 10680   0.290E-01    0.215E-01
DAV:   5    -0.191614241054E+03    0.36814E-03   -0.11900E-03  9600   0.252E-01    0.115E-01
DAV:   6    -0.191614155913E+03    0.85141E-04   -0.51760E-04  8400   0.139E-01
  18 F= -.19161416E+03 E0= -.19152249E+03  d E =-.949559E-02
       N       E                     dE             d eps       ncg     rms          rms(c)
DAV:   1    -0.191642553999E+03   -0.28313E-01   -0.25930E+00  8160   0.344E+00    0.403E-01
DAV:   2    -0.191658094056E+03   -0.15540E-01   -0.95160E-02 13000   0.135E+00    0.116E+00
DAV:   3    -0.191647430715E+03    0.10663E-01   -0.32602E-02 11360   0.119E+00    0.406E-01
DAV:   4    -0.191647451193E+03   -0.20477E-04   -0.66122E-03 11360   0.589E-01    0.411E-01
DAV:   5    -0.191645477928E+03    0.19733E-02   -0.33272E-03 11040   0.472E-01    0.133E-01
DAV:   6    -0.191645634115E+03   -0.15619E-03   -0.14950E-03 10400   0.220E-01    0.156E-01
DAV:   7    -0.191645485626E+03    0.14849E-03   -0.10510E-03 10520   0.254E-01    0.132E-01
DAV:   8    -0.191645277593E+03    0.20803E-03   -0.33789E-04  8520   0.144E-01    0.239E-02
DAV:   9    -0.191645275016E+03    0.25768E-05   -0.40003E-05  6360   0.274E-02
  19 F= -.19164528E+03 E0= -.19155541E+03  d E =-.311191E-01
       N       E                     dE             d eps       ncg     rms          rms(c)
DAV:   1    -0.191669193987E+03   -0.23916E-01   -0.17596E+00  8160   0.283E+00    0.308E-01
DAV:   2    -0.191677913751E+03   -0.87198E-02   -0.57601E-02 12600   0.975E-01    0.840E-01
DAV:   3    -0.191672519079E+03    0.53947E-02   -0.17709E-02 11880   0.887E-01    0.316E-01
DAV:   4    -0.191671884750E+03    0.63433E-03   -0.28787E-03 11160   0.328E-01    0.215E-01
DAV:   5    -0.191671512430E+03    0.37232E-03   -0.16027E-03 10680   0.309E-01    0.155E-01
DAV:   6    -0.191671428506E+03    0.83924E-04   -0.10558E-03 10000   0.219E-01    0.109E-01
DAV:   7    -0.191671366717E+03    0.61789E-04   -0.49241E-04  9000   0.168E-01
  20 F= -.19167137E+03 E0= -.19158367E+03  d E =-.260917E-01
       N       E                     dE             d eps       ncg     rms          rms(c)
DAV:   1    -0.191674671705E+03   -0.32432E-02   -0.30908E-02  8160   0.397E-01    0.462E-02
DAV:   2    -0.191674806029E+03   -0.13432E-03   -0.11532E-03 13480   0.125E-01    0.945E-02
DAV:   3    -0.191674745907E+03    0.60122E-04   -0.28383E-04  7600   0.124E-01
  21 F= -.19167475E+03 E0= -.19158756E+03  d E =-.337919E-02
       N       E                     dE             d eps       ncg     rms          rms(c)
DAV:   1    -0.191654836354E+03    0.19970E-01   -0.10131E+00  8160   0.217E+00    0.283E-01
DAV:   2    -0.191662165285E+03   -0.73289E-02   -0.40219E-02 12320   0.975E-01    0.814E-01
DAV:   3    -0.191655752229E+03    0.64131E-02   -0.12601E-02 11560   0.827E-01    0.228E-01
DAV:   4    -0.191655645254E+03    0.10698E-03   -0.25730E-03 11000   0.336E-01    0.234E-01
DAV:   5    -0.191655172219E+03    0.47303E-03   -0.16482E-03 10080   0.318E-01    0.132E-01
DAV:   6    -0.191655070244E+03    0.10197E-03   -0.81229E-04 10280   0.188E-01    0.103E-01
DAV:   7    -0.191655002138E+03    0.68106E-04   -0.37995E-04  8480   0.161E-01
  22 F= -.19165500E+03 E0= -.19156598E+03  d E =0.197438E-01
       N       E                     dE             d eps       ncg     rms          rms(c)
DAV:   1    -0.191702180069E+03   -0.47110E-01   -0.68656E+00  8160   0.561E+00    0.638E-01
DAV:   2    -0.191736934622E+03   -0.34755E-01   -0.22519E-01 12680   0.203E+00    0.181E+00
DAV:   3    -0.191713287309E+03    0.23647E-01   -0.79708E-02 11760   0.184E+00    0.619E-01
DAV:   4    -0.191711512465E+03    0.17748E-02   -0.13025E-02 11480   0.803E-01    0.543E-01
DAV:   5    -0.191708432713E+03    0.30798E-02   -0.77129E-03 11080   0.720E-01    0.282E-01
DAV:   6    -0.191708339305E+03    0.93408E-04   -0.45993E-03 11520   0.432E-01    0.256E-01
DAV:   7    -0.191707880256E+03    0.45905E-03   -0.25436E-03 11520   0.407E-01    0.191E-01
DAV:   8    -0.191707408198E+03    0.47206E-03   -0.76219E-04  9960   0.220E-01    0.389E-02
DAV:   9    -0.191707385399E+03    0.22798E-04   -0.93153E-05  6440   0.436E-02
  23 F= -.19170739E+03 E0= -.19162255E+03  d E =-.523833E-01
       N       E                     dE             d eps       ncg     rms          rms(c)
DAV:   1    -0.191728588594E+03   -0.21180E-01   -0.11872E+00  8160   0.232E+00    0.234E-01
DAV:   2    -0.191731290464E+03   -0.27019E-02   -0.34439E-02 12360   0.575E-01    0.312E-01
DAV:   3    -0.191731624989E+03   -0.33452E-03   -0.61606E-03 11840   0.552E-01    0.373E-01
DAV:   4    -0.191730329511E+03    0.12955E-02   -0.23301E-03 10600   0.351E-01    0.136E-01
DAV:   5    -0.191730269699E+03    0.59812E-04   -0.74128E-04  9720   0.225E-01
  24 F= -.19173027E+03 E0= -.19164702E+03  d E =-.228843E-01
       N       E                     dE             d eps       ncg     rms          rms(c)
DAV:   1    -0.191695849728E+03    0.34480E-01   -0.25603E+00  8160   0.348E+00    0.430E-01
DAV:   2    -0.191701292157E+03   -0.54424E-02   -0.85762E-02 12120   0.932E-01    0.581E-01
DAV:   3    -0.191701864527E+03   -0.57237E-03   -0.20015E-02 12200   0.100E+00    0.730E-01
DAV:   4    -0.191697446610E+03    0.44179E-02   -0.11718E-02 11920   0.711E-01    0.254E-01
DAV:   5    -0.191696618390E+03    0.82822E-03   -0.25909E-03 11200   0.277E-01    0.154E-01
DAV:   6    -0.191696764968E+03   -0.14658E-03   -0.18323E-03 12040   0.339E-01    0.197E-01
DAV:   7    -0.191696288236E+03    0.47673E-03   -0.83400E-04 10120   0.224E-01    0.409E-02
DAV:   8    -0.191696296936E+03   -0.86998E-05   -0.11472E-04  6440   0.798E-02
  25 F= -.19169630E+03 E0= -.19161122E+03  d E =0.339728E-01
       N       E                     dE             d eps       ncg     rms          rms(c)
DAV:   1    -0.191627990449E+03    0.68298E-01   -0.10548E+01  8160   0.694E+00    0.726E-01
DAV:   2    -0.191651317419E+03   -0.23327E-01   -0.30299E-01 12400   0.167E+00    0.932E-01
DAV:   3    -0.191654675170E+03   -0.33578E-02   -0.52052E-02 11000   0.165E+00    0.127E+00
DAV:   4    -0.191642692102E+03    0.11983E-01   -0.33343E-02 11920   0.119E+00    0.515E-01
DAV:   5    -0.191640815915E+03    0.18762E-02   -0.90270E-03 11320   0.723E-01    0.378E-01
DAV:   6    -0.191640180134E+03    0.63578E-03   -0.63989E-03 12080   0.585E-01    0.262E-01
DAV:   7    -0.191639367466E+03    0.81267E-03   -0.26378E-03 12440   0.334E-01    0.170E-01
DAV:   8    -0.191639097508E+03    0.26996E-03   -0.81416E-04 10080   0.230E-01    0.724E-02
DAV:   9    -0.191639039220E+03    0.58288E-04   -0.12383E-04  6440   0.775E-02
  26 F= -.19163904E+03 E0= -.19155128E+03  d E =0.572577E-01
       N       E                     dE             d eps       ncg     rms          rms(c)
DAV:   1    -0.191708860807E+03   -0.69763E-01   -0.17368E+01  8160   0.904E+00    0.112E+00
DAV:   2    -0.191776974587E+03   -0.68114E-01   -0.60464E-01 12600   0.311E+00    0.250E+00
DAV:   3    -0.191739520910E+03    0.37454E-01   -0.20767E-01 11720   0.296E+00    0.125E+00
DAV:   4    -0.191731312935E+03    0.82080E-02   -0.46643E-02 12280   0.167E+00    0.107E+00
DAV:   5    -0.191718776731E+03    0.12536E-01   -0.27067E-02 11520   0.138E+00    0.509E-01
DAV:   6    -0.191717539077E+03    0.12377E-02   -0.15124E-02 10680   0.731E-01    0.401E-01
DAV:   7    -0.191716635955E+03    0.90312E-03   -0.76027E-03 12000   0.684E-01    0.356E-01
DAV:   8    -0.191715168252E+03    0.14677E-02   -0.26500E-03 11880   0.418E-01    0.860E-02
DAV:   9    -0.191715041840E+03    0.12641E-03   -0.33842E-04  7960   0.862E-02    0.356E-02
DAV:  10    -0.191715015701E+03    0.26139E-04   -0.16249E-04  7200   0.382E-02
  27 F= -.19171502E+03 E0= -.19163083E+03  d E =-.759765E-01
       N       E                     dE             d eps       ncg     rms          rms(c)
DAV:   1    -0.191707707578E+03    0.73343E-02   -0.44663E-01  8160   0.150E+00    0.262E-01
DAV:   2    -0.191708747895E+03   -0.10403E-02   -0.19985E-02 11040   0.642E-01    0.391E-01
DAV:   3    -0.191707471796E+03    0.12761E-02   -0.50912E-03 11480   0.613E-01    0.239E-01
DAV:   4    -0.191706803480E+03    0.66832E-03   -0.19307E-03 10920   0.329E-01    0.151E-01
DAV:   5    -0.191706903670E+03   -0.10019E-03   -0.15244E-03 10000   0.295E-01    0.198E-01
DAV:   6    -0.191706512023E+03    0.39165E-03   -0.97199E-04  9640   0.232E-01    0.769E-02
DAV:   7    -0.191706504953E+03    0.70708E-05   -0.24536E-04  6280   0.111E-01
  28 F= -.19170650E+03 E0= -.19162197E+03  d E =0.851075E-02
       N       E                     dE             d eps       ncg     rms          rms(c)
DAV:   1    -0.191734036228E+03   -0.27524E-01   -0.22971E+00  8160   0.323E+00    0.329E-01
DAV:   2    -0.191739791831E+03   -0.57556E-02   -0.64547E-02 12360   0.846E-01    0.546E-01
DAV:   3    -0.191738793151E+03    0.99868E-03   -0.12809E-02 11440   0.800E-01    0.443E-01
DAV:   4    -0.191737060553E+03    0.17326E-02   -0.37281E-03 11200   0.447E-01    0.222E-01
DAV:   5    -0.191736725209E+03    0.33534E-03   -0.16446E-03 10000   0.350E-01    0.165E-01
DAV:   6    -0.191736543302E+03    0.18191E-03   -0.11607E-03 10080   0.227E-01    0.824E-02
DAV:   7    -0.191736421452E+03    0.12185E-03   -0.32081E-04  7880   0.101E-01    0.440E-02
DAV:   8    -0.191736410269E+03    0.11183E-04   -0.88770E-05  7200   0.788E-02
  29 F= -.19173641E+03 E0= -.19165455E+03  d E =-.299053E-01
       N       E                     dE             d eps       ncg     rms          rms(c)
DAV:   1    -0.191740915388E+03   -0.44939E-02   -0.60887E-02  8160   0.549E-01    0.898E-02
DAV:   2    -0.191741157674E+03   -0.24229E-03   -0.29295E-03 11600   0.242E-01    0.166E-01
DAV:   3    -0.191740955691E+03    0.20198E-03   -0.85404E-04  9680   0.223E-01    0.983E-02
DAV:   4    -0.191740923229E+03    0.32463E-04   -0.34976E-04  7280   0.141E-01
  30 F= -.19174092E+03 E0= -.19165894E+03  d E =-.451296E-02
       N       E                     dE             d eps       ncg     rms          rms(c)
DAV:   1    -0.191765605344E+03   -0.24650E-01   -0.16916E+00  8160   0.277E+00    0.274E-01
DAV:   2    -0.191769008222E+03   -0.34029E-02   -0.44268E-02 11720   0.631E-01    0.353E-01
DAV:   3    -0.191769407215E+03   -0.39899E-03   -0.75822E-03 12520   0.655E-01    0.419E-01
DAV:   4    -0.191767786130E+03    0.16211E-02   -0.29833E-03 11080   0.412E-01    0.160E-01
DAV:   5    -0.191767770700E+03    0.15430E-04   -0.13347E-03 10120   0.294E-01    0.170E-01
DAV:   6    -0.191767574957E+03    0.19574E-03   -0.88095E-04 10440   0.217E-01    0.861E-02
DAV:   7    -0.191767501215E+03    0.73742E-04   -0.35027E-04  8200   0.136E-01
  31 F= -.19176750E+03 E0= -.19168784E+03  d E =-.265780E-01
       N       E                     dE             d eps       ncg     rms          rms(c)
DAV:   1    -0.191741819955E+03    0.25755E-01   -0.13423E+00  8160   0.247E+00    0.244E-01
DAV:   2    -0.191744523923E+03   -0.27040E-02   -0.38403E-02 12160   0.571E-01    0.248E-01
DAV:   3    -0.191745382130E+03   -0.85821E-03   -0.54473E-03 12640   0.554E-01    0.405E-01
DAV:   4    -0.191743912184E+03    0.14699E-02   -0.30447E-03 11240   0.418E-01    0.163E-01
DAV:   5    -0.191743816146E+03    0.96038E-04   -0.10629E-03  9560   0.257E-01    0.147E-01
DAV:   6    -0.191743691057E+03    0.12509E-03   -0.72056E-04 10560   0.191E-01    0.836E-02
DAV:   7    -0.191743620339E+03    0.70718E-04   -0.30134E-04  7840   0.127E-01
  32 F= -.19174362E+03 E0= -.19166223E+03  d E =0.238809E-01
       N       E                     dE             d eps       ncg     rms          rms(c)
DAV:   1    -0.191717725664E+03    0.25965E-01   -0.21903E+00  8160   0.319E+00    0.350E-01
DAV:   2    -0.191723104236E+03   -0.53786E-02   -0.69014E-02 12680   0.840E-01    0.447E-01
DAV:   3    -0.191724054846E+03   -0.95061E-03   -0.13227E-02 12280   0.854E-01    0.572E-01
DAV:   4    -0.191721023787E+03    0.30311E-02   -0.51316E-03 12040   0.532E-01    0.191E-01
DAV:   5    -0.191720888772E+03    0.13501E-03   -0.16809E-03 11040   0.300E-01    0.198E-01
DAV:   6    -0.191720841195E+03    0.47578E-04   -0.16090E-03 11200   0.324E-01    0.163E-01
DAV:   7    -0.191720486275E+03    0.35492E-03   -0.54176E-04  8640   0.162E-01    0.420E-02
DAV:   8    -0.191720484979E+03    0.12964E-05   -0.90901E-05  6800   0.741E-02
  33 F= -.19172048E+03 E0= -.19163871E+03  d E =0.231354E-01
       N       E                     dE             d eps       ncg     rms          rms(c)
DAV:   1    -0.191716095710E+03    0.43906E-02   -0.53727E-01  8160   0.160E+00    0.187E-01
DAV:   2    -0.191717216258E+03   -0.11205E-02   -0.14839E-02 12640   0.423E-01    0.265E-01
DAV:   3    -0.191717001450E+03    0.21481E-03   -0.31760E-03 12280   0.433E-01    0.241E-01
DAV:   4    -0.191716615105E+03    0.38634E-03   -0.13069E-03 10200   0.274E-01    0.151E-01
DAV:   5    -0.191716492703E+03    0.12240E-03   -0.87300E-04  9240   0.225E-01    0.133E-01
DAV:   6    -0.191716366061E+03    0.12664E-03   -0.49024E-04  8400   0.169E-01    0.655E-02
DAV:   7    -0.191716344678E+03    0.21383E-04   -0.17458E-04  7040   0.109E-01
  34 F= -.19171634E+03 E0= -.19163527E+03  d E =0.414030E-02
       N       E                     dE             d eps       ncg     rms          rms(c)
DAV:   1    -0.191738466865E+03   -0.22101E-01   -0.16136E+00  8160   0.272E+00    0.280E-01
DAV:   2    -0.191743611161E+03   -0.51443E-02   -0.46514E-02 12160   0.792E-01    0.538E-01
DAV:   3    -0.191741689160E+03    0.19220E-02   -0.85923E-03 12280   0.726E-01    0.319E-01
DAV:   4    -0.191740973345E+03    0.71582E-03   -0.22574E-03 11000   0.340E-01    0.208E-01
DAV:   5    -0.191740699799E+03    0.27355E-03   -0.16010E-03 10320   0.320E-01    0.159E-01
DAV:   6    -0.191740580354E+03    0.11945E-03   -0.80962E-04 10000   0.197E-01    0.892E-02
DAV:   7    -0.191740453765E+03    0.12659E-03   -0.30338E-04  8200   0.996E-02    0.447E-02
DAV:   8    -0.191740435052E+03    0.18714E-04   -0.63785E-05  6800   0.714E-02
  35 F= -.19174044E+03 E0= -.19166149E+03  d E =-.240904E-01
       N       E                     dE             d eps       ncg     rms          rms(c)
DAV:   1    -0.191725820657E+03    0.14633E-01   -0.59383E-01  8160   0.166E+00    0.177E-01
DAV:   2    -0.191727093883E+03   -0.12732E-02   -0.15678E-02 12920   0.427E-01    0.265E-01
DAV:   3    -0.191726825862E+03    0.26802E-03   -0.27106E-03 11080   0.401E-01    0.232E-01
DAV:   4    -0.191726448053E+03    0.37781E-03   -0.12678E-03  9880   0.256E-01    0.142E-01
DAV:   5    -0.191726303150E+03    0.14490E-03   -0.70151E-04  8960   0.210E-01    0.100E-01
DAV:   6    -0.191726254404E+03    0.48746E-04   -0.35433E-04  8680   0.141E-01
  36 F= -.19172625E+03 E0= -.19164586E+03  d E =0.141806E-01
       N       E                     dE             d eps       ncg     rms          rms(c)
DAV:   1    -0.191736934744E+03   -0.10632E-01   -0.43839E-01  8160   0.146E+00    0.225E-01
DAV:   2    -0.191738732367E+03   -0.17976E-02   -0.19601E-02 12080   0.607E-01    0.431E-01
DAV:   3    -0.191737439766E+03    0.12926E-02   -0.54968E-03 12240   0.584E-01    0.252E-01
DAV:   4    -0.191736962388E+03    0.47738E-03   -0.18148E-03 10160   0.313E-01    0.190E-01
DAV:   5    -0.191736756218E+03    0.20617E-03   -0.12608E-03  9920   0.285E-01    0.143E-01
DAV:   6    -0.191736550506E+03    0.20571E-03   -0.63037E-04  9360   0.173E-01    0.704E-02
DAV:   7    -0.191736528425E+03    0.22081E-04   -0.23046E-04  8080   0.126E-01
  37 F= -.19173653E+03 E0= -.19165637E+03  d E =-.102740E-01
       N       E                     dE             d eps       ncg     rms          rms(c)
DAV:   1    -0.191754724767E+03   -0.18174E-01   -0.10666E+00  8160   0.221E+00    0.225E-01
DAV:   2    -0.191756736328E+03   -0.20116E-02   -0.28725E-02 12240   0.536E-01    0.255E-01
DAV:   3    -0.191757350868E+03   -0.61454E-03   -0.44265E-03 12400   0.528E-01    0.369E-01
DAV:   4    -0.191756013675E+03    0.13372E-02   -0.18381E-03 10360   0.352E-01    0.109E-01
DAV:   5    -0.191756137856E+03   -0.12418E-03   -0.88828E-04 10040   0.232E-01    0.155E-01
DAV:   6    -0.191755943464E+03    0.19439E-03   -0.65174E-04  9440   0.213E-01    0.798E-02
DAV:   7    -0.191755885975E+03    0.57489E-04   -0.18586E-04  6640   0.107E-01
  38 F= -.19175589E+03 E0= -.19167731E+03  d E =-.193576E-01
       N       E                     dE             d eps       ncg     rms          rms(c)
DAV:   1    -0.191770058143E+03   -0.14115E-01   -0.62569E-01  8160   0.168E+00    0.168E-01
DAV:   2    -0.191771333499E+03   -0.12754E-02   -0.17174E-02 12200   0.395E-01    0.192E-01
DAV:   3    -0.191771620828E+03   -0.28733E-03   -0.25268E-03 11280   0.386E-01    0.263E-01
DAV:   4    -0.191770979937E+03    0.64089E-03   -0.10586E-03 10440   0.261E-01    0.106E-01
DAV:   5    -0.191770936428E+03    0.43509E-04   -0.40226E-04  8400   0.171E-01
  39 F= -.19177094E+03 E0= -.19169337E+03  d E =-.150505E-01
       N       E                     dE             d eps       ncg     rms          rms(c)
DAV:   1    -0.191720186775E+03    0.50793E-01   -0.59956E+00  8160   0.522E+00    0.522E-01
DAV:   2    -0.191733874192E+03   -0.13687E-01   -0.16248E-01 11560   0.130E+00    0.753E-01
DAV:   3    -0.191733108211E+03    0.76598E-03   -0.27175E-02 12320   0.125E+00    0.780E-01
DAV:   4    -0.191727975507E+03    0.51327E-02   -0.12221E-02 11880   0.779E-01    0.322E-01
DAV:   5    -0.191727633317E+03    0.34219E-03   -0.41548E-03 10480   0.531E-01    0.323E-01
DAV:   6    -0.191726925652E+03    0.70766E-03   -0.34579E-03 11880   0.472E-01    0.186E-01
DAV:   7    -0.191726616469E+03    0.30918E-03   -0.15346E-03 10760   0.269E-01    0.134E-01
DAV:   8    -0.191726399636E+03    0.21683E-03   -0.39099E-04  9920   0.165E-01    0.402E-02
DAV:   9    -0.191726386066E+03    0.13570E-04   -0.65402E-05  6280   0.521E-02
  40 F= -.19172639E+03 E0= -.19164654E+03  d E =0.445504E-01
       N       E                     dE             d eps       ncg     rms          rms(c)
DAV:   1    -0.191751866606E+03   -0.25467E-01   -0.18117E+00  8160   0.293E+00    0.392E-01
DAV:   2    -0.191758525209E+03   -0.66586E-02   -0.62831E-02 12840   0.109E+00    0.805E-01
DAV:   3    -0.191753580150E+03    0.49451E-02   -0.16271E-02 11800   0.985E-01    0.389E-01
DAV:   4    -0.191753163951E+03    0.41620E-03   -0.55431E-03 11480   0.588E-01    0.395E-01
DAV:   5    -0.191751643093E+03    0.15209E-02   -0.37188E-03 11360   0.522E-01    0.192E-01
DAV:   6    -0.191751351238E+03    0.29185E-03   -0.16229E-03 10480   0.258E-01    0.129E-01
DAV:   7    -0.191751265111E+03    0.86128E-04   -0.69635E-04 10640   0.226E-01
  41 F= -.19175127E+03 E0= -.19167272E+03  d E =-.248790E-01
       N       E                     dE             d eps       ncg     rms          rms(c)
DAV:   1    -0.191763625569E+03   -0.12274E-01   -0.46496E-01  8160   0.147E+00    0.175E-01
DAV:   2    -0.191764365379E+03   -0.73981E-03   -0.14180E-02 11880   0.410E-01    0.183E-01
DAV:   3    -0.191764520142E+03   -0.15476E-03   -0.21677E-03 12320   0.376E-01    0.235E-01
DAV:   4    -0.191764027524E+03    0.49262E-03   -0.12224E-03 10160   0.289E-01    0.128E-01
DAV:   5    -0.191764047339E+03   -0.19815E-04   -0.66527E-04  9600   0.205E-01
  42 F= -.19176405E+03 E0= -.19168731E+03  d E =-.127822E-01
       N       E                     dE             d eps       ncg     rms          rms(c)
DAV:   1    -0.191787426315E+03   -0.23399E-01   -0.17827E+00  8160   0.285E+00    0.283E-01
DAV:   2    -0.191790321074E+03   -0.28948E-02   -0.43651E-02 12000   0.627E-01    0.283E-01
DAV:   3    -0.191791537952E+03   -0.12169E-02   -0.66679E-03 12480   0.651E-01    0.452E-01
DAV:   4    -0.191789385426E+03    0.21525E-02   -0.31129E-03 11240   0.464E-01    0.131E-01
DAV:   5    -0.191789792831E+03   -0.40740E-03   -0.12606E-03 10240   0.310E-01    0.236E-01
DAV:   6    -0.191789287679E+03    0.50515E-03   -0.10152E-03 10120   0.278E-01    0.765E-02
DAV:   7    -0.191789195814E+03    0.91865E-04   -0.15073E-04  6160   0.766E-02
  43 F= -.19178920E+03 E0= -.19171341E+03  d E =-.251485E-01
       N       E                     dE             d eps       ncg     rms          rms(c)
DAV:   1    -0.191793586129E+03   -0.42984E-02   -0.47066E-02  8160   0.477E-01    0.601E-02
DAV:   2    -0.191793649045E+03   -0.62916E-04   -0.15506E-03 12200   0.111E-01    0.553E-02
DAV:   3    -0.191793703241E+03   -0.54196E-04   -0.25802E-04  9280   0.129E-01
  44 F= -.19179370E+03 E0= -.19171823E+03  d E =-.450743E-02
       N       E                     dE             d eps       ncg     rms          rms(c)
DAV:   1    -0.191822107373E+03   -0.28458E-01   -0.20616E+00  8160   0.312E+00    0.401E-01
DAV:   2    -0.191826946683E+03   -0.48393E-02   -0.65714E-02 12840   0.103E+00    0.599E-01
DAV:   3    -0.191824324692E+03    0.26220E-02   -0.12895E-02 12240   0.947E-01    0.389E-01
DAV:   4    -0.191823351248E+03    0.97344E-03   -0.56241E-03 11840   0.563E-01    0.352E-01
DAV:   5    -0.191822548979E+03    0.80227E-03   -0.36361E-03 11880   0.516E-01    0.254E-01
DAV:   6    -0.191821988411E+03    0.56057E-03   -0.17504E-03 11040   0.311E-01    0.120E-01
DAV:   7    -0.191821943851E+03    0.44559E-04   -0.75802E-04  9600   0.222E-01
  45 F= -.19182194E+03 E0= -.19174689E+03  d E =-.282406E-01
       N       E                     dE             d eps       ncg     rms          rms(c)
DAV:   1    -0.191825694554E+03   -0.37061E-02   -0.15478E-01  8160   0.906E-01    0.258E-01
DAV:   2    -0.191830366978E+03   -0.46724E-02   -0.16651E-02 11320   0.913E-01    0.743E-01
DAV:   3    -0.191824481709E+03    0.58853E-02   -0.80519E-03 11360   0.791E-01    0.168E-01
DAV:   4    -0.191824555505E+03   -0.73796E-04   -0.16118E-03 10920   0.336E-01    0.218E-01
DAV:   5    -0.191824108916E+03    0.44659E-03   -0.12025E-03  9960   0.316E-01    0.119E-01
DAV:   6    -0.191823914637E+03    0.19428E-03   -0.51382E-04  9800   0.143E-01    0.426E-02
DAV:   7    -0.191823908763E+03    0.58742E-05   -0.75463E-05  6760   0.727E-02
  46 F= -.19182391E+03 E0= -.19174879E+03  d E =-.196491E-02
       N       E                     dE             d eps       ncg     rms          rms(c)
DAV:   1    -0.191849513031E+03   -0.25598E-01   -0.18530E+00  8160   0.291E+00    0.323E-01
DAV:   2    -0.191856186104E+03   -0.66731E-02   -0.52941E-02 12600   0.100E+00    0.676E-01
DAV:   3    -0.191852082507E+03    0.41036E-02   -0.11591E-02 12320   0.879E-01    0.292E-01
DAV:   4    -0.191851729349E+03    0.35316E-03   -0.28878E-03 11480   0.409E-01    0.265E-01
DAV:   5    -0.191851101994E+03    0.62736E-03   -0.17173E-03 10600   0.384E-01    0.160E-01
DAV:   6    -0.191851013939E+03    0.88055E-04   -0.11154E-03  9720   0.238E-01    0.119E-01
DAV:   7    -0.191850906809E+03    0.10713E-03   -0.60500E-04  9320   0.199E-01    0.938E-02
DAV:   8    -0.191850794373E+03    0.11244E-03   -0.13734E-04  6320   0.106E-01    0.172E-02
DAV:   9    -0.191850794556E+03   -0.18263E-06   -0.33704E-05  6200   0.244E-02
  47 F= -.19185079E+03 E0= -.19177597E+03  d E =-.268858E-01
       N       E                     dE             d eps       ncg     rms          rms(c)
DAV:   1    -0.191892562748E+03   -0.41768E-01   -0.61517E+00  8160   0.532E+00    0.557E-01
DAV:   2    -0.191908794440E+03   -0.16232E-01   -0.17921E-01 11920   0.154E+00    0.813E-01
DAV:   3    -0.191905166121E+03    0.36283E-02   -0.28558E-02 12360   0.140E+00    0.611E-01
DAV:   4    -0.191901229598E+03    0.39365E-02   -0.94071E-03 12320   0.728E-01    0.314E-01
DAV:   5    -0.191901046986E+03    0.18261E-03   -0.48939E-03 11600   0.582E-01    0.340E-01
DAV:   6    -0.191900482337E+03    0.56465E-03   -0.32629E-03 11680   0.480E-01    0.226E-01
DAV:   7    -0.191900057549E+03    0.42479E-03   -0.16568E-03 10400   0.335E-01    0.163E-01
DAV:   8    -0.191899733357E+03    0.32419E-03   -0.41812E-04  8800   0.175E-01    0.304E-02
DAV:   9    -0.191899729173E+03    0.41842E-05   -0.70859E-05  6560   0.354E-02
  48 F= -.19189973E+03 E0= -.19182452E+03  d E =-.489346E-01
       N       E                     dE             d eps       ncg     rms          rms(c)
DAV:   1    -0.191940864467E+03   -0.41131E-01   -0.75610E+00  8160   0.589E+00    0.628E-01
DAV:   2    -0.191964171778E+03   -0.23307E-01   -0.23415E-01 11800   0.182E+00    0.998E-01
DAV:   3    -0.191957314547E+03    0.68572E-02   -0.39552E-02 12160   0.165E+00    0.662E-01
DAV:   4    -0.191952488214E+03    0.48263E-02   -0.11215E-02 12240   0.761E-01    0.306E-01
DAV:   5    -0.191952309320E+03    0.17889E-03   -0.58903E-03 11160   0.583E-01    0.353E-01
DAV:   6    -0.191951857396E+03    0.45192E-03   -0.38314E-03 12080   0.541E-01    0.260E-01
DAV:   7    -0.191951206336E+03    0.65106E-03   -0.18627E-03 10840   0.353E-01    0.167E-01
DAV:   8    -0.191950888253E+03    0.31808E-03   -0.47170E-04  9560   0.188E-01    0.384E-02
DAV:   9    -0.191950876968E+03    0.11285E-04   -0.76815E-05  6280   0.451E-02
  49 F= -.19195088E+03 E0= -.19187490E+03  d E =-.511478E-01
       N       E                     dE             d eps       ncg     rms          rms(c)
DAV:   1    -0.191982073770E+03   -0.31186E-01   -0.45598E+00  8160   0.458E+00    0.517E-01
DAV:   2    -0.191998693104E+03   -0.16619E-01   -0.15649E-01 12160   0.157E+00    0.884E-01
DAV:   3    -0.191992341068E+03    0.63520E-02   -0.27357E-02 12120   0.139E+00    0.505E-01
DAV:   4    -0.191989542426E+03    0.27986E-02   -0.69260E-03 12200   0.594E-01    0.248E-01
DAV:   5    -0.191989319171E+03    0.22326E-03   -0.41065E-03 10800   0.472E-01    0.269E-01
DAV:   6    -0.191989041463E+03    0.27771E-03   -0.24581E-03 12080   0.415E-01    0.191E-01
DAV:   7    -0.191988629912E+03    0.41155E-03   -0.99962E-04 10000   0.255E-01    0.124E-01
DAV:   8    -0.191988468797E+03    0.16111E-03   -0.28845E-04  8600   0.143E-01    0.334E-02
DAV:   9    -0.191988460360E+03    0.84367E-05   -0.46757E-05  6560   0.366E-02
  50 F= -.19198846E+03 E0= -.19191177E+03  d E =-.375834E-01
       N       E                     dE             d eps       ncg     rms          rms(c)
DAV:   1    -0.192017515344E+03   -0.29047E-01   -0.47717E+00  8160   0.467E+00    0.520E-01
DAV:   2    -0.192034426155E+03   -0.16911E-01   -0.15502E-01 11800   0.155E+00    0.900E-01
DAV:   3    -0.192027872844E+03    0.65533E-02   -0.28743E-02 12240   0.143E+00    0.522E-01
DAV:   4    -0.192024747835E+03    0.31250E-02   -0.67340E-03 12200   0.570E-01    0.214E-01
DAV:   5    -0.192024668213E+03    0.79622E-04   -0.36090E-03 11000   0.400E-01    0.254E-01
DAV:   6    -0.192024594907E+03    0.73306E-04   -0.23773E-03 12000   0.438E-01    0.222E-01
DAV:   7    -0.192024033238E+03    0.56167E-03   -0.10286E-03 10240   0.272E-01    0.104E-01
DAV:   8    -0.192023927538E+03    0.10570E-03   -0.25473E-04  8200   0.134E-01    0.371E-02
DAV:   9    -0.192023913399E+03    0.14140E-04   -0.48756E-05  7720   0.463E-02
  51 F= -.19202391E+03 E0= -.19194715E+03  d E =-.354530E-01
       N       E                     dE             d eps       ncg     rms          rms(c)
DAV:   1    -0.192034529199E+03   -0.10602E-01   -0.44261E-01  8160   0.144E+00    0.185E-01
DAV:   2    -0.192036591704E+03   -0.20625E-02   -0.16652E-02 10600   0.595E-01    0.363E-01
DAV:   3    -0.192035250889E+03    0.13408E-02   -0.35876E-03 12160   0.513E-01    0.151E-01
DAV:   4    -0.192035054465E+03    0.19642E-03   -0.75464E-04  9160   0.200E-01    0.102E-01
DAV:   5    -0.192035005653E+03    0.48812E-04   -0.55132E-04  9960   0.193E-01
  52 F= -.19203501E+03 E0= -.19195815E+03  d E =-.110923E-01
       N       E                     dE             d eps       ncg     rms          rms(c)
DAV:   1    -0.192013624990E+03    0.21429E-01   -0.19553E+00  8160   0.305E+00    0.430E-01
DAV:   2    -0.192024161404E+03   -0.10536E-01   -0.72503E-02 12360   0.137E+00    0.923E-01
DAV:   3    -0.192014981445E+03    0.91800E-02   -0.21421E-02 12320   0.124E+00    0.341E-01
DAV:   4    -0.192014265550E+03    0.71590E-03   -0.49912E-03 11560   0.476E-01    0.280E-01
DAV:   5    -0.192013679010E+03    0.58654E-03   -0.28426E-03 11880   0.479E-01    0.229E-01
DAV:   6    -0.192013306564E+03    0.37245E-03   -0.14105E-03 11600   0.313E-01    0.128E-01
DAV:   7    -0.192013203959E+03    0.10261E-03   -0.66819E-04 10040   0.212E-01    0.100E-01
DAV:   8    -0.192013077685E+03    0.12627E-03   -0.19288E-04  8840   0.121E-01    0.249E-02
DAV:   9    -0.192013077018E+03    0.66613E-06   -0.34375E-05  6440   0.296E-02
  53 F= -.19201308E+03 E0= -.19193640E+03  d E =0.219286E-01
       N       E                     dE             d eps       ncg     rms          rms(c)
DAV:   1    -0.192050222227E+03   -0.37145E-01   -0.52115E+00  8160   0.498E+00    0.683E-01
DAV:   2    -0.192077070227E+03   -0.26848E-01   -0.18953E-01 12280   0.217E+00    0.148E+00
DAV:   3    -0.192054729125E+03    0.22341E-01   -0.55250E-02 12240   0.198E+00    0.513E-01
DAV:   4    -0.192052186016E+03    0.25431E-02   -0.10412E-02 12240   0.685E-01    0.379E-01
DAV:   5    -0.192051503495E+03    0.68252E-03   -0.69270E-03 11160   0.719E-01    0.364E-01
DAV:   6    -0.192050503467E+03    0.10000E-02   -0.34214E-03 11680   0.487E-01    0.200E-01
DAV:   7    -0.192050187256E+03    0.31621E-03   -0.13999E-03 10440   0.323E-01    0.154E-01
DAV:   8    -0.192049901911E+03    0.28535E-03   -0.40244E-04  9760   0.172E-01    0.344E-02
DAV:   9    -0.192049887847E+03    0.14064E-04   -0.72185E-05  6480   0.366E-02
  54 F= -.19204989E+03 E0= -.19197313E+03  d E =-.368108E-01
       N       E                     dE             d eps       ncg     rms          rms(c)
DAV:   1    -0.192051777921E+03   -0.18760E-02   -0.52546E-02  8160   0.523E-01    0.113E-01
DAV:   2    -0.192051824519E+03   -0.46599E-04   -0.28422E-03 11120   0.257E-01    0.168E-01
DAV:   3    -0.192051606477E+03    0.21804E-03   -0.96355E-04 10080   0.266E-01    0.108E-01
DAV:   4    -0.192051517452E+03    0.89025E-04   -0.43145E-04  8560   0.168E-01
  55 F= -.19205152E+03 E0= -.19197506E+03  d E =-.162961E-02
       N       E                     dE             d eps       ncg     rms          rms(c)
DAV:   1    -0.192067410138E+03   -0.15804E-01   -0.11315E+00  8160   0.229E+00    0.276E-01
DAV:   2    -0.192072260681E+03   -0.48505E-02   -0.36194E-02 11640   0.827E-01    0.550E-01
DAV:   3    -0.192069212133E+03    0.30485E-02   -0.80506E-03 12280   0.792E-01    0.236E-01
DAV:   4    -0.192068647164E+03    0.56497E-03   -0.13811E-03 10640   0.264E-01    0.121E-01
DAV:   5    -0.192068669836E+03   -0.22673E-04   -0.92856E-04 10680   0.249E-01
  56 F= -.19206867E+03 E0= -.19199264E+03  d E =-.171524E-01
       N       E                     dE             d eps       ncg     rms          rms(c)
DAV:   1    -0.192068396451E+03    0.25071E-03   -0.26151E-03 11440   0.218E-01    0.632E-02
DAV:   2    -0.192068793319E+03   -0.39687E-03   -0.97902E-04 10440   0.234E-01    0.170E-01
DAV:   3    -0.192068358891E+03    0.43443E-03   -0.50433E-04  9880   0.217E-01    0.560E-02
DAV:   4    -0.192068325497E+03    0.33394E-04   -0.81565E-05  5720   0.649E-02
  57 F= -.19206833E+03 E0= -.19199249E+03  d E =0.344339E-03
       N       E                     dE             d eps       ncg     rms          rms(c)
DAV:   1    -0.192081195638E+03   -0.12837E-01   -0.81506E-01  8160   0.195E+00    0.233E-01
DAV:   2    -0.192083199165E+03   -0.20035E-02   -0.25389E-02 11400   0.530E-01    0.300E-01
DAV:   3    -0.192082973542E+03    0.22562E-03   -0.41384E-03 12440   0.579E-01    0.286E-01
DAV:   4    -0.192082100914E+03    0.87263E-03   -0.12572E-03 10600   0.318E-01    0.108E-01
DAV:   5    -0.192082127395E+03   -0.26482E-04   -0.70148E-04  9520   0.218E-01
  58 F= -.19208213E+03 E0= -.19200689E+03  d E =-.138019E-01
       N       E                     dE             d eps       ncg     rms          rms(c)
DAV:   1    -0.192073856329E+03    0.82446E-02   -0.43042E-01  8160   0.144E+00    0.231E-01
DAV:   2    -0.192076959466E+03   -0.31031E-02   -0.21188E-02 12120   0.716E-01    0.518E-01
DAV:   3    -0.192074220273E+03    0.27392E-02   -0.69291E-03 11920   0.690E-01    0.203E-01
DAV:   4    -0.192073806742E+03    0.41353E-03   -0.12929E-03 10440   0.251E-01    0.111E-01
DAV:   5    -0.192073634843E+03    0.17190E-03   -0.59375E-04 10480   0.152E-01    0.863E-02
DAV:   6    -0.192073622165E+03    0.12678E-04   -0.37661E-04  9200   0.172E-01
  59 F= -.19207362E+03 E0= -.19199771E+03  d E =0.850523E-02
       N       E                     dE             d eps       ncg     rms          rms(c)
DAV:   1    -0.192086514848E+03   -0.12880E-01   -0.76230E-01  8160   0.188E+00    0.219E-01
DAV:   2    -0.192089559135E+03   -0.30443E-02   -0.23848E-02 12200   0.701E-01    0.433E-01
DAV:   3    -0.192087717117E+03    0.18420E-02   -0.47431E-03 12360   0.619E-01    0.183E-01
DAV:   4    -0.192087304699E+03    0.41242E-03   -0.73164E-04  9960   0.193E-01    0.725E-02
DAV:   5    -0.192087365940E+03   -0.61241E-04   -0.46245E-04  9400   0.153E-01
  60 F= -.19208737E+03 E0= -.19201178E+03  d E =-.137438E-01
       N       E                     dE             d eps       ncg     rms          rms(c)
DAV:   1    -0.192085879420E+03    0.14253E-02   -0.17141E-02  9920   0.333E-01    0.744E-02
DAV:   2    -0.192086688531E+03   -0.80911E-03   -0.20607E-03 11680   0.346E-01    0.253E-01
DAV:   3    -0.192085850445E+03    0.83809E-03   -0.10231E-03 10240   0.295E-01    0.469E-02
DAV:   4    -0.192085835518E+03    0.14927E-04   -0.60507E-05  5640   0.659E-02
  61 F= -.19208584E+03 E0= -.19201038E+03  d E =0.153042E-02
       N       E                     dE             d eps       ncg     rms          rms(c)
DAV:   1    -0.192099594430E+03   -0.13744E-01   -0.84337E-01  8160   0.198E+00    0.233E-01
DAV:   2    -0.192102212367E+03   -0.26179E-02   -0.25391E-02 11200   0.623E-01    0.384E-01
DAV:   3    -0.192101045571E+03    0.11668E-02   -0.50276E-03 12480   0.629E-01    0.235E-01
DAV:   4    -0.192100364244E+03    0.68133E-03   -0.94271E-04  9880   0.234E-01    0.681E-02
DAV:   5    -0.192100406362E+03   -0.42117E-04   -0.42570E-04  9240   0.110E-01
  62 F= -.19210041E+03 E0= -.19202584E+03  d E =-.145708E-01
       N       E                     dE             d eps       ncg     rms          rms(c)
DAV:   1    -0.192102661016E+03   -0.22968E-02   -0.26211E-02  8280   0.446E-01    0.105E-01
DAV:   2    -0.192102907720E+03   -0.24670E-03   -0.21454E-03 12400   0.278E-01    0.188E-01
DAV:   3    -0.192102482996E+03    0.42472E-03   -0.10672E-03 10960   0.292E-01    0.929E-02
DAV:   4    -0.192102406666E+03    0.76331E-04   -0.26838E-04  8520   0.121E-01
  63 F= -.19210241E+03 E0= -.19202750E+03  d E =-.200030E-02
       N       E                     dE             d eps       ncg     rms          rms(c)
DAV:   1    -0.192118012397E+03   -0.15529E-01   -0.98540E-01  8160   0.217E+00    0.339E-01
DAV:   2    -0.192123693613E+03   -0.56812E-02   -0.41166E-02 11280   0.107E+00    0.714E-01
DAV:   3    -0.192118323417E+03    0.53702E-02   -0.12132E-02 11880   0.964E-01    0.248E-01
DAV:   4    -0.192117689188E+03    0.63423E-03   -0.23283E-03 12280   0.348E-01    0.181E-01
DAV:   5    -0.192117576948E+03    0.11224E-03   -0.17022E-03 10680   0.361E-01    0.176E-01
DAV:   6    -0.192117236785E+03    0.34016E-03   -0.81271E-04  9960   0.220E-01    0.671E-02
DAV:   7    -0.192117229359E+03    0.74261E-05   -0.19089E-04  8400   0.128E-01
  64 F= -.19211723E+03 E0= -.19204274E+03  d E =-.148227E-01
       N       E                     dE             d eps       ncg     rms          rms(c)
DAV:   1    -0.192123191955E+03   -0.59552E-02   -0.15846E-01  8160   0.880E-01    0.158E-01
DAV:   2    -0.192123841489E+03   -0.64953E-03   -0.73376E-03 11360   0.432E-01    0.277E-01
DAV:   3    -0.192123092467E+03    0.74902E-03   -0.21931E-03 12280   0.421E-01    0.135E-01
DAV:   4    -0.192122899405E+03    0.19306E-03   -0.52077E-04  8480   0.192E-01    0.847E-02
DAV:   5    -0.192122911429E+03   -0.12023E-04   -0.39648E-04  9240   0.180E-01
  65 F= -.19212291E+03 E0= -.19204897E+03  d E =-.568207E-02
       N       E                     dE             d eps       ncg     rms          rms(c)
DAV:   1    -0.192136534443E+03   -0.13635E-01   -0.11175E+00  8160   0.227E+00    0.291E-01
DAV:   2    -0.192142212723E+03   -0.56783E-02   -0.37947E-02 12080   0.958E-01    0.628E-01
DAV:   3    -0.192138002710E+03    0.42100E-02   -0.92482E-03 12440   0.866E-01    0.216E-01
DAV:   4    -0.192137411600E+03    0.59111E-03   -0.10245E-03  9920   0.215E-01    0.889E-02
DAV:   5    -0.192137608315E+03   -0.19671E-03   -0.71833E-04 11200   0.228E-01    0.150E-01
DAV:   6    -0.192137353974E+03    0.25434E-03   -0.53059E-04  8680   0.210E-01    0.492E-02
DAV:   7    -0.192137317793E+03    0.36181E-04   -0.86823E-05  6880   0.650E-02
  66 F= -.19213732E+03 E0= -.19206423E+03  d E =-.144064E-01
       N       E                     dE             d eps       ncg     rms          rms(c)
DAV:   1    -0.192143289595E+03   -0.59356E-02   -0.19760E-01  8160   0.977E-01    0.144E-01
DAV:   2    -0.192143887216E+03   -0.59762E-03   -0.84342E-03 10920   0.362E-01    0.208E-01
DAV:   3    -0.192143603453E+03    0.28376E-03   -0.15976E-03 12240   0.359E-01    0.149E-01
DAV:   4    -0.192143328223E+03    0.27523E-03   -0.43775E-04  8600   0.180E-01    0.638E-02
DAV:   5    -0.192143347392E+03   -0.19170E-04   -0.28615E-04  8080   0.144E-01
  67 F= -.19214335E+03 E0= -.19207015E+03  d E =-.602960E-02
       N       E                     dE             d eps       ncg     rms          rms(c)
DAV:   1    -0.192158643935E+03   -0.15316E-01   -0.18770E+00  8160   0.297E+00    0.410E-01
DAV:   2    -0.192166391137E+03   -0.77472E-02   -0.69948E-02 11200   0.119E+00    0.757E-01
DAV:   3    -0.192160968362E+03    0.54228E-02   -0.15950E-02 12360   0.111E+00    0.340E-01
DAV:   4    -0.192159261292E+03    0.17071E-02   -0.27100E-03 12280   0.369E-01    0.129E-01
DAV:   5    -0.192159690794E+03   -0.42950E-03   -0.20042E-03 12040   0.360E-01    0.230E-01
DAV:   6    -0.192159066110E+03    0.62468E-03   -0.12556E-03 10960   0.309E-01    0.663E-02
DAV:   7    -0.192159004139E+03    0.61971E-04   -0.11232E-04  6760   0.847E-02
  68 F= -.19215900E+03 E0= -.19208609E+03  d E =-.156567E-01
       N       E                     dE             d eps       ncg     rms          rms(c)
DAV:   1    -0.192160721108E+03   -0.16550E-02   -0.44068E-02  8240   0.518E-01    0.150E-01
DAV:   2    -0.192160396965E+03    0.32414E-03   -0.30627E-03 11600   0.279E-01    0.183E-01
DAV:   3    -0.192160191247E+03    0.20572E-03   -0.14241E-03 11080   0.337E-01    0.138E-01
DAV:   4    -0.192159943563E+03    0.24768E-03   -0.70382E-04 10040   0.200E-01    0.821E-02
DAV:   5    -0.192159957843E+03   -0.14280E-04   -0.43317E-04  8920   0.173E-01
  69 F= -.19215996E+03 E0= -.19208742E+03  d E =-.953704E-03
       N       E                     dE             d eps       ncg     rms          rms(c)
DAV:   1    -0.192165310803E+03   -0.53672E-02   -0.36197E-01  8160   0.129E+00    0.151E-01
DAV:   2    -0.192166510930E+03   -0.12001E-02   -0.13756E-02 10160   0.386E-01    0.202E-01
DAV:   3    -0.192166380952E+03    0.12998E-03   -0.18717E-03 12480   0.391E-01    0.183E-01
DAV:   4    -0.192165978407E+03    0.40254E-03   -0.46074E-04  9040   0.192E-01    0.476E-02
DAV:   5    -0.192165996421E+03   -0.18013E-04   -0.14666E-04  6000   0.800E-02
  70 F= -.19216600E+03 E0= -.19209371E+03  d E =-.603858E-02
       N       E                     dE             d eps       ncg     rms          rms(c)
DAV:   1    -0.192170000709E+03   -0.40223E-02   -0.20406E-01  8160   0.984E-01    0.161E-01
DAV:   2    -0.192172722213E+03   -0.27215E-02   -0.12004E-02 12040   0.663E-01    0.462E-01
DAV:   3    -0.192170191841E+03    0.25304E-02   -0.39964E-03 12120   0.556E-01    0.820E-02
DAV:   4    -0.192170106920E+03    0.84921E-04   -0.15858E-04  6040   0.826E-02
  71 F= -.19217011E+03 E0= -.19209780E+03  d E =-.411050E-02
       N       E                     dE             d eps       ncg     rms          rms(c)
DAV:   1    -0.192178535010E+03   -0.83432E-02   -0.33529E+00  8160   0.394E+00    0.501E-01
DAV:   2    -0.192190605717E+03   -0.12071E-01   -0.12897E-01 11160   0.139E+00    0.799E-01
DAV:   3    -0.192185662077E+03    0.49436E-02   -0.23672E-02 12440   0.131E+00    0.486E-01
DAV:   4    -0.192182517023E+03    0.31451E-02   -0.56455E-03 12200   0.549E-01    0.179E-01
DAV:   5    -0.192182782903E+03   -0.26588E-03   -0.32154E-03 11640   0.394E-01    0.256E-01
DAV:   6    -0.192182325655E+03    0.45725E-03   -0.20624E-03 11800   0.414E-01    0.161E-01
DAV:   7    -0.192181962315E+03    0.36334E-03   -0.53529E-04  9360   0.194E-01    0.635E-02
DAV:   8    -0.192181933737E+03    0.28578E-04   -0.13500E-04  7400   0.985E-02
  72 F= -.19218193E+03 E0= -.19210943E+03  d E =-.118268E-01
       N       E                     dE             d eps       ncg     rms          rms(c)
DAV:   1    -0.192180610122E+03    0.13522E-02   -0.31373E-01  8160   0.125E+00    0.218E-01
DAV:   2    -0.192181732105E+03   -0.11220E-02   -0.13829E-02 10880   0.581E-01    0.376E-01
DAV:   3    -0.192180290971E+03    0.14411E-02   -0.36953E-03 12200   0.551E-01    0.176E-01
DAV:   4    -0.192179906793E+03    0.38418E-03   -0.12469E-03 10000   0.252E-01    0.109E-01
DAV:   5    -0.192179855389E+03    0.51404E-04   -0.77977E-04 10280   0.224E-01
  73 F= -.19217986E+03 E0= -.19210784E+03  d E =0.207835E-02
       N       E                     dE             d eps       ncg     rms          rms(c)
DAV:   1    -0.192180801624E+03   -0.89483E-03   -0.72620E-02  8160   0.584E-01    0.110E-01
DAV:   2    -0.192181069837E+03   -0.26821E-03   -0.41132E-03 11000   0.280E-01    0.163E-01
DAV:   3    -0.192180799949E+03    0.26989E-03   -0.92073E-04 10800   0.266E-01    0.992E-02
DAV:   4    -0.192180718527E+03    0.81422E-04   -0.37127E-04  8840   0.152E-01
  74 F= -.19218072E+03 E0= -.19210885E+03  d E =-.863138E-03
       N       E                     dE             d eps       ncg     rms          rms(c)
DAV:   1    -0.192182078044E+03   -0.12781E-02   -0.66993E-02  8160   0.564E-01    0.844E-02
DAV:   2    -0.192182762292E+03   -0.68425E-03   -0.33089E-03 11520   0.334E-01    0.223E-01
DAV:   3    -0.192182161362E+03    0.60093E-03   -0.98214E-04 10480   0.277E-01    0.500E-02
DAV:   4    -0.192182167291E+03   -0.59290E-05   -0.11712E-04  6240   0.874E-02
  75 F= -.19218217E+03 E0= -.19211027E+03  d E =-.144876E-02
       N       E                     dE             d eps       ncg     rms          rms(c)
DAV:   1    -0.192182959383E+03   -0.79802E-03   -0.26717E-02  8160   0.380E-01    0.684E-02
DAV:   2    -0.192183107974E+03   -0.14859E-03   -0.13913E-03 12760   0.174E-01    0.116E-01
DAV:   3    -0.192182963201E+03    0.14477E-03   -0.39834E-04  9880   0.180E-01    0.651E-02
DAV:   4    -0.192182924341E+03    0.38860E-04   -0.11744E-04  6160   0.841E-02
  76 F= -.19218292E+03 E0= -.19211087E+03  d E =-.757049E-03
       N       E                     dE             d eps       ncg     rms          rms(c)
DAV:   1    -0.192184354898E+03   -0.13917E-02   -0.11048E-01  8160   0.712E-01    0.983E-02
DAV:   2    -0.192184949354E+03   -0.59446E-03   -0.43733E-03 11200   0.296E-01    0.201E-01
DAV:   3    -0.192184507102E+03    0.44225E-03   -0.10348E-03 10960   0.281E-01    0.761E-02
DAV:   4    -0.192184454450E+03    0.52651E-04   -0.16725E-04  6520   0.948E-02
  77 F= -.19218445E+03 E0= -.19211235E+03  d E =-.153011E-02
       N       E                     dE             d eps       ncg     rms          rms(c)
DAV:   1    -0.192185902490E+03   -0.13954E-02   -0.16579E-01  8160   0.874E-01    0.116E-01
DAV:   2    -0.192186749547E+03   -0.84706E-03   -0.66526E-03 11680   0.337E-01    0.211E-01
DAV:   3    -0.192186242228E+03    0.50732E-03   -0.12523E-03 11360   0.312E-01    0.930E-02
DAV:   4    -0.192186197094E+03    0.45134E-04   -0.27097E-04  8560   0.128E-01
  78 F= -.19218620E+03 E0= -.19211391E+03  d E =-.174264E-02
       N       E                     dE             d eps       ncg     rms          rms(c)
DAV:   1    -0.192187120247E+03   -0.87802E-03   -0.80061E-02  8160   0.612E-01    0.938E-02
DAV:   2    -0.192187484119E+03   -0.36387E-03   -0.27596E-03 12120   0.241E-01    0.173E-01
DAV:   3    -0.192187168739E+03    0.31538E-03   -0.80872E-04 10560   0.253E-01    0.805E-02
DAV:   4    -0.192187122717E+03    0.46022E-04   -0.22316E-04  7360   0.104E-01
  79 F= -.19218712E+03 E0= -.19211479E+03  d E =-.925623E-03
       N       E                     dE             d eps       ncg     rms          rms(c)
DAV:   1    -0.192187680064E+03   -0.51133E-03   -0.25410E-02  8160   0.348E-01    0.727E-02
DAV:   2    -0.192188303504E+03   -0.62344E-03   -0.17508E-03 12240   0.320E-01    0.221E-01
DAV:   3    -0.192187653802E+03    0.64970E-03   -0.70655E-04 10600   0.256E-01    0.316E-02
DAV:   4    -0.192187685992E+03   -0.32190E-04   -0.64085E-05  5600   0.777E-02
  80 F= -.19218769E+03 E0= -.19211530E+03  d E =-.563275E-03
