<?xml version="1.0" encoding="ISO-8859-1"?>
<modeling>
 <generator>
  <i name="program" type="string">vasp </i>
  <i name="version" type="string">5.4.1  </i>
  <i name="subversion" type="string">05Feb16 (build Jul 05 2020 17:13:04) complex                          parallel </i>
  <i name="platform" type="string">IFC91_ompi </i>
  <i name="date" type="string">2024 04 26 </i>
  <i name="time" type="string">02:08:25 </i>
 </generator>
 <incar>
  <i type="int" name="ISTART">     0</i>
  <i type="string" name="PREC">normal</i>
  <i type="string" name="ALGO"> Normal</i>
  <i type="int" name="ISPIN">     1</i>
  <i type="int" name="ICHARG">     2</i>
  <i type="int" name="IBRION">     1</i>
  <i type="int" name="NSW">   100</i>
  <i type="int" name="ISIF">     3</i>
  <i type="int" name="ISYM">     0</i>
  <i name="SYMPREC">      0.00000001</i>
  <i name="POTIM">      0.50000000</i>
  <i type="logical" name="LREAL"> F  </i>
  <i type="logical" name="LPLANE"> F  </i>
  <i type="int" name="ISMEAR">     0</i>
  <i type="logical" name="LWAVE"> F  </i>
  <i type="logical" name="LCHARG"> F  </i>
  <v type="int" name="KPOINT_BSE">    -1     0     0     0</v>
 </incar>
 <kpoints>
  <generation param="Gamma">
   <v type="int" name="divisions">       8        8        1 </v>
   <v name="usershift">      0.00000000       0.00000000       0.00000000 </v>
   <v name="genvec1">      0.12500000       0.00000000       0.00000000 </v>
   <v name="genvec2">     -0.00000000       0.12500000       0.00000000 </v>
   <v name="genvec3">      0.00000000       0.00000000       1.00000000 </v>
   <v name="shift">      0.00000000       0.00000000       0.00000000 </v>
  </generation>
  <varray name="kpointlist" >
   <v>       0.00000000       0.00000000       0.00000000 </v>
   <v>       0.12500000       0.00000000       0.00000000 </v>
   <v>       0.25000000       0.00000000       0.00000000 </v>
   <v>       0.37500000       0.00000000       0.00000000 </v>
   <v>       0.50000000       0.00000000       0.00000000 </v>
   <v>       0.00000000       0.12500000       0.00000000 </v>
   <v>       0.12500000       0.12500000       0.00000000 </v>
   <v>       0.25000000       0.12500000       0.00000000 </v>
   <v>       0.37500000       0.12500000       0.00000000 </v>
   <v>       0.50000000       0.12500000       0.00000000 </v>
   <v>      -0.37500000       0.12500000       0.00000000 </v>
   <v>      -0.25000000       0.12500000       0.00000000 </v>
   <v>      -0.12500000       0.12500000       0.00000000 </v>
   <v>       0.00000000       0.25000000       0.00000000 </v>
   <v>       0.12500000       0.25000000       0.00000000 </v>
   <v>       0.25000000       0.25000000       0.00000000 </v>
   <v>       0.37500000       0.25000000       0.00000000 </v>
   <v>       0.50000000       0.25000000       0.00000000 </v>
   <v>      -0.37500000       0.25000000       0.00000000 </v>
   <v>      -0.25000000       0.25000000       0.00000000 </v>
   <v>      -0.12500000       0.25000000       0.00000000 </v>
   <v>      -0.00000000       0.37500000       0.00000000 </v>
   <v>       0.12500000       0.37500000       0.00000000 </v>
   <v>       0.25000000       0.37500000       0.00000000 </v>
   <v>       0.37500000       0.37500000       0.00000000 </v>
   <v>       0.50000000       0.37500000       0.00000000 </v>
   <v>      -0.37500000       0.37500000       0.00000000 </v>
   <v>      -0.25000000       0.37500000       0.00000000 </v>
   <v>      -0.12500000       0.37500000       0.00000000 </v>
   <v>       0.00000000       0.50000000       0.00000000 </v>
   <v>       0.12500000       0.50000000       0.00000000 </v>
   <v>       0.25000000       0.50000000       0.00000000 </v>
   <v>       0.37500000       0.50000000       0.00000000 </v>
   <v>       0.50000000       0.50000000       0.00000000 </v>
  </varray>
  <varray name="weights" >
   <v>       0.01562500 </v>
   <v>       0.03125000 </v>
   <v>       0.03125000 </v>
   <v>       0.03125000 </v>
   <v>       0.01562500 </v>
   <v>       0.03125000 </v>
   <v>       0.03125000 </v>
   <v>       0.03125000 </v>
   <v>       0.03125000 </v>
   <v>       0.03125000 </v>
   <v>       0.03125000 </v>
   <v>       0.03125000 </v>
   <v>       0.03125000 </v>
   <v>       0.03125000 </v>
   <v>       0.03125000 </v>
   <v>       0.03125000 </v>
   <v>       0.03125000 </v>
   <v>       0.03125000 </v>
   <v>       0.03125000 </v>
   <v>       0.03125000 </v>
   <v>       0.03125000 </v>
   <v>       0.03125000 </v>
   <v>       0.03125000 </v>
   <v>       0.03125000 </v>
   <v>       0.03125000 </v>
   <v>       0.03125000 </v>
   <v>       0.03125000 </v>
   <v>       0.03125000 </v>
   <v>       0.03125000 </v>
   <v>       0.01562500 </v>
   <v>       0.03125000 </v>
   <v>       0.03125000 </v>
   <v>       0.03125000 </v>
   <v>       0.01562500 </v>
  </varray>
 </kpoints>
 <parameters>
  <separator name="general" >
   <i type="string" name="SYSTEM">unknown system</i>
   <i type="logical" name="LCOMPAT"> F  </i>
  </separator>
  <separator name="electronic" >
   <i type="string" name="PREC">normal</i>
   <i name="ENMAX">    280.00000000</i>
   <i name="ENAUG">    373.43800000</i>
   <i name="EDIFF">      0.00010000</i>
   <i type="int" name="IALGO">    38</i>
   <i type="int" name="IWAVPR">    11</i>
   <i type="int" name="NBANDS">   120</i>
   <i name="NELECT">    159.00000000</i>
   <i type="int" name="TURBO">     0</i>
   <i type="int" name="IRESTART">     0</i>
   <i type="int" name="NREBOOT">     0</i>
   <i type="int" name="NMIN">     0</i>
   <i name="EREF">      0.00000000</i>
   <separator name="electronic smearing" >
    <i type="int" name="ISMEAR">     0</i>
    <i name="SIGMA">      0.20000000</i>
    <i name="KSPACING">      0.50000000</i>
    <i type="logical" name="KGAMMA"> T  </i>
   </separator>
   <separator name="electronic projectors" >
    <i type="logical" name="LREAL"> F  </i>
    <v name="ROPT">      0.00000000      0.00000000      0.00000000      0.00000000</v>
    <i type="int" name="LMAXPAW">  -100</i>
    <i type="int" name="LMAXMIX">     2</i>
    <i type="logical" name="NLSPLINE"> F  </i>
   </separator>
   <separator name="electronic startup" >
    <i type="int" name="ISTART">     0</i>
    <i type="int" name="ICHARG">     2</i>
    <i type="int" name="INIWAV">     1</i>
   </separator>
   <separator name="electronic spin" >
    <i type="int" name="ISPIN">     1</i>
    <i type="logical" name="LNONCOLLINEAR"> F  </i>
    <v name="MAGMOM">      1.00000000      1.00000000      1.00000000      1.00000000      1.00000000      1.00000000      1.00000000      1.00000000      1.00000000      1.00000000      1.00000000      1.00000000      1.00000000      1.00000000      1.00000000      1.00000000      1.00000000      1.00000000      1.00000000      1.00000000
      1.00000000      1.00000000      1.00000000      1.00000000      1.00000000      1.00000000      1.00000000</v>
    <i name="NUPDOWN">     -1.00000000</i>
    <i type="logical" name="LSORBIT"> F  </i>
    <v name="SAXIS">      0.00000000      0.00000000      1.00000000</v>
    <i type="logical" name="LSPIRAL"> F  </i>
    <v name="QSPIRAL">      0.00000000      0.00000000      0.00000000</v>
    <i type="logical" name="LZEROZ"> F  </i>
   </separator>
   <separator name="electronic exchange-correlation" >
    <i type="logical" name="LASPH"> F  </i>
    <i type="logical" name="LMETAGGA"> F  </i>
   </separator>
   <separator name="electronic convergence" >
    <i type="int" name="NELM">    60</i>
    <i type="int" name="NELMDL">    -5</i>
    <i type="int" name="NELMIN">     2</i>
    <i name="ENINI">    280.00000000</i>
    <separator name="electronic convergence detail" >
     <i type="logical" name="LDIAG"> T  </i>
     <i type="logical" name="LSUBROT"> F  </i>
     <i name="WEIMIN">      0.00100000</i>
     <i name="EBREAK">      0.00000021</i>
     <i name="DEPER">      0.30000000</i>
     <i type="int" name="NRMM">     4</i>
     <i name="TIME">      0.40000000</i>
    </separator>
   </separator>
   <separator name="electronic mixer" >
    <i name="AMIX">      0.40000000</i>
    <i name="BMIX">      1.00000000</i>
    <i name="AMIN">      0.10000000</i>
    <i name="AMIX_MAG">      1.60000000</i>
    <i name="BMIX_MAG">      1.00000000</i>
    <separator name="electronic mixer details" >
     <i type="int" name="IMIX">     4</i>
     <i type="logical" name="MIXFIRST"> F  </i>
     <i type="int" name="MAXMIX">   -45</i>
     <i name="WC">    100.00000000</i>
     <i type="int" name="INIMIX">     1</i>
     <i type="int" name="MIXPRE">     1</i>
     <i type="int" name="MREMOVE">     5</i>
    </separator>
   </separator>
   <separator name="electronic dipolcorrection" >
    <i type="logical" name="LDIPOL"> F  </i>
    <i type="logical" name="LMONO"> F  </i>
    <i type="int" name="IDIPOL">     0</i>
    <i name="EPSILON">      1.00000000</i>
    <v name="DIPOL">   -100.00000000   -100.00000000   -100.00000000</v>
    <i name="EFIELD">      0.00000000</i>
   </separator>
  </separator>
  <separator name="grids" >
   <i type="int" name="NGX">    42</i>
   <i type="int" name="NGY">    42</i>
   <i type="int" name="NGZ">   126</i>
   <i type="int" name="NGXF">    84</i>
   <i type="int" name="NGYF">    84</i>
   <i type="int" name="NGZF">   252</i>
   <i type="logical" name="ADDGRID"> F  </i>
  </separator>
  <separator name="ionic" >
   <i type="int" name="NSW">   100</i>
   <i type="int" name="IBRION">     1</i>
   <i type="int" name="ISIF">     3</i>
   <i name="PSTRESS">      0.00000000</i>
   <i name="EDIFFG">      0.00100000</i>
   <i type="int" name="NFREE">     0</i>
   <i name="POTIM">      0.50000000</i>
   <i name="SMASS">     -3.00000000</i>
   <i name="SCALEE">      1.00000000</i>
  </separator>
  <separator name="ionic md" >
   <i name="TEBEG">      0.00010000</i>
   <i name="TEEND">      0.00010000</i>
   <i type="int" name="NBLOCK">     1</i>
   <i type="int" name="KBLOCK">   100</i>
   <i type="int" name="NPACO">   256</i>
   <i name="APACO">     16.00000000</i>
  </separator>
  <separator name="symmetry" >
   <i type="int" name="ISYM">     0</i>
   <i name="SYMPREC">      0.00000001</i>
  </separator>
  <separator name="dos" >
   <i type="logical" name="LORBIT"> F  </i>
   <v name="RWIGS">     -1.00000000     -1.00000000     -1.00000000     -1.00000000</v>
   <i type="int" name="NEDOS">   301</i>
   <i name="EMIN">     10.00000000</i>
   <i name="EMAX">    -10.00000000</i>
   <i name="EFERMI">      0.00000000</i>
  </separator>
  <separator name="writing" >
   <i type="int" name="NWRITE">     2</i>
   <i type="logical" name="LWAVE"> F  </i>
   <i type="logical" name="LCHARG"> F  </i>
   <i type="logical" name="LPARD"> F  </i>
   <i type="logical" name="LVTOT"> F  </i>
   <i type="logical" name="LVHAR"> F  </i>
   <i type="logical" name="LELF"> F  </i>
   <i type="logical" name="LOPTICS"> F  </i>
   <v name="STM">      0.00000000      0.00000000      0.00000000      0.00000000      0.00000000      0.00000000      0.00000000</v>
  </separator>
  <separator name="performance" >
   <i type="int" name="NPAR">    40</i>
   <i type="int" name="NSIM">     4</i>
   <i type="int" name="NBLK">    -1</i>
   <i type="logical" name="LPLANE"> F  </i>
   <i type="logical" name="LSCALAPACK"> T  </i>
   <i type="logical" name="LSCAAWARE"> F  </i>
   <i type="logical" name="LSCALU"> F  </i>
   <i type="logical" name="LASYNC"> F  </i>
   <i type="logical" name="LORBITALREAL"> F  </i>
  </separator>
  <separator name="miscellaneous" >
   <i type="int" name="IDIOT">     3</i>
   <i type="logical" name="LMUSIC"> F  </i>
   <v name="POMASS">     50.94100000     95.94000000    183.85000000     32.06600000</v>
   <v name="DARWINR">      0.00000000      0.00000000      0.00000000      0.00000000</v>
   <v name="DARWINV">      1.00000000      1.00000000      1.00000000      1.00000000</v>
   <i type="logical" name="LCORR"> T  </i>
  </separator>
  <i type="logical" name="GGA_COMPAT"> T  </i>
  <i type="logical" name="LBERRY"> F  </i>
  <i type="int" name="ICORELEVEL">     0</i>
  <i type="logical" name="LDAU"> F  </i>
  <i type="int" name="I_CONSTRAINED_M">     0</i>
  <separator name="electronic exchange-correlation" >
   <i type="string" name="GGA">--</i>
   <i type="int" name="VOSKOWN">     0</i>
   <i type="logical" name="LHFCALC"> F  </i>
   <i type="string" name="PRECFOCK"></i>
   <i type="logical" name="LSYMGRAD"> F  </i>
   <i type="logical" name="LHFONE"> F  </i>
   <i type="logical" name="LRHFCALC"> F  </i>
   <i type="logical" name="LTHOMAS"> F  </i>
   <i type="logical" name="LMODELHF"> F  </i>
   <i name="ENCUT4O">     -1.00000000</i>
   <i type="int" name="EXXOEP">     0</i>
   <i type="int" name="FOURORBIT">     0</i>
   <i name="AEXX">      0.00000000</i>
   <i name="HFALPHA">      0.00000000</i>
   <i name="MCALPHA">      0.00000000</i>
   <i name="ALDAX">      1.00000000</i>
   <i name="AGGAX">      1.00000000</i>
   <i name="ALDAC">      1.00000000</i>
   <i name="AGGAC">      1.00000000</i>
   <i type="int" name="NKREDX">     1</i>
   <i type="int" name="NKREDY">     1</i>
   <i type="int" name="NKREDZ">     1</i>
   <i type="logical" name="SHIFTRED"> F  </i>
   <i type="logical" name="ODDONLY"> F  </i>
   <i type="logical" name="EVENONLY"> F  </i>
   <i type="int" name="LMAXFOCK">     0</i>
   <i type="int" name="NMAXFOCKAE">     0</i>
   <i type="logical" name="LFOCKAEDFT"> F  </i>
   <i name="HFSCREEN">      0.00000000</i>
   <i name="HFSCREENC">      0.00000000</i>
   <i type="int" name="NBANDSGWLOW">     0</i>
  </separator>
  <separator name="vdW DFT" >
   <i type="logical" name="LUSE_VDW"> F  </i>
   <i name="Zab_VDW">     -0.84910000</i>
   <i name="PARAM1">      0.12340000</i>
   <i name="PARAM2">      1.00000000</i>
   <i name="PARAM3">      0.00000000</i>
  </separator>
  <separator name="model GW" >
   <i type="int" name="MODEL_GW">     0</i>
   <i name="MODEL_EPS0">     58.26239943</i>
   <i name="MODEL_ALPHA">      1.00000000</i>
  </separator>
  <separator name="linear response parameters" >
   <i type="logical" name="LEPSILON"> F  </i>
   <i type="logical" name="LRPA"> F  </i>
   <i type="logical" name="LNABLA"> F  </i>
   <i type="logical" name="LVEL"> F  </i>
   <i type="int" name="KINTER">     0</i>
   <i name="CSHIFT">      0.10000000</i>
   <i name="OMEGAMAX">     -1.00000000</i>
   <i name="DEG_THRESHOLD">      0.00200000</i>
  </separator>
  <separator name="orbital magnetization" >
   <i type="logical" name="NUCIND"> F  </i>
   <v name="MAGPOS">      0.00000000      0.00000000      0.00000000</v>
   <i type="logical" name="LNICSALL"> T  </i>
   <i type="logical" name="ORBITALMAG"> F  </i>
   <i type="logical" name="LMAGBLOCH"> F  </i>
   <i type="logical" name="LCHIMAG"> F  </i>
   <i type="logical" name="LGAUGE"> T  </i>
   <i type="int" name="MAGATOM">     0</i>
   <v name="MAGDIPOL">      0.00000000      0.00000000      0.00000000</v>
   <v name="AVECCONST">      0.00000000      0.00000000      0.00000000</v>
  </separator>
  <separator name="response functions" >
   <i type="logical" name="LADDER"> F  </i>
   <i type="logical" name="LFXC"> F  </i>
   <i type="logical" name="LHARTREE"> T  </i>
   <i type="int" name="IBSE">     0</i>
   <v type="int" name="KPOINT">    -1     0     0     0</v>
   <i type="logical" name="LTCTE"> F  </i>
   <i type="logical" name="LTETE"> F  </i>
   <i type="logical" name="LTRIPLET"> F  </i>
   <i type="logical" name="LFXCEPS"> F  </i>
   <i type="logical" name="LFXHEG"> F  </i>
   <i type="int" name="NATURALO">     0</i>
   <i type="logical" name="L2ORDER"> F  </i>
   <i type="logical" name="LUSEW"> F  </i>
   <i name="ENCUTGW">     -2.00000000</i>
   <i name="ENCUTGWSOFT">     -2.00000000</i>
   <i name="ENCUTLF">     -1.00000000</i>
   <i type="int" name="LMAXMP2">    -1</i>
   <i name="SCISSOR">      0.00000000</i>
   <i type="int" name="NOMEGA">     0</i>
   <i type="int" name="NOMEGAR">     0</i>
   <i type="int" name="NBANDSGW">    -1</i>
   <i type="int" name="NBANDSO">    -1</i>
   <i type="int" name="NBANDSV">    -1</i>
   <i type="int" name="NELM">     1</i>
   <i type="int" name="NELMHF">     1</i>
   <i type="int" name="DIM">     3</i>
   <i type="int" name="ANTIRES">     0</i>
   <i name="OMEGAMAX">    -30.00000000</i>
   <i name="OMEGAMIN">    -30.00000000</i>
   <i name="OMEGATL">   -200.00000000</i>
   <i type="int" name="OMEGAGRID">     0</i>
   <i name="CSHIFT">     -0.10000000</i>
   <i type="logical" name="SELFENERGY"> F  </i>
   <i type="logical" name="LSPECTRAL"> F  </i>
   <i type="logical" name="LSPECTRALGW"> F  </i>
   <i type="logical" name="LSINGLES"> F  </i>
   <i type="logical" name="LFERMIGW"> F  </i>
   <i type="logical" name="ODDONLYGW"> F  </i>
   <i type="logical" name="EVENONLYGW"> F  </i>
   <i type="int" name="NKREDLFX">     1</i>
   <i type="int" name="NKREDLFY">     1</i>
   <i type="int" name="NKREDLFZ">     1</i>
   <i type="int" name="MAXMEM">  1800</i>
   <i type="int" name="TELESCOPE">     0</i>
   <i type="int" name="TAUPAR">     1</i>
   <i type="int" name="OMEGAPAR">    -1</i>
   <i name="LAMBDA">      1.00000000</i>
  </separator>
  <separator name="External order field" >
   <i name="OFIELD_KAPPA">      0.00000000</i>
   <v name="OFIELD_K">      0.00000000      0.00000000      0.00000000</v>
   <i name="OFIELD_Q6_NEAR">      0.00000000</i>
   <i name="OFIELD_Q6_FAR">      0.00000000</i>
   <i name="OFIELD_A">      0.00000000</i>
  </separator>
 </parameters>
 <atominfo>
  <atoms>      27 </atoms>
  <types>       4 </types>
  <array name="atoms" >
   <dimension dim="1">ion</dimension>
   <field type="string">element</field>
   <field type="int">atomtype</field>
   <set>
    <rc><c>V </c><c>   1</c></rc>
    <rc><c>V </c><c>   1</c></rc>
    <rc><c>V </c><c>   1</c></rc>
    <rc><c>Mo</c><c>   2</c></rc>
    <rc><c>Mo</c><c>   2</c></rc>
    <rc><c>Mo</c><c>   2</c></rc>
    <rc><c>W </c><c>   3</c></rc>
    <rc><c>W </c><c>   3</c></rc>
    <rc><c>W </c><c>   3</c></rc>
    <rc><c>S </c><c>   4</c></rc>
    <rc><c>S </c><c>   4</c></rc>
    <rc><c>S </c><c>   4</c></rc>
    <rc><c>S </c><c>   4</c></rc>
    <rc><c>S </c><c>   4</c></rc>
    <rc><c>S </c><c>   4</c></rc>
    <rc><c>S </c><c>   4</c></rc>
    <rc><c>S </c><c>   4</c></rc>
    <rc><c>S </c><c>   4</c></rc>
    <rc><c>S </c><c>   4</c></rc>
    <rc><c>S </c><c>   4</c></rc>
    <rc><c>S </c><c>   4</c></rc>
    <rc><c>S </c><c>   4</c></rc>
    <rc><c>S </c><c>   4</c></rc>
    <rc><c>S </c><c>   4</c></rc>
    <rc><c>S </c><c>   4</c></rc>
    <rc><c>S </c><c>   4</c></rc>
    <rc><c>S </c><c>   4</c></rc>
   </set>
  </array>
  <array name="atomtypes" >
   <dimension dim="1">type</dimension>
   <field type="int">atomspertype</field>
   <field type="string">element</field>
   <field>mass</field>
   <field>valence</field>
   <field type="string">pseudopotential</field>
   <set>
    <rc><c>   3</c><c>V </c><c>     50.94100000</c><c>      5.00000000</c><c> PAW_PBE V 08Apr2002                    </c></rc>
    <rc><c>   3</c><c>Mo</c><c>     95.94000000</c><c>      6.00000000</c><c> PAW_PBE Mo 08Apr2002                   </c></rc>
    <rc><c>   3</c><c>W </c><c>    183.85000000</c><c>      6.00000000</c><c> PAW_PBE W 08Apr2002                    </c></rc>
    <rc><c>  18</c><c>S </c><c>     32.06600000</c><c>      6.00000000</c><c>  PAW_PBE S 17Jan2003                   </c></rc>
   </set>
  </array>
 </atominfo>
 <structure name="initialpos" >
  <crystal>
   <varray name="basis" >
    <v>       8.66999996       5.03999989       0.00000000 </v>
    <v>      -8.66999982       5.04000013       0.00000000 </v>
    <v>       0.00000000       0.00000000      30.00000000 </v>
   </varray>
   <i name="volume">   2621.80797419 </i>
   <varray name="rec_basis" >
    <v>       0.05767013       0.09920635       0.00000000 </v>
    <v>      -0.05767013       0.09920635       0.00000000 </v>
    <v>       0.00000000       0.00000000       0.03333333 </v>
   </varray>
  </crystal>
  <varray name="positions" >
   <v>       0.66666669       0.66666669       0.00000000 </v>
   <v>       1.00000000       0.33333334       0.00000000 </v>
   <v>       0.33333334       0.33333334       0.00000000 </v>
   <v>       0.66666669       0.00000000       0.00000000 </v>
   <v>       0.00000000       0.66666669       0.00000000 </v>
   <v>       0.66666669       0.33333334       0.00000000 </v>
   <v>       0.00000000       0.00000000       0.00000000 </v>
   <v>       0.33333334       0.00000000       0.00000000 </v>
   <v>       0.33333334       0.66666669       0.00000000 </v>
   <v>       0.11068511       0.22244981       0.95539999 </v>
   <v>       0.22244981       0.11068511       0.04460000 </v>
   <v>       0.11068511       0.55578315       0.95539999 </v>
   <v>       0.22244981       0.44401845       0.04460000 </v>
   <v>       0.11068511       0.88911647       0.95539999 </v>
   <v>       0.22244981       0.77735180       0.04460000 </v>
   <v>       0.44401845       0.22244981       0.95539999 </v>
   <v>       0.55578315       0.11068511       0.04460000 </v>
   <v>       0.44401845       0.55578315       0.95539999 </v>
   <v>       0.55578315       0.44401845       0.04460000 </v>
   <v>       0.44401845       0.88911647       0.95539999 </v>
   <v>       0.55578315       0.77735180       0.04460000 </v>
   <v>       0.77735180       0.22244981       0.95539999 </v>
   <v>       0.88911647       0.11068511       0.04460000 </v>
   <v>       0.77735180       0.55578315       0.95539999 </v>
   <v>       0.88911647       0.44401845       0.04460000 </v>
   <v>       0.77735180       0.88911647       0.95539999 </v>
   <v>       0.88911647       0.77735180       0.04460000 </v>
  </varray>
 </structure>
 <calculation>
  <scstep>
   <time name="dav">   21.46   21.51</time>
   <time name="total">   21.50   21.56</time>
   <energy>
    <i name="alphaZ">     81.65567618 </i>
    <i name="ewald">  41890.23011081 </i>
    <i name="hartreedc"> -47722.86557400 </i>
    <i name="XCdc">   -242.92862446 </i>
    <i name="pawpsdc">   3467.42045192 </i>
    <i name="pawaedc">  -2871.19716117 </i>
    <i name="eentropy">     -0.52207349 </i>
    <i name="bandstr">   -239.76581772 </i>
    <i name="atom">   6761.44252427 </i>
    <i name="e_fr_energy">   1123.46951234 </i>
    <i name="e_wo_entrp">   1123.99158583 </i>
    <i name="e_0_energy">   1123.73054909 </i>
   </energy>
  </scstep>
  <scstep>
   <time name="dav">   27.60   27.66</time>
   <time name="total">   27.60   27.67</time>
   <energy>
    <i name="e_fr_energy">     -0.85930802 </i>
    <i name="e_wo_entrp">     -0.66935856 </i>
    <i name="e_0_energy">     -0.76433329 </i>
   </energy>
  </scstep>
  <scstep>
   <time name="dav">   27.17   27.24</time>
   <time name="total">   27.17   27.24</time>
   <energy>
    <i name="e_fr_energy">   -199.53872435 </i>
    <i name="e_wo_entrp">   -199.28653191 </i>
    <i name="e_0_energy">   -199.41262813 </i>
   </energy>
  </scstep>
  <scstep>
   <time name="dav">   29.43   29.50</time>
   <time name="total">   29.43   29.51</time>
   <energy>
    <i name="e_fr_energy">   -208.95243361 </i>
    <i name="e_wo_entrp">   -208.66829911 </i>
    <i name="e_0_energy">   -208.81036636 </i>
   </energy>
  </scstep>
  <scstep>
   <time name="dav">   28.44   28.51</time>
   <time name="total">   28.91   28.98</time>
   <energy>
    <i name="e_fr_energy">   -209.31300851 </i>
    <i name="e_wo_entrp">   -209.03232810 </i>
    <i name="e_0_energy">   -209.17266830 </i>
   </energy>
  </scstep>
  <scstep>
   <time name="dav">   30.68   30.76</time>
   <time name="total">   31.18   31.26</time>
   <energy>
    <i name="e_fr_energy">   -237.22715126 </i>
    <i name="e_wo_entrp">   -236.95139760 </i>
    <i name="e_0_energy">   -237.08927443 </i>
   </energy>
  </scstep>
  <scstep>
   <time name="dav">   32.04   32.12</time>
   <time name="total">   32.55   32.63</time>
   <energy>
    <i name="e_fr_energy">   -196.47013946 </i>
    <i name="e_wo_entrp">   -196.13983831 </i>
    <i name="e_0_energy">   -196.30498888 </i>
   </energy>
  </scstep>
  <scstep>
   <time name="dav">   29.11   29.18</time>
   <time name="total">   29.62   29.70</time>
   <energy>
    <i name="e_fr_energy">   -189.42595498 </i>
    <i name="e_wo_entrp">   -189.13434412 </i>
    <i name="e_0_energy">   -189.28014955 </i>
   </energy>
  </scstep>
  <scstep>
   <time name="dav">   30.51   30.59</time>
   <time name="total">   31.03   31.11</time>
   <energy>
    <i name="e_fr_energy">   -188.22907822 </i>
    <i name="e_wo_entrp">   -187.90905583 </i>
    <i name="e_0_energy">   -188.06906703 </i>
   </energy>
  </scstep>
  <scstep>
   <time name="dav">   32.25   32.33</time>
   <time name="total">   32.78   32.86</time>
   <energy>
    <i name="e_fr_energy">   -187.07930552 </i>
    <i name="e_wo_entrp">   -186.73231109 </i>
    <i name="e_0_energy">   -186.90580831 </i>
   </energy>
  </scstep>
  <scstep>
   <time name="dav">   32.50   32.58</time>
   <time name="total">   33.03   33.12</time>
   <energy>
    <i name="e_fr_energy">   -187.02947988 </i>
    <i name="e_wo_entrp">   -186.68144857 </i>
    <i name="e_0_energy">   -186.85546422 </i>
   </energy>
  </scstep>
  <scstep>
   <time name="dav">   30.85   30.92</time>
   <time name="total">   31.38   31.46</time>
   <energy>
    <i name="e_fr_energy">   -187.17360863 </i>
    <i name="e_wo_entrp">   -186.83523473 </i>
    <i name="e_0_energy">   -187.00442168 </i>
   </energy>
  </scstep>
  <scstep>
   <time name="dav">   32.00   32.08</time>
   <time name="total">   32.53   32.62</time>
   <energy>
    <i name="e_fr_energy">   -186.92707581 </i>
    <i name="e_wo_entrp">   -186.59250409 </i>
    <i name="e_0_energy">   -186.75978995 </i>
   </energy>
  </scstep>
  <scstep>
   <time name="dav">   32.07   32.15</time>
   <time name="total">   32.61   32.70</time>
   <energy>
    <i name="e_fr_energy">   -186.87974283 </i>
    <i name="e_wo_entrp">   -186.53599879 </i>
    <i name="e_0_energy">   -186.70787081 </i>
   </energy>
  </scstep>
  <scstep>
   <time name="dav">   30.32   30.40</time>
   <time name="total">   30.86   30.94</time>
   <energy>
    <i name="e_fr_energy">   -186.88169486 </i>
    <i name="e_wo_entrp">   -186.53673007 </i>
    <i name="e_0_energy">   -186.70921246 </i>
   </energy>
  </scstep>
  <scstep>
   <time name="dav">   31.84   31.92</time>
   <time name="total">   32.37   32.46</time>
   <energy>
    <i name="e_fr_energy">   -186.87261329 </i>
    <i name="e_wo_entrp">   -186.52713186 </i>
    <i name="e_0_energy">   -186.69987258 </i>
   </energy>
  </scstep>
  <scstep>
   <time name="dav">   30.76   30.83</time>
   <time name="total">   31.29   31.37</time>
   <energy>
    <i name="e_fr_energy">   -186.86928473 </i>
    <i name="e_wo_entrp">   -186.52623972 </i>
    <i name="e_0_energy">   -186.69776223 </i>
   </energy>
  </scstep>
  <scstep>
   <time name="dav">   29.25   29.32</time>
   <time name="total">   29.78   29.86</time>
   <energy>
    <i name="e_fr_energy">   -186.86909214 </i>
    <i name="e_wo_entrp">   -186.52563387 </i>
    <i name="e_0_energy">   -186.69736301 </i>
   </energy>
  </scstep>
  <scstep>
   <time name="dav">   27.92   27.99</time>
   <time name="total">   28.46   28.53</time>
   <energy>
    <i name="e_fr_energy">   -186.86874506 </i>
    <i name="e_wo_entrp">   -186.52514895 </i>
    <i name="e_0_energy">   -186.69694700 </i>
   </energy>
  </scstep>
  <scstep>
   <time name="dav">   23.56   23.62</time>
   <time name="total">   24.09   24.16</time>
   <energy>
    <i name="e_fr_energy">   -186.86951179 </i>
    <i name="e_wo_entrp">   -186.52618579 </i>
    <i name="e_0_energy">   -186.69784879 </i>
   </energy>
  </scstep>
  <scstep>
   <time name="dav">   21.52   21.57</time>
   <time name="total">   22.05   22.11</time>
   <energy>
    <i name="e_fr_energy">   -186.87011954 </i>
    <i name="e_wo_entrp">   -186.52676437 </i>
    <i name="e_0_energy">   -186.69844196 </i>
   </energy>
  </scstep>
  <scstep>
   <time name="dav">   20.39   20.44</time>
   <time name="total">   20.92   20.98</time>
   <energy>
    <i name="e_fr_energy">   -186.87122669 </i>
    <i name="e_wo_entrp">   -186.52784217 </i>
    <i name="e_0_energy">   -186.69953443 </i>
   </energy>
  </scstep>
  <scstep>
   <time name="dav">   20.22   20.27</time>
   <time name="total">   20.75   20.81</time>
   <energy>
    <i name="e_fr_energy">   -186.87245324 </i>
    <i name="e_wo_entrp">   -186.52915217 </i>
    <i name="e_0_energy">   -186.70080271 </i>
   </energy>
  </scstep>
  <scstep>
   <time name="dav">   18.92   18.96</time>
   <time name="total">   19.45   19.51</time>
   <energy>
    <i name="e_fr_energy">   -186.87303867 </i>
    <i name="e_wo_entrp">   -186.52970894 </i>
    <i name="e_0_energy">   -186.70137380 </i>
   </energy>
  </scstep>
  <scstep>
   <time name="dav">   16.13   16.17</time>
   <time name="total">   16.66   16.71</time>
   <energy>
    <i name="e_fr_energy">   -186.87341767 </i>
    <i name="e_wo_entrp">   -186.53005102 </i>
    <i name="e_0_energy">   -186.70173435 </i>
   </energy>
  </scstep>
  <scstep>
   <time name="dav">   18.90   18.95</time>
   <time name="total">   19.44   19.49</time>
   <energy>
    <i name="e_fr_energy">   -186.87363629 </i>
    <i name="e_wo_entrp">   -186.53028386 </i>
    <i name="e_0_energy">   -186.70196007 </i>
   </energy>
  </scstep>
  <scstep>
   <time name="dav">   19.15   19.20</time>
   <time name="total">   19.68   19.74</time>
   <energy>
    <i name="e_fr_energy">   -186.87374009 </i>
    <i name="e_wo_entrp">   -186.53039202 </i>
    <i name="e_0_energy">   -186.70206605 </i>
   </energy>
  </scstep>
  <scstep>
   <time name="dav">   19.81   19.86</time>
   <time name="total">   19.85   19.90</time>
   <energy>
    <i name="alphaZ">     81.65567618 </i>
    <i name="ewald">  41890.23011081 </i>
    <i name="hartreedc"> -47833.03446257 </i>
    <i name="XCdc">   -231.60127119 </i>
    <i name="pawpsdc">   4192.08584199 </i>
    <i name="pawaedc">  -3610.10368394 </i>
    <i name="eentropy">     -0.34334843 </i>
    <i name="bandstr">  -1437.20517745 </i>
    <i name="atom">   6761.44252427 </i>
    <i name="e_fr_energy">   -186.87379032 </i>
    <i name="e_wo_entrp">   -186.53044189 </i>
    <i name="e_0_energy">   -186.70211611 </i>
   </energy>
  </scstep>
  <structure>
   <crystal>
    <varray name="basis" >
     <v>       8.66999996       5.03999989       0.00000000 </v>
     <v>      -8.66999982       5.04000013       0.00000000 </v>
     <v>       0.00000000       0.00000000      30.00000000 </v>
    </varray>
    <i name="volume">   2621.80797419 </i>
    <varray name="rec_basis" >
     <v>       0.05767013       0.09920635       0.00000000 </v>
     <v>      -0.05767013       0.09920635       0.00000000 </v>
     <v>       0.00000000       0.00000000       0.03333333 </v>
    </varray>
   </crystal>
   <varray name="positions" >
    <v>       0.66666669       0.66666669       0.00000000 </v>
    <v>       1.00000000       0.33333334       0.00000000 </v>
    <v>       0.33333334       0.33333334       0.00000000 </v>
    <v>       0.66666669       0.00000000       0.00000000 </v>
    <v>       0.00000000       0.66666669       0.00000000 </v>
    <v>       0.66666669       0.33333334       0.00000000 </v>
    <v>       0.00000000       0.00000000       0.00000000 </v>
    <v>       0.33333334       0.00000000       0.00000000 </v>
    <v>       0.33333334       0.66666669       0.00000000 </v>
    <v>       0.11068511       0.22244981       0.95539999 </v>
    <v>       0.22244981       0.11068511       0.04460000 </v>
    <v>       0.11068511       0.55578315       0.95539999 </v>
    <v>       0.22244981       0.44401845       0.04460000 </v>
    <v>       0.11068511       0.88911647       0.95539999 </v>
    <v>       0.22244981       0.77735180       0.04460000 </v>
    <v>       0.44401845       0.22244981       0.95539999 </v>
    <v>       0.55578315       0.11068511       0.04460000 </v>
    <v>       0.44401845       0.55578315       0.95539999 </v>
    <v>       0.55578315       0.44401845       0.04460000 </v>
    <v>       0.44401845       0.88911647       0.95539999 </v>
    <v>       0.55578315       0.77735180       0.04460000 </v>
    <v>       0.77735180       0.22244981       0.95539999 </v>
    <v>       0.88911647       0.11068511       0.04460000 </v>
    <v>       0.77735180       0.55578315       0.95539999 </v>
    <v>       0.88911647       0.44401845       0.04460000 </v>
    <v>       0.77735180       0.88911647       0.95539999 </v>
    <v>       0.88911647       0.77735180       0.04460000 </v>
   </varray>
  </structure>
  <varray name="forces" >
   <v>       0.23380489       0.05700240       0.11785946 </v>
   <v>      -0.36505657      -0.19809468      -0.10250373 </v>
   <v>       0.14015859       0.14777761       0.01699103 </v>
   <v>      -0.26460347       0.11442861      -0.10372358 </v>
   <v>       0.00473059      -0.27879158       0.07662271 </v>
   <v>       0.21648932       0.16242578       0.02288412 </v>
   <v>      -0.10641334      -0.27868162      -0.05082405 </v>
   <v>       0.27073451       0.19355710      -0.01980113 </v>
   <v>      -0.12935500       0.06604258       0.02465666 </v>
   <v>      -0.25294171       0.51613597      -1.41318199 </v>
   <v>      -0.45173021       0.56238476       2.15786285 </v>
   <v>       0.64173772      -0.57450883      -2.15512918 </v>
   <v>       0.23562592      -0.51464200       1.38839428 </v>
   <v>       0.05948239       0.15953284      -2.85125113 </v>
   <v>      -0.07989571       0.12461398       2.92839216 </v>
   <v>      -0.65778989      -0.16096669      -2.10103987 </v>
   <v>      -0.23017512      -0.15850561       2.89533668 </v>
   <v>       0.74272728       0.00003570      -1.45584040 </v>
   <v>      -0.91479478       0.01821110       1.46251225 </v>
   <v>       0.05127583      -0.10959472      -2.95842616 </v>
   <v>       0.69011647      -0.15789420       2.09162630 </v>
   <v>       0.54646682       0.71226192      -2.20100072 </v>
   <v>      -0.35590379       0.70871902       2.14509980 </v>
   <v>      -0.74376131      -0.01015396      -2.11273138 </v>
   <v>       0.73189409       0.01077424       2.13645406 </v>
   <v>       0.60343197      -0.53676209      -2.14397850 </v>
   <v>      -0.61625552      -0.57530764       2.20473946 </v>
  </varray>
  <varray name="stress" >
   <v>       7.43255790       0.00222012      -1.61731766 </v>
   <v>       0.00222019       4.30856211       0.01835954 </v>
   <v>      -1.61731751       0.01835965      30.31166372 </v>
  </varray>
  <energy>
   <i name="e_fr_energy">   -186.87379032 </i>
   <i name="e_wo_entrp">   -186.70211611 </i>
   <i name="e_0_energy">     -0.34334843 </i>
  </energy>
  <time name="totalsc">  798.32  800.45</time>
 </calculation>
 <calculation>
  <scstep>
   <time name="dav">   21.49   21.55</time>
   <time name="total">   22.03   22.09</time>
   <energy>
    <i name="alphaZ">     78.92462737 </i>
    <i name="ewald">  39381.34463472 </i>
    <i name="hartreedc"> -45338.90795885 </i>
    <i name="XCdc">   -239.05452885 </i>
    <i name="pawpsdc">   4192.08579019 </i>
    <i name="pawaedc">  -3610.10365020 </i>
    <i name="eentropy">     -0.27939386 </i>
    <i name="bandstr">  -1412.95126532 </i>
    <i name="atom">   6761.44252427 </i>
    <i name="e_fr_energy">   -187.49922054 </i>
    <i name="e_wo_entrp">   -187.21982667 </i>
    <i name="e_0_energy">   -187.35952360 </i>
   </energy>
  </scstep>
  <scstep>
   <time name="dav">   29.99   30.06</time>
   <time name="total">   30.52   30.60</time>
   <energy>
    <i name="e_fr_energy">   -189.50083268 </i>
    <i name="e_wo_entrp">   -189.16704387 </i>
    <i name="e_0_energy">   -189.33393828 </i>
   </energy>
  </scstep>
  <scstep>
   <time name="dav">   30.24   30.31</time>
   <time name="total">   30.78   30.86</time>
   <energy>
    <i name="e_fr_energy">   -189.34045544 </i>
    <i name="e_wo_entrp">   -189.07694703 </i>
    <i name="e_0_energy">   -189.20870123 </i>
   </energy>
  </scstep>
  <scstep>
   <time name="dav">   28.99   29.06</time>
   <time name="total">   29.53   29.61</time>
   <energy>
    <i name="e_fr_energy">   -188.76732330 </i>
    <i name="e_wo_entrp">   -188.48479848 </i>
    <i name="e_0_energy">   -188.62606089 </i>
   </energy>
  </scstep>
  <scstep>
   <time name="dav">   29.77   29.84</time>
   <time name="total">   30.31   30.39</time>
   <energy>
    <i name="e_fr_energy">   -188.89990755 </i>
    <i name="e_wo_entrp">   -188.61325885 </i>
    <i name="e_0_energy">   -188.75658320 </i>
   </energy>
  </scstep>
  <scstep>
   <time name="dav">   30.74   30.82</time>
   <time name="total">   31.29   31.37</time>
   <energy>
    <i name="e_fr_energy">   -188.74232306 </i>
    <i name="e_wo_entrp">   -188.45852194 </i>
    <i name="e_0_energy">   -188.60042250 </i>
   </energy>
  </scstep>
  <scstep>
   <time name="dav">   28.72   28.79</time>
   <time name="total">   29.26   29.34</time>
   <energy>
    <i name="e_fr_energy">   -188.71233289 </i>
    <i name="e_wo_entrp">   -188.42743336 </i>
    <i name="e_0_energy">   -188.56988313 </i>
   </energy>
  </scstep>
  <scstep>
   <time name="dav">   31.27   31.35</time>
   <time name="total">   31.81   31.90</time>
   <energy>
    <i name="e_fr_energy">   -188.69538872 </i>
    <i name="e_wo_entrp">   -188.41484061 </i>
    <i name="e_0_energy">   -188.55511467 </i>
   </energy>
  </scstep>
  <scstep>
   <time name="dav">   29.30   29.37</time>
   <time name="total">   29.84   29.92</time>
   <energy>
    <i name="e_fr_energy">   -188.67036294 </i>
    <i name="e_wo_entrp">   -188.38866756 </i>
    <i name="e_0_energy">   -188.52951525 </i>
   </energy>
  </scstep>
  <scstep>
   <time name="dav">   27.54   27.60</time>
   <time name="total">   28.08   28.15</time>
   <energy>
    <i name="e_fr_energy">   -188.66869052 </i>
    <i name="e_wo_entrp">   -188.38840699 </i>
    <i name="e_0_energy">   -188.52854876 </i>
   </energy>
  </scstep>
  <scstep>
   <time name="dav">   31.72   31.79</time>
   <time name="total">   32.26   32.34</time>
   <energy>
    <i name="e_fr_energy">   -188.66813691 </i>
    <i name="e_wo_entrp">   -188.38859641 </i>
    <i name="e_0_energy">   -188.52836666 </i>
   </energy>
  </scstep>
  <scstep>
   <time name="dav">   29.06   29.13</time>
   <time name="total">   29.60   29.68</time>
   <energy>
    <i name="e_fr_energy">   -188.66807470 </i>
    <i name="e_wo_entrp">   -188.38869961 </i>
    <i name="e_0_energy">   -188.52838716 </i>
   </energy>
  </scstep>
  <scstep>
   <time name="dav">   20.38   20.43</time>
   <time name="total">   20.42   20.48</time>
   <energy>
    <i name="alphaZ">     78.92462737 </i>
    <i name="ewald">  39381.34463472 </i>
    <i name="hartreedc"> -45349.61741060 </i>
    <i name="XCdc">   -237.97300353 </i>
    <i name="pawpsdc">   3950.53226970 </i>
    <i name="pawaedc">  -3365.04522714 </i>
    <i name="eentropy">     -0.27971001 </i>
    <i name="bandstr">  -1407.99675902 </i>
    <i name="atom">   6761.44252427 </i>
    <i name="e_fr_energy">   -188.66805425 </i>
    <i name="e_wo_entrp">   -188.38834424 </i>
    <i name="e_0_energy">   -188.52819924 </i>
   </energy>
  </scstep>
  <structure>
   <crystal>
    <varray name="basis" >
     <v>       8.85844752       5.10354841       0.00000000 </v>
     <v>      -8.85838195       5.10343609       0.00000000 </v>
     <v>       0.00000000       0.00000000      30.00000000 </v>
    </varray>
    <i name="volume">   2712.53105746 </i>
    <varray name="rec_basis" >
     <v>       0.05644289       0.09797177       0.00000000 </v>
     <v>      -0.05644413       0.09797249       0.00000000 </v>
     <v>       0.00000000       0.00000000       0.03333333 </v>
    </varray>
   </crystal>
   <varray name="positions" >
    <v>       0.66758998       0.66628902       0.00018953 </v>
    <v>       0.99803628       0.33340091      -0.00016484 </v>
    <v>       0.33443055       0.33365066       0.00002732 </v>
    <v>       0.66647817       0.00128382      -0.00016680 </v>
    <v>      -0.00132113       0.66531924       0.00012322 </v>
    <v>       0.66804636       0.33350840       0.00003680 </v>
    <v>      -0.00162982      -0.00103771      -0.00008173 </v>
    <v>       0.33501293       0.00017313      -0.00003184 </v>
    <v>       0.33328954       0.66734265       0.00003965 </v>
    <v>       0.11245160       0.22562375       0.95312747 </v>
    <v>       0.22388458       0.11463346       0.04807003 </v>
    <v>       0.10972094       0.55124815       0.95193435 </v>
    <v>       0.22064229       0.44089984       0.04683266 </v>
    <v>       0.11161412       0.88971450       0.95081493 </v>
    <v>       0.22282393       0.77817048       0.04930911 </v>
    <v>       0.44141799       0.22350950       0.95202133 </v>
    <v>       0.55438416       0.11056689       0.04925596 </v>
    <v>       0.44608501       0.55371694       0.95305887 </v>
    <v>       0.55332520       0.44665072       0.04695185 </v>
    <v>       0.44363659       0.88844929       0.95064258 </v>
    <v>       0.55694749       0.77467610       0.04796352 </v>
    <v>       0.78228102       0.22433832       0.95186059 </v>
    <v>       0.89151820       0.11506720       0.04804951 </v>
    <v>       0.77523394       0.55780382       0.95200253 </v>
    <v>       0.89120428       0.44203377       0.04803561 </v>
    <v>       0.77646171       0.88486869       0.95195228 </v>
    <v>       0.88464854       0.77631291       0.04814541 </v>
   </varray>
  </structure>
  <varray name="forces" >
   <v>       0.24590692       0.11434345       0.04091633 </v>
   <v>      -0.32186552      -0.21173232      -0.03135662 </v>
   <v>       0.13332451       0.08534870       0.01653373 </v>
   <v>      -0.40877365       0.00335856       0.03758367 </v>
   <v>      -0.03467844      -0.12806740      -0.04196858 </v>
   <v>       0.31135374       0.06360578      -0.00555266 </v>
   <v>       0.02599744      -0.27566175      -0.08441455 </v>
   <v>       0.43031160       0.11494726      -0.00468836 </v>
   <v>      -0.37358457       0.22938778       0.09910443 </v>
   <v>       0.05115552      -0.07877789       0.19183351 </v>
   <v>       0.05393467      -0.07133953      -0.16990422 </v>
   <v>       0.09393364       0.03897749       0.02120180 </v>
   <v>      -0.06613660       0.06979855      -0.22725988 </v>
   <v>      -0.07410944       0.10403580       0.11032748 </v>
   <v>       0.06617845       0.09790973       0.02597877 </v>
   <v>       0.01958316      -0.08976915       0.02621965 </v>
   <v>      -0.05461089      -0.09648379       0.14402407 </v>
   <v>      -0.10219295       0.00449594       0.17996171 </v>
   <v>      -0.02976490       0.01279881      -0.06061729 </v>
   <v>      -0.07353738      -0.09210997      -0.14298160 </v>
   <v>      -0.02727979      -0.11031854      -0.09305560 </v>
   <v>       0.02856152       0.09337062      -0.19638510 </v>
   <v>       0.10812744       0.06582787      -0.07500792 </v>
   <v>      -0.06125606      -0.01434980      -0.05459478 </v>
   <v>       0.07164235       0.00069283       0.16613513 </v>
   <v>       0.07658910       0.04383030       0.03076660 </v>
   <v>      -0.08880989       0.02588067       0.09720030 </v>
  </varray>
  <varray name="stress" >
   <v>     -19.94151483       0.01052849       0.06881237 </v>
   <v>       0.01052842     -19.46701730      -0.01179485 </v>
   <v>       0.06881251      -0.01179485      -1.73874914 </v>
  </varray>
  <energy>
   <i name="e_fr_energy">   -188.66805425 </i>
   <i name="e_wo_entrp">   -188.52819924 </i>
   <i name="e_0_energy">     -0.27971001 </i>
  </energy>
  <time name="totalsc">  417.42  418.54</time>
 </calculation>
 <calculation>
  <scstep>
   <time name="dav">   23.59   23.65</time>
   <time name="total">   24.12   24.19</time>
   <energy>
    <i name="alphaZ">     82.35845199 </i>
    <i name="ewald">  41309.99681638 </i>
    <i name="hartreedc"> -47308.94744615 </i>
    <i name="XCdc">   -233.83842632 </i>
    <i name="pawpsdc">   3950.04132559 </i>
    <i name="pawaedc">  -3364.54945868 </i>
    <i name="eentropy">     -0.23295355 </i>
    <i name="bandstr">  -1386.86128264 </i>
    <i name="atom">   6761.44252427 </i>
    <i name="e_fr_energy">   -190.59044911 </i>
    <i name="e_wo_entrp">   -190.35749555 </i>
    <i name="e_0_energy">   -190.47397233 </i>
   </energy>
  </scstep>
  <scstep>
   <time name="dav">   27.60   27.67</time>
   <time name="total">   28.12   28.20</time>
   <energy>
    <i name="e_fr_energy">   -190.57310990 </i>
    <i name="e_wo_entrp">   -190.34520119 </i>
    <i name="e_0_energy">   -190.45915554 </i>
   </energy>
  </scstep>
  <scstep>
   <time name="dav">   29.91   29.99</time>
   <time name="total">   30.44   30.52</time>
   <energy>
    <i name="e_fr_energy">   -190.06236970 </i>
    <i name="e_wo_entrp">   -189.81379617 </i>
    <i name="e_0_energy">   -189.93808294 </i>
   </energy>
  </scstep>
  <scstep>
   <time name="dav">   30.93   31.01</time>
   <time name="total">   31.47   31.55</time>
   <energy>
    <i name="e_fr_energy">   -189.85613788 </i>
    <i name="e_wo_entrp">   -189.62776781 </i>
    <i name="e_0_energy">   -189.74195284 </i>
   </energy>
  </scstep>
  <scstep>
   <time name="dav">   27.42   27.48</time>
   <time name="total">   27.95   28.03</time>
   <energy>
    <i name="e_fr_energy">   -189.79147633 </i>
    <i name="e_wo_entrp">   -189.54904613 </i>
    <i name="e_0_energy">   -189.67026123 </i>
   </energy>
  </scstep>
  <scstep>
   <time name="dav">   30.81   30.89</time>
   <time name="total">   31.35   31.43</time>
   <energy>
    <i name="e_fr_energy">   -189.75974511 </i>
    <i name="e_wo_entrp">   -189.52726113 </i>
    <i name="e_0_energy">   -189.64350312 </i>
   </energy>
  </scstep>
  <scstep>
   <time name="dav">   30.51   30.59</time>
   <time name="total">   31.05   31.13</time>
   <energy>
    <i name="e_fr_energy">   -189.75228486 </i>
    <i name="e_wo_entrp">   -189.51764414 </i>
    <i name="e_0_energy">   -189.63496450 </i>
   </energy>
  </scstep>
  <scstep>
   <time name="dav">   26.14   26.21</time>
   <time name="total">   26.68   26.75</time>
   <energy>
    <i name="e_fr_energy">   -189.75230373 </i>
    <i name="e_wo_entrp">   -189.51788275 </i>
    <i name="e_0_energy">   -189.63509324 </i>
   </energy>
  </scstep>
  <scstep>
   <time name="dav">   26.21   26.28</time>
   <time name="total">   26.75   26.82</time>
   <energy>
    <i name="e_fr_energy">   -189.75252822 </i>
    <i name="e_wo_entrp">   -189.51801247 </i>
    <i name="e_0_energy">   -189.63527034 </i>
   </energy>
  </scstep>
  <scstep>
   <time name="dav">   26.05   26.11</time>
   <time name="total">   26.58   26.65</time>
   <energy>
    <i name="e_fr_energy">   -189.75269456 </i>
    <i name="e_wo_entrp">   -189.51802676 </i>
    <i name="e_0_energy">   -189.63536066 </i>
   </energy>
  </scstep>
  <scstep>
   <time name="dav">   24.40   24.46</time>
   <time name="total">   24.93   25.00</time>
   <energy>
    <i name="e_fr_energy">   -189.75239410 </i>
    <i name="e_wo_entrp">   -189.51771292 </i>
    <i name="e_0_energy">   -189.63505351 </i>
   </energy>
  </scstep>
  <scstep>
   <time name="dav">   17.05   17.09</time>
   <time name="total">   17.08   17.13</time>
   <energy>
    <i name="alphaZ">     82.35845199 </i>
    <i name="ewald">  41309.99681638 </i>
    <i name="hartreedc"> -47282.24656451 </i>
    <i name="XCdc">   -235.23592647 </i>
    <i name="pawpsdc">   4038.83853443 </i>
    <i name="pawaedc">  -3454.54624643 </i>
    <i name="eentropy">     -0.23462638 </i>
    <i name="bandstr">  -1410.12536402 </i>
    <i name="atom">   6761.44252427 </i>
    <i name="e_fr_energy">   -189.75240072 </i>
    <i name="e_wo_entrp">   -189.51777434 </i>
    <i name="e_0_energy">   -189.63508753 </i>
   </energy>
  </scstep>
  <structure>
   <crystal>
    <varray name="basis" >
     <v>       8.66962146       4.99741746       0.00000000 </v>
     <v>      -8.66944238       4.99710803       0.00000000 </v>
     <v>       0.00000000       0.00000000      30.00000000 </v>
    </varray>
    <i name="volume">   2599.43573207 </i>
    <varray name="rec_basis" >
     <v>       0.05767146       0.10005374       0.00000000 </v>
     <v>      -0.05767503       0.10005581       0.00000000 </v>
     <v>       0.00000000       0.00000000       0.03333333 </v>
    </varray>
   </crystal>
   <varray name="positions" >
    <v>       0.66801768       0.66624336       0.00021279 </v>
    <v>       0.99737277       0.33335698      -0.00018266 </v>
    <v>       0.33470145       0.33366492       0.00003672 </v>
    <v>       0.66609035       0.00168287      -0.00014543 </v>
    <v>      -0.00156846       0.66513866       0.00009936 </v>
    <v>       0.66845229       0.33331499       0.00003364 </v>
    <v>      -0.00206533      -0.00152326      -0.00012971 </v>
    <v>       0.33561913      -0.00004900      -0.00003451 </v>
    <v>       0.33331319       0.66808545       0.00009598 </v>
    <v>       0.11236923       0.22544290       0.95323651 </v>
    <v>       0.22381731       0.11446236       0.04797346 </v>
    <v>       0.10987647       0.55122286       0.95194640 </v>
    <v>       0.22069525       0.44108010       0.04670348 </v>
    <v>       0.11171660       0.88995963       0.95087764 </v>
    <v>       0.22305119       0.77827035       0.04932388 </v>
    <v>       0.44128687       0.22334068       0.95203624 </v>
    <v>       0.55417041       0.11045826       0.04933782 </v>
    <v>       0.44599416       0.55382281       0.95316116 </v>
    <v>       0.55331794       0.44670075       0.04691739 </v>
    <v>       0.44341193       0.88836619       0.95056131 </v>
    <v>       0.55673693       0.77451806       0.04791063 </v>
    <v>       0.78246450       0.22446682       0.95174896 </v>
    <v>       0.89173224       0.11507311       0.04800687 </v>
    <v>       0.77515101       0.55783880       0.95197150 </v>
    <v>       0.89127439       0.44196597       0.04813004 </v>
    <v>       0.77660865       0.88486820       0.95196977 </v>
    <v>       0.88460630       0.77644162       0.04820066 </v>
   </varray>
  </structure>
  <varray name="forces" >
   <v>       0.25975615       0.15782492       0.01285407 </v>
   <v>      -0.32611087      -0.21717730      -0.00616294 </v>
   <v>       0.14590752       0.05250142       0.01147250 </v>
   <v>      -0.46290546      -0.04674184       0.05269510 </v>
   <v>      -0.05135677      -0.07255490      -0.05257102 </v>
   <v>       0.33835551       0.02239811      -0.01201107 </v>
   <v>       0.08168346      -0.27533400      -0.06651931 </v>
   <v>       0.48187943       0.08040329      -0.00243136 </v>
   <v>      -0.45476217       0.28110975       0.08508027 </v>
   <v>      -0.02856668       0.05745415      -0.25998844 </v>
   <v>      -0.01465898       0.04269897       0.32094619 </v>
   <v>       0.09417791      -0.08313082      -0.47843896 </v>
   <v>       0.00624547      -0.06582169       0.21670667 </v>
   <v>      -0.02852894       0.04959208      -0.43055527 </v>
   <v>       0.00977413       0.03023481       0.59551438 </v>
   <v>      -0.08279151      -0.01101002      -0.46599661 </v>
   <v>      -0.02597482      -0.01407772       0.71153095 </v>
   <v>       0.04239781       0.01020077      -0.26637950 </v>
   <v>      -0.08775641       0.01419313       0.39111174 </v>
   <v>      -0.02499383      -0.02785681      -0.73593674 </v>
   <v>       0.08418244      -0.03170721       0.39996211 </v>
   <v>       0.06180875       0.15486278      -0.71265089 </v>
   <v>      -0.00663432       0.12545085       0.41507765 </v>
   <v>      -0.13296389      -0.02547813      -0.54155920 </v>
   <v>       0.14665586       0.00112072       0.66524609 </v>
   <v>       0.05638931      -0.10506431      -0.46486773 </v>
   <v>      -0.08120911      -0.10409099       0.61787131 </v>
  </varray>
  <varray name="stress" >
   <v>     -10.17521592       0.00109749       0.07150514 </v>
   <v>       0.00109738      -9.79006987      -0.01319290 </v>
   <v>       0.07150507      -0.01319274       6.54199828 </v>
  </varray>
  <energy>
   <i name="e_fr_energy">   -189.75240072 </i>
   <i name="e_wo_entrp">   -189.63508753 </i>
   <i name="e_0_energy">     -0.23462638 </i>
  </energy>
  <time name="totalsc">  368.03  369.02</time>
 </calculation>
 <calculation>
  <scstep>
   <time name="dav">   21.44   21.49</time>
   <time name="total">   21.96   22.01</time>
   <energy>
    <i name="alphaZ">     85.83395121 </i>
    <i name="ewald">  42838.23771608 </i>
    <i name="hartreedc"> -48855.05321084 </i>
    <i name="XCdc">   -232.95814407 </i>
    <i name="pawpsdc">   4038.95632542 </i>
    <i name="pawaedc">  -3454.66158814 </i>
    <i name="eentropy">     -0.19129101 </i>
    <i name="bandstr">  -1372.90207050 </i>
    <i name="atom">   6761.44252427 </i>
    <i name="e_fr_energy">   -191.29578760 </i>
    <i name="e_wo_entrp">   -191.10449659 </i>
    <i name="e_0_energy">   -191.20014209 </i>
   </energy>
  </scstep>
  <scstep>
   <time name="dav">   32.32   32.39</time>
   <time name="total">   32.83   32.91</time>
   <energy>
    <i name="e_fr_energy">   -191.18667660 </i>
    <i name="e_wo_entrp">   -190.98847899 </i>
    <i name="e_0_energy">   -191.08757779 </i>
   </energy>
  </scstep>
  <scstep>
   <time name="dav">   28.66   28.73</time>
   <time name="total">   29.17   29.25</time>
   <energy>
    <i name="e_fr_energy">   -191.23516805 </i>
    <i name="e_wo_entrp">   -191.02359015 </i>
    <i name="e_0_energy">   -191.12937910 </i>
   </energy>
  </scstep>
  <scstep>
   <time name="dav">   30.42   30.49</time>
   <time name="total">   30.94   31.02</time>
   <energy>
    <i name="e_fr_energy">   -190.90809478 </i>
    <i name="e_wo_entrp">   -190.69895258 </i>
    <i name="e_0_energy">   -190.80352368 </i>
   </energy>
  </scstep>
  <scstep>
   <time name="dav">   27.66   27.73</time>
   <time name="total">   28.18   28.26</time>
   <energy>
    <i name="e_fr_energy">   -190.89587798 </i>
    <i name="e_wo_entrp">   -190.71046374 </i>
    <i name="e_0_energy">   -190.80317086 </i>
   </energy>
  </scstep>
  <scstep>
   <time name="dav">   27.73   27.80</time>
   <time name="total">   28.25   28.32</time>
   <energy>
    <i name="e_fr_energy">   -190.71276277 </i>
    <i name="e_wo_entrp">   -190.51541726 </i>
    <i name="e_0_energy">   -190.61409001 </i>
   </energy>
  </scstep>
  <scstep>
   <time name="dav">   28.04   28.11</time>
   <time name="total">   28.56   28.64</time>
   <energy>
    <i name="e_fr_energy">   -190.71129243 </i>
    <i name="e_wo_entrp">   -190.51507098 </i>
    <i name="e_0_energy">   -190.61318170 </i>
   </energy>
  </scstep>
  <scstep>
   <time name="dav">   25.65   25.71</time>
   <time name="total">   26.16   26.23</time>
   <energy>
    <i name="e_fr_energy">   -190.70781267 </i>
    <i name="e_wo_entrp">   -190.51103216 </i>
    <i name="e_0_energy">   -190.60942242 </i>
   </energy>
  </scstep>
  <scstep>
   <time name="dav">   30.06   30.13</time>
   <time name="total">   30.58   30.66</time>
   <energy>
    <i name="e_fr_energy">   -190.70851104 </i>
    <i name="e_wo_entrp">   -190.51173319 </i>
    <i name="e_0_energy">   -190.61012211 </i>
   </energy>
  </scstep>
  <scstep>
   <time name="dav">   26.19   26.25</time>
   <time name="total">   26.70   26.78</time>
   <energy>
    <i name="e_fr_energy">   -190.70826818 </i>
    <i name="e_wo_entrp">   -190.51154653 </i>
    <i name="e_0_energy">   -190.60990736 </i>
   </energy>
  </scstep>
  <scstep>
   <time name="dav">   25.02   25.08</time>
   <time name="total">   25.54   25.61</time>
   <energy>
    <i name="e_fr_energy">   -190.70807685 </i>
    <i name="e_wo_entrp">   -190.51133475 </i>
    <i name="e_0_energy">   -190.60970580 </i>
   </energy>
  </scstep>
  <scstep>
   <time name="dav">   18.47   18.51</time>
   <time name="total">   18.51   18.56</time>
   <energy>
    <i name="alphaZ">     85.83395121 </i>
    <i name="ewald">  42838.23771608 </i>
    <i name="hartreedc"> -48826.47698761 </i>
    <i name="XCdc">   -234.29466599 </i>
    <i name="pawpsdc">   4063.15600727 </i>
    <i name="pawaedc">  -3479.02610756 </i>
    <i name="eentropy">     -0.19682577 </i>
    <i name="bandstr">  -1399.38370110 </i>
    <i name="atom">   6761.44252427 </i>
    <i name="e_fr_energy">   -190.70808922 </i>
    <i name="e_wo_entrp">   -190.51126345 </i>
    <i name="e_0_energy">   -190.60967633 </i>
   </energy>
  </scstep>
  <structure>
   <crystal>
    <varray name="basis" >
     <v>       8.48686811       4.89818726       0.00000000 </v>
     <v>      -8.48680986       4.89808705       0.00000000 </v>
     <v>       0.00000000       0.00000000      30.00000000 </v>
    </varray>
    <i name="volume">   2494.18207981 </i>
    <varray name="rec_basis" >
     <v>       0.05891415       0.10207927       0.00000000 </v>
     <v>      -0.05891535       0.10207997       0.00000000 </v>
     <v>       0.00000000       0.00000000       0.03333333 </v>
    </varray>
   </crystal>
   <varray name="positions" >
    <v>       0.67007347       0.66638216       0.00021566 </v>
    <v>       0.99481352       0.33316676      -0.00017411 </v>
    <v>       0.33549412       0.33336703       0.00005619 </v>
    <v>       0.66392257       0.00301572      -0.00002354 </v>
    <v>      -0.00209467       0.66503139      -0.00001846 </v>
    <v>       0.66975155       0.33209150       0.00000331 </v>
    <v>      -0.00341533      -0.00362318      -0.00025230 </v>
    <v>       0.33785233      -0.00144620      -0.00003763 </v>
    <v>       0.33344416       0.67173572       0.00026028 </v>
    <v>       0.11285062       0.22635915       0.95231600 </v>
    <v>       0.22421724       0.11516475       0.04905320 </v>
    <v>       0.10939250       0.55005752       0.95053313 </v>
    <v>       0.22007175       0.44020411       0.04752773 </v>
    <v>       0.11185427       0.89017293       0.94952863 </v>
    <v>       0.22302697       0.77833708       0.05103868 </v>
    <v>       0.44096787       0.22391331       0.95065501 </v>
    <v>       0.55423421       0.11062775       0.05129112 </v>
    <v>       0.44643259       0.55354061       0.95223206 </v>
    <v>       0.55301019       0.44719337       0.04810932 </v>
    <v>       0.44337629       0.88837212       0.94853595 </v>
    <v>       0.55719749       0.77405089       0.04915580 </v>
    <v>       0.78385900       0.22531939       0.94983668 </v>
    <v>       0.89247843       0.11619602       0.04928087 </v>
    <v>       0.77438047       0.55823466       0.95043826 </v>
    <v>       0.89191986       0.44133663       0.04992965 </v>
    <v>       0.77575478       0.88366463       0.95058799 </v>
    <v>       0.88334818       0.77574863       0.04992042 </v>
   </varray>
  </structure>
  <varray name="forces" >
   <v>       0.31301830       0.17134607      -0.04307184 </v>
   <v>      -0.27349233      -0.19855926       0.04798297 </v>
   <v>       0.12662884       0.02713688       0.00432476 </v>
   <v>      -0.53703453      -0.10891455       0.02331831 </v>
   <v>      -0.08582829      -0.04024403      -0.03100645 </v>
   <v>       0.32738424      -0.02611356      -0.01235887 </v>
   <v>       0.10936151      -0.25828411      -0.02018286 </v>
   <v>       0.52970673       0.09403806       0.01006286 </v>
   <v>      -0.45973228       0.31413060       0.02206455 </v>
   <v>      -0.02437956      -0.00001752      -0.18015177 </v>
   <v>       0.03636132      -0.00983446       0.16929054 </v>
   <v>       0.02641217      -0.01865625      -0.30685202 </v>
   <v>      -0.05578869      -0.00231773       0.09698410 </v>
   <v>       0.03180235       0.03117320      -0.26941689 </v>
   <v>      -0.06892916      -0.01275377       0.46199672 </v>
   <v>       0.03560989       0.02047046      -0.30162037 </v>
   <v>      -0.03672576       0.04401523       0.54759918 </v>
   <v>      -0.02317023       0.03155504      -0.13598570 </v>
   <v>       0.03305825       0.02918290       0.31877921 </v>
   <v>       0.02018899       0.03195884      -0.60083109 </v>
   <v>      -0.00175813       0.02260240       0.24525153 </v>
   <v>       0.02231514       0.03649416      -0.54919923 </v>
   <v>      -0.02826532       0.00696367       0.22033881 </v>
   <v>      -0.00792801      -0.04281500      -0.37378264 </v>
   <v>       0.03760688      -0.00026963       0.44741185 </v>
   <v>      -0.04348805      -0.07279969      -0.25886005 </v>
   <v>      -0.00293427      -0.06948798       0.46791439 </v>
  </varray>
  <varray name="stress" >
   <v>      -5.70159612       0.01947690      -0.12523335 </v>
   <v>       0.01947703      -5.90712551      -0.00804387 </v>
   <v>      -0.12523348      -0.00804399       4.52071871 </v>
  </varray>
  <energy>
   <i name="e_fr_energy">   -190.70808922 </i>
   <i name="e_wo_entrp">   -190.60967633 </i>
   <i name="e_0_energy">     -0.19682577 </i>
  </energy>
  <time name="totalsc">  368.74  369.72</time>
 </calculation>
 <calculation>
  <scstep>
   <time name="dav">   21.43   21.48</time>
   <time name="total">   21.93   21.99</time>
   <energy>
    <i name="alphaZ">     90.25217534 </i>
    <i name="ewald">  44705.21638395 </i>
    <i name="hartreedc"> -50749.30881828 </i>
    <i name="XCdc">   -231.76723769 </i>
    <i name="pawpsdc">   4063.12275264 </i>
    <i name="pawaedc">  -3478.98903514 </i>
    <i name="eentropy">     -0.17770043 </i>
    <i name="bandstr">  -1351.89089164 </i>
    <i name="atom">   6761.44252427 </i>
    <i name="e_fr_energy">   -192.09984697 </i>
    <i name="e_wo_entrp">   -191.92214654 </i>
    <i name="e_0_energy">   -192.01099675 </i>
   </energy>
  </scstep>
  <scstep>
   <time name="dav">   29.83   29.90</time>
   <time name="total">   30.33   30.41</time>
   <energy>
    <i name="e_fr_energy">   -191.94066505 </i>
    <i name="e_wo_entrp">   -191.74185031 </i>
    <i name="e_0_energy">   -191.84125768 </i>
   </energy>
  </scstep>
  <scstep>
   <time name="dav">   29.80   29.88</time>
   <time name="total">   30.31   30.39</time>
   <energy>
    <i name="e_fr_energy">   -192.38462212 </i>
    <i name="e_wo_entrp">   -192.19338537 </i>
    <i name="e_0_energy">   -192.28900374 </i>
   </energy>
  </scstep>
  <scstep>
   <time name="dav">   29.97   30.04</time>
   <time name="total">   30.48   30.56</time>
   <energy>
    <i name="e_fr_energy">   -191.53306733 </i>
    <i name="e_wo_entrp">   -191.35269131 </i>
    <i name="e_0_energy">   -191.44287932 </i>
   </energy>
  </scstep>
  <scstep>
   <time name="dav">   29.00   29.07</time>
   <time name="total">   29.50   29.58</time>
   <energy>
    <i name="e_fr_energy">   -191.50606076 </i>
    <i name="e_wo_entrp">   -191.30933570 </i>
    <i name="e_0_energy">   -191.40769823 </i>
   </energy>
  </scstep>
  <scstep>
   <time name="dav">   29.73   29.80</time>
   <time name="total">   30.23   30.31</time>
   <energy>
    <i name="e_fr_energy">   -191.37039528 </i>
    <i name="e_wo_entrp">   -191.18773721 </i>
    <i name="e_0_energy">   -191.27906625 </i>
   </energy>
  </scstep>
  <scstep>
   <time name="dav">   29.12   29.19</time>
   <time name="total">   29.63   29.71</time>
   <energy>
    <i name="e_fr_energy">   -191.34658770 </i>
    <i name="e_wo_entrp">   -191.16141019 </i>
    <i name="e_0_energy">   -191.25399895 </i>
   </energy>
  </scstep>
  <scstep>
   <time name="dav">   29.52   29.60</time>
   <time name="total">   30.03   30.11</time>
   <energy>
    <i name="e_fr_energy">   -191.34521071 </i>
    <i name="e_wo_entrp">   -191.15836195 </i>
    <i name="e_0_energy">   -191.25178633 </i>
   </energy>
  </scstep>
  <scstep>
   <time name="dav">   28.12   28.18</time>
   <time name="total">   28.63   28.70</time>
   <energy>
    <i name="e_fr_energy">   -191.33964565 </i>
    <i name="e_wo_entrp">   -191.15367875 </i>
    <i name="e_0_energy">   -191.24666220 </i>
   </energy>
  </scstep>
  <scstep>
   <time name="dav">   28.57   28.64</time>
   <time name="total">   29.07   29.15</time>
   <energy>
    <i name="e_fr_energy">   -191.33978528 </i>
    <i name="e_wo_entrp">   -191.15353784 </i>
    <i name="e_0_energy">   -191.24666156 </i>
   </energy>
  </scstep>
  <scstep>
   <time name="dav">   26.75   26.81</time>
   <time name="total">   27.26   27.33</time>
   <energy>
    <i name="e_fr_energy">   -191.33966329 </i>
    <i name="e_wo_entrp">   -191.15310761 </i>
    <i name="e_0_energy">   -191.24638545 </i>
   </energy>
  </scstep>
  <scstep>
   <time name="dav">   19.70   19.75</time>
   <time name="total">   19.74   19.79</time>
   <energy>
    <i name="alphaZ">     90.25217534 </i>
    <i name="ewald">  44705.21638395 </i>
    <i name="hartreedc"> -50714.76445126 </i>
    <i name="XCdc">   -233.33155221 </i>
    <i name="pawpsdc">   4085.43246966 </i>
    <i name="pawaedc">  -3501.38470406 </i>
    <i name="eentropy">     -0.18643557 </i>
    <i name="bandstr">  -1384.01603745 </i>
    <i name="atom">   6761.44252427 </i>
    <i name="e_fr_energy">   -191.33962732 </i>
    <i name="e_wo_entrp">   -191.15319176 </i>
    <i name="e_0_energy">   -191.24640954 </i>
   </energy>
  </scstep>
  <structure>
   <crystal>
    <varray name="basis" >
     <v>       8.28169266       4.77493321       0.00000000 </v>
     <v>      -8.28066311       4.77315050       0.00000000 </v>
     <v>       0.00000000       0.00000000      30.00000000 </v>
    </varray>
    <i name="volume">   2372.08136112 </i>
    <varray name="rec_basis" >
     <v>       0.06036661       0.10472655       0.00000000 </v>
     <v>      -0.06038916       0.10473957       0.00000000 </v>
     <v>       0.00000000       0.00000000       0.03333333 </v>
    </varray>
   </crystal>
   <varray name="positions" >
    <v>       0.67446754       0.66639850       0.00004590 </v>
    <v>       0.99033540       0.33267791       0.00001344 </v>
    <v>       0.33671128       0.33271177       0.00007236 </v>
    <v>       0.65872340       0.00546085       0.00010013 </v>
    <v>      -0.00308541       0.66524547      -0.00016430 </v>
    <v>       0.67176747       0.32935937      -0.00005222 </v>
    <v>      -0.00577255      -0.00766067      -0.00034026 </v>
    <v>       0.34267583      -0.00420521      -0.00000186 </v>
    <v>       0.33400732       0.67907037       0.00036845 </v>
    <v>       0.11302849       0.22715406       0.95111187 </v>
    <v>       0.22460639       0.11536358       0.05029035 </v>
    <v>       0.10895833       0.54911831       0.94872674 </v>
    <v>       0.21933251       0.43989671       0.04841295 </v>
    <v>       0.11235396       0.89018717       0.94783721 </v>
    <v>       0.22224177       0.77856379       0.05351332 </v>
    <v>       0.44136210       0.22436892       0.94888063 </v>
    <v>       0.55471183       0.11151030       0.05412229 </v>
    <v>       0.44693861       0.55377084       0.95118288 </v>
    <v>       0.55336974       0.44750830       0.04986363 </v>
    <v>       0.44403334       0.88866936       0.94548248 </v>
    <v>       0.55786449       0.77420924       0.05070042 </v>
    <v>       0.78493120       0.22588974       0.94704941 </v>
    <v>       0.89256291       0.11701892       0.05074438 </v>
    <v>       0.77355719       0.55800082       0.94837867 </v>
    <v>       0.89241514       0.44084179       0.05232222 </v>
    <v>       0.77413473       0.88253571       0.94895902 </v>
    <v>       0.88198143       0.77454855       0.05237979 </v>
   </varray>
  </structure>
  <varray name="forces" >
   <v>       0.41249603       0.06685319      -0.01299372 </v>
   <v>      -0.16229115      -0.11810424      -0.00090902 </v>
   <v>       0.08147153       0.02531336       0.00106971 </v>
   <v>      -0.32962822      -0.09007195      -0.05684663 </v>
   <v>      -0.11953225      -0.00358774       0.02975881 </v>
   <v>       0.09272352      -0.04722733       0.01995958 </v>
   <v>       0.16640930      -0.13978948      -0.01297622 </v>
   <v>       0.24563233       0.07480389       0.07972378 </v>
   <v>      -0.27693917       0.19675690      -0.01967721 </v>
   <v>      -0.01545657      -0.08329489       0.06115174 </v>
   <v>       0.15038996      -0.07996209      -0.06822701 </v>
   <v>      -0.04749382       0.06253061      -0.00775500 </v>
   <v>      -0.14256164       0.09703583      -0.12289396 </v>
   <v>       0.08861740       0.07549388      -0.00444033 </v>
   <v>      -0.12813299      -0.01303997       0.18613361 </v>
   <v>       0.17098183      -0.00957734      -0.02692431 </v>
   <v>      -0.07855982       0.05695765       0.25176999 </v>
   <v>      -0.10456251       0.07005116       0.10451801 </v>
   <v>       0.13074881       0.05449686       0.04527792 </v>
   <v>       0.02017482       0.07880773      -0.34926318 </v>
   <v>      -0.11117077       0.06366283      -0.08472810 </v>
   <v>      -0.01396804      -0.08220760      -0.16876526 </v>
   <v>      -0.03253174      -0.15939239      -0.06538887 </v>
   <v>       0.13608576      -0.05027964      -0.11482390 </v>
   <v>      -0.05547257       0.00284020       0.09260935 </v>
   <v>      -0.14768246      -0.02475557       0.07715323 </v>
   <v>       0.07025243      -0.02431386       0.16748700 </v>
  </varray>
  <varray name="stress" >
   <v>       0.19595838      -0.03267521      -0.31659098 </v>
   <v>      -0.03267531      -0.30405166      -0.04216499 </v>
   <v>      -0.31659088      -0.04216493      -0.26739162 </v>
  </varray>
  <energy>
   <i name="e_fr_energy">   -191.33962732 </i>
   <i name="e_wo_entrp">   -191.24640954 </i>
   <i name="e_0_energy">     -0.18643557 </i>
  </energy>
  <time name="totalsc">  378.74  379.75</time>
 </calculation>
 <calculation>
  <scstep>
   <time name="dav">   21.45   21.50</time>
   <time name="total">   21.96   22.01</time>
   <energy>
    <i name="alphaZ">     90.27597593 </i>
    <i name="ewald">  44694.98763248 </i>
    <i name="hartreedc"> -50705.54450459 </i>
    <i name="XCdc">   -233.40081382 </i>
    <i name="pawpsdc">   4085.31598619 </i>
    <i name="pawaedc">  -3501.26378187 </i>
    <i name="eentropy">     -0.18927940 </i>
    <i name="bandstr">  -1383.01371080 </i>
    <i name="atom">   6761.44252427 </i>
    <i name="e_fr_energy">   -191.38997162 </i>
    <i name="e_wo_entrp">   -191.20069222 </i>
    <i name="e_0_energy">   -191.29533192 </i>
   </energy>
  </scstep>
  <scstep>
   <time name="dav">   30.54   30.61</time>
   <time name="total">   31.04   31.12</time>
   <energy>
    <i name="e_fr_energy">   -191.44682176 </i>
    <i name="e_wo_entrp">   -191.24595132 </i>
    <i name="e_0_energy">   -191.34638654 </i>
   </energy>
  </scstep>
  <scstep>
   <time name="dav">   29.29   29.36</time>
   <time name="total">   29.79   29.87</time>
   <energy>
    <i name="e_fr_energy">   -191.39973780 </i>
    <i name="e_wo_entrp">   -191.21000212 </i>
    <i name="e_0_energy">   -191.30486996 </i>
   </energy>
  </scstep>
  <scstep>
   <time name="dav">   28.18   28.25</time>
   <time name="total">   28.68   28.76</time>
   <energy>
    <i name="e_fr_energy">   -191.40002572 </i>
    <i name="e_wo_entrp">   -191.20887161 </i>
    <i name="e_0_energy">   -191.30444866 </i>
   </energy>
  </scstep>
  <scstep>
   <time name="dav">   28.22   28.29</time>
   <time name="total">   28.72   28.80</time>
   <energy>
    <i name="e_fr_energy">   -191.39680885 </i>
    <i name="e_wo_entrp">   -191.20585141 </i>
    <i name="e_0_energy">   -191.30133013 </i>
   </energy>
  </scstep>
  <scstep>
   <time name="dav">   28.13   28.20</time>
   <time name="total">   28.64   28.71</time>
   <energy>
    <i name="e_fr_energy">   -191.39686879 </i>
    <i name="e_wo_entrp">   -191.20563606 </i>
    <i name="e_0_energy">   -191.30125242 </i>
   </energy>
  </scstep>
  <scstep>
   <time name="dav">   27.42   27.49</time>
   <time name="total">   27.93   28.00</time>
   <energy>
    <i name="e_fr_energy">   -191.39685237 </i>
    <i name="e_wo_entrp">   -191.20585643 </i>
    <i name="e_0_energy">   -191.30135440 </i>
   </energy>
  </scstep>
  <scstep>
   <time name="dav">   24.27   24.33</time>
   <time name="total">   24.77   24.84</time>
   <energy>
    <i name="e_fr_energy">   -191.39639146 </i>
    <i name="e_wo_entrp">   -191.20534918 </i>
    <i name="e_0_energy">   -191.30087032 </i>
   </energy>
  </scstep>
  <scstep>
   <time name="dav">   17.80   17.84</time>
   <time name="total">   17.83   17.88</time>
   <energy>
    <i name="alphaZ">     90.27597593 </i>
    <i name="ewald">  44694.98763248 </i>
    <i name="hartreedc"> -50706.29679557 </i>
    <i name="XCdc">   -233.38814039 </i>
    <i name="pawpsdc">   4082.79680692 </i>
    <i name="pawaedc">  -3498.70398835 </i>
    <i name="eentropy">     -0.19104827 </i>
    <i name="bandstr">  -1382.31937406 </i>
    <i name="atom">   6761.44252427 </i>
    <i name="e_fr_energy">   -191.39640704 </i>
    <i name="e_wo_entrp">   -191.20535877 </i>
    <i name="e_0_energy">   -191.30088290 </i>
   </energy>
  </scstep>
  <structure>
   <crystal>
    <varray name="basis" >
     <v>       8.28565755       4.77043707       0.00000000 </v>
     <v>      -8.28545231       4.77008657       0.00000000 </v>
     <v>       0.00000000       0.00000000      30.00000000 </v>
    </varray>
    <i name="volume">   2371.45597974 </i>
    <varray name="rec_basis" >
     <v>       0.06034377       0.10481475       0.00000000 </v>
     <v>      -0.06034821       0.10481735       0.00000000 </v>
     <v>       0.00000000       0.00000000       0.03333333 </v>
    </varray>
   </crystal>
   <varray name="positions" >
    <v>       0.67600129       0.66553557       0.00002516 </v>
    <v>       0.98927086       0.33255447       0.00001184 </v>
    <v>       0.33707506       0.33260300       0.00007407 </v>
    <v>       0.65731412       0.00596357       0.00000872 </v>
    <v>      -0.00345049       0.66557495      -0.00011638 </v>
    <v>       0.67179733       0.32885336      -0.00002012 </v>
    <v>      -0.00599214      -0.00884722      -0.00036104 </v>
    <v>       0.34376412      -0.00454025       0.00012615 </v>
    <v>       0.33419424       0.68086345       0.00033675 </v>
    <v>       0.11256292       0.22677777       0.95121124 </v>
    <v>       0.22463991       0.11452202       0.05017956 </v>
    <v>       0.10913624       0.54957304       0.94871594 </v>
    <v>       0.21940821       0.44080179       0.04821466 </v>
    <v>       0.11299232       0.89031037       0.94783167 </v>
    <v>       0.22180396       0.77887069       0.05381008 </v>
    <v>       0.44181085       0.22382251       0.94883902 </v>
    <v>       0.55477028       0.11202561       0.05452418 </v>
    <v>       0.44698742       0.55442858       0.95135179 </v>
    <v>       0.55402486       0.44740255       0.04993478 </v>
    <v>       0.44448912       0.88900811       0.94492418 </v>
    <v>       0.55786167       0.77485393       0.05056289 </v>
    <v>       0.78447472       0.22551495       0.94678077 </v>
    <v>       0.89166384       0.11630830       0.05063797 </v>
    <v>       0.77370005       0.55735117       0.94819609 </v>
    <v>       0.89226763       0.44101802       0.05246885 </v>
    <v>       0.77358171       0.88284161       0.94908446 </v>
    <v>       0.88206437       0.77422253       0.05264663 </v>
   </varray>
  </structure>
  <varray name="forces" >
   <v>       0.42503576       0.04024304      -0.01960105 </v>
   <v>      -0.15765389      -0.12640742       0.00390384 </v>
   <v>       0.07674176       0.03482633      -0.02268889 </v>
   <v>      -0.36970389      -0.06951824      -0.01590897 </v>
   <v>      -0.12622705      -0.00443951       0.01614620 </v>
   <v>       0.09022925      -0.04393554       0.01454217 </v>
   <v>       0.18770968      -0.14179638      -0.03020852 </v>
   <v>       0.27242874       0.07726975       0.02933705 </v>
   <v>      -0.31344872       0.20132024      -0.00941781 </v>
   <v>      -0.00867617      -0.06140304       0.09825464 </v>
   <v>       0.09508235      -0.05095447      -0.04669372 </v>
   <v>      -0.04328554       0.03649671       0.01184334 </v>
   <v>      -0.10141550       0.06878647      -0.14535089 </v>
   <v>       0.06197630       0.06010349       0.01641958 </v>
   <v>      -0.08296540      -0.00809191       0.11998012 </v>
   <v>       0.10638647      -0.01382165      -0.00328283 </v>
   <v>      -0.05065343       0.04571762       0.17830855 </v>
   <v>      -0.06429698       0.05652407       0.12922800 </v>
   <v>       0.08287456       0.03969131       0.03988684 </v>
   <v>      -0.02549304       0.04805378      -0.23018339 </v>
   <v>      -0.05771545       0.05110354      -0.12695765 </v>
   <v>      -0.02447861      -0.04459511      -0.12419547 </v>
   <v>      -0.01151847      -0.11468831      -0.10450458 </v>
   <v>       0.09933664      -0.02863705      -0.09661695 </v>
   <v>      -0.02626407       0.00669884       0.05746077 </v>
   <v>      -0.08570885      -0.03511642       0.11250943 </v>
   <v>       0.05170356      -0.02343012       0.14779020 </v>
  </varray>
  <varray name="stress" >
   <v>      -0.05528253       0.01698500      -0.12443543 </v>
   <v>       0.01698520      -0.13953934      -0.00344375 </v>
   <v>      -0.12443534      -0.00344368      -0.99058764 </v>
  </varray>
  <energy>
   <i name="e_fr_energy">   -191.39640704 </i>
   <i name="e_wo_entrp">   -191.30088290 </i>
   <i name="e_0_energy">     -0.19104827 </i>
  </energy>
  <time name="totalsc">  280.77  281.51</time>
 </calculation>
 <calculation>
  <scstep>
   <time name="dav">   21.46   21.51</time>
   <time name="total">   21.96   22.02</time>
   <energy>
    <i name="alphaZ">     90.39511755 </i>
    <i name="ewald">  44738.35303936 </i>
    <i name="hartreedc"> -50751.21952106 </i>
    <i name="XCdc">   -233.35147900 </i>
    <i name="pawpsdc">   4082.73634359 </i>
    <i name="pawaedc">  -3498.64244781 </i>
    <i name="eentropy">     -0.19072590 </i>
    <i name="bandstr">  -1380.99039057 </i>
    <i name="atom">   6761.44252427 </i>
    <i name="e_fr_energy">   -191.46753957 </i>
    <i name="e_wo_entrp">   -191.27681368 </i>
    <i name="e_0_energy">   -191.37217663 </i>
   </energy>
  </scstep>
  <scstep>
   <time name="dav">   31.54   31.61</time>
   <time name="total">   32.04   32.13</time>
   <energy>
    <i name="e_fr_energy">   -191.59149559 </i>
    <i name="e_wo_entrp">   -191.37164465 </i>
    <i name="e_0_energy">   -191.48157012 </i>
   </energy>
  </scstep>
  <scstep>
   <time name="dav">   29.34   29.41</time>
   <time name="total">   29.84   29.92</time>
   <energy>
    <i name="e_fr_energy">   -191.48506215 </i>
    <i name="e_wo_entrp">   -191.29300501 </i>
    <i name="e_0_energy">   -191.38903358 </i>
   </energy>
  </scstep>
  <scstep>
   <time name="dav">   28.58   28.65</time>
   <time name="total">   29.08   29.16</time>
   <energy>
    <i name="e_fr_energy">   -191.48412482 </i>
    <i name="e_wo_entrp">   -191.29011993 </i>
    <i name="e_0_energy">   -191.38712237 </i>
   </energy>
  </scstep>
  <scstep>
   <time name="dav">   28.71   28.78</time>
   <time name="total">   29.22   29.29</time>
   <energy>
    <i name="e_fr_energy">   -191.47591859 </i>
    <i name="e_wo_entrp">   -191.28145326 </i>
    <i name="e_0_energy">   -191.37868592 </i>
   </energy>
  </scstep>
  <scstep>
   <time name="dav">   27.91   27.98</time>
   <time name="total">   28.42   28.49</time>
   <energy>
    <i name="e_fr_energy">   -191.47602601 </i>
    <i name="e_wo_entrp">   -191.28078314 </i>
    <i name="e_0_energy">   -191.37840457 </i>
   </energy>
  </scstep>
  <scstep>
[...]
      <set comment="kpoint 31">
       <r>  -17.5327    1.0000 </r>
       <r>  -17.2299    1.0000 </r>
       <r>  -16.9093    1.0000 </r>
       <r>  -16.6400    1.0000 </r>
       <r>  -16.5053    1.0000 </r>
       <r>  -16.3962    1.0000 </r>
       <r>  -16.2793    1.0000 </r>
       <r>  -16.2137    1.0000 </r>
       <r>  -16.0643    1.0000 </r>
       <r>  -15.9697    1.0000 </r>
       <r>  -15.8948    1.0000 </r>
       <r>  -15.8470    1.0000 </r>
       <r>  -15.7420    1.0000 </r>
       <r>  -15.6999    1.0000 </r>
       <r>  -15.6584    1.0000 </r>
       <r>  -15.5487    1.0000 </r>
       <r>  -15.4321    1.0000 </r>
       <r>  -15.3659    1.0000 </r>
       <r>   -9.7347    1.0000 </r>
       <r>   -9.4505    1.0000 </r>
       <r>   -9.3228    1.0000 </r>
       <r>   -9.0078    1.0000 </r>
       <r>   -8.8035    1.0000 </r>
       <r>   -8.6984    1.0000 </r>
       <r>   -8.5620    1.0000 </r>
       <r>   -8.4318    1.0000 </r>
       <r>   -8.3940    1.0000 </r>
       <r>   -8.3286    1.0000 </r>
       <r>   -8.2711    1.0000 </r>
       <r>   -8.2059    1.0000 </r>
       <r>   -8.1720    1.0000 </r>
       <r>   -8.0937    1.0000 </r>
       <r>   -8.0119    1.0000 </r>
       <r>   -7.9066    1.0000 </r>
       <r>   -7.8069    1.0000 </r>
       <r>   -7.6121    1.0000 </r>
       <r>   -7.5893    1.0000 </r>
       <r>   -7.4534    1.0000 </r>
       <r>   -7.2992    1.0000 </r>
       <r>   -7.1479    1.0000 </r>
       <r>   -7.1010    1.0000 </r>
       <r>   -7.0531    1.0000 </r>
       <r>   -7.0132    1.0000 </r>
       <r>   -6.9653    1.0000 </r>
       <r>   -6.8827    1.0000 </r>
       <r>   -6.8642    1.0000 </r>
       <r>   -6.7226    1.0000 </r>
       <r>   -6.6728    1.0000 </r>
       <r>   -6.5791    1.0000 </r>
       <r>   -6.5064    1.0000 </r>
       <r>   -6.4537    1.0000 </r>
       <r>   -6.3486    1.0000 </r>
       <r>   -6.2476    1.0000 </r>
       <r>   -6.1790    1.0000 </r>
       <r>   -6.1087    1.0000 </r>
       <r>   -6.0244    1.0000 </r>
       <r>   -5.9435    1.0000 </r>
       <r>   -5.8904    1.0000 </r>
       <r>   -5.8181    1.0000 </r>
       <r>   -5.7774    1.0000 </r>
       <r>   -5.7293    1.0000 </r>
       <r>   -5.6134    1.0000 </r>
       <r>   -5.4984    1.0000 </r>
       <r>   -5.3614    1.0000 </r>
       <r>   -5.3055    1.0000 </r>
       <r>   -5.1626    1.0000 </r>
       <r>   -5.0532    1.0000 </r>
       <r>   -4.8831    1.0000 </r>
       <r>   -4.7818    1.0000 </r>
       <r>   -4.7391    1.0000 </r>
       <r>   -4.5068    1.0000 </r>
       <r>   -4.4604    1.0000 </r>
       <r>   -4.4415    1.0000 </r>
       <r>   -4.3506    1.0000 </r>
       <r>   -4.0662    1.0000 </r>
       <r>   -4.0219    1.0000 </r>
       <r>   -3.9067    0.9999 </r>
       <r>   -3.7657    0.9976 </r>
       <r>   -3.6260    0.9661 </r>
       <r>   -3.3455    0.4376 </r>
       <r>   -3.0192    0.0069 </r>
       <r>   -2.7912    0.0000 </r>
       <r>   -2.6777    0.0000 </r>
       <r>   -2.5810    0.0000 </r>
       <r>   -2.5033    0.0000 </r>
       <r>   -2.4161    0.0000 </r>
       <r>   -2.3424    0.0000 </r>
       <r>   -2.1965    0.0000 </r>
       <r>   -2.1276    0.0000 </r>
       <r>   -2.0313    0.0000 </r>
       <r>   -1.8132    0.0000 </r>
       <r>   -1.5587    0.0000 </r>
       <r>   -1.3656    0.0000 </r>
       <r>   -1.2753    0.0000 </r>
       <r>   -1.2322    0.0000 </r>
       <r>   -1.1850    0.0000 </r>
       <r>   -1.0932    0.0000 </r>
       <r>   -1.0363    0.0000 </r>
       <r>   -1.0050    0.0000 </r>
       <r>   -0.8840    0.0000 </r>
       <r>   -0.8311    0.0000 </r>
       <r>   -0.7634    0.0000 </r>
       <r>   -0.6715    0.0000 </r>
       <r>   -0.5471    0.0000 </r>
       <r>   -0.4429    0.0000 </r>
       <r>   -0.3674    0.0000 </r>
       <r>   -0.2358    0.0000 </r>
       <r>   -0.2073    0.0000 </r>
       <r>   -0.0363    0.0000 </r>
       <r>    0.0425    0.0000 </r>
       <r>    0.2894    0.0000 </r>
       <r>    0.5524    0.0000 </r>
       <r>    0.6698    0.0000 </r>
       <r>    0.9639    0.0000 </r>
       <r>    1.1168    0.0000 </r>
       <r>    1.2537    0.0000 </r>
       <r>    1.4380    0.0000 </r>
       <r>    2.1211    0.0000 </r>
       <r>    2.2881    0.0000 </r>
       <r>    2.3772    0.0000 </r>
      </set>
      <set comment="kpoint 32">
       <r>  -17.5374    1.0000 </r>
       <r>  -17.1803    1.0000 </r>
       <r>  -17.0083    1.0000 </r>
       <r>  -16.6420    1.0000 </r>
       <r>  -16.4146    1.0000 </r>
       <r>  -16.3668    1.0000 </r>
       <r>  -16.2729    1.0000 </r>
       <r>  -16.2025    1.0000 </r>
       <r>  -16.1090    1.0000 </r>
       <r>  -15.9901    1.0000 </r>
       <r>  -15.9040    1.0000 </r>
       <r>  -15.8494    1.0000 </r>
       <r>  -15.7846    1.0000 </r>
       <r>  -15.7012    1.0000 </r>
       <r>  -15.6405    1.0000 </r>
       <r>  -15.5547    1.0000 </r>
       <r>  -15.4147    1.0000 </r>
       <r>  -15.3572    1.0000 </r>
       <r>   -9.6597    1.0000 </r>
       <r>   -9.5275    1.0000 </r>
       <r>   -9.4131    1.0000 </r>
       <r>   -9.0266    1.0000 </r>
       <r>   -8.7278    1.0000 </r>
       <r>   -8.5383    1.0000 </r>
       <r>   -8.4916    1.0000 </r>
       <r>   -8.4547    1.0000 </r>
       <r>   -8.3840    1.0000 </r>
       <r>   -8.3238    1.0000 </r>
       <r>   -8.3028    1.0000 </r>
       <r>   -8.2373    1.0000 </r>
       <r>   -8.1874    1.0000 </r>
       <r>   -8.0878    1.0000 </r>
       <r>   -8.0464    1.0000 </r>
       <r>   -7.9562    1.0000 </r>
       <r>   -7.8711    1.0000 </r>
       <r>   -7.6396    1.0000 </r>
       <r>   -7.5259    1.0000 </r>
       <r>   -7.4447    1.0000 </r>
       <r>   -7.3035    1.0000 </r>
       <r>   -7.1995    1.0000 </r>
       <r>   -7.1106    1.0000 </r>
       <r>   -7.0541    1.0000 </r>
       <r>   -7.0131    1.0000 </r>
       <r>   -6.9682    1.0000 </r>
       <r>   -6.9295    1.0000 </r>
       <r>   -6.8513    1.0000 </r>
       <r>   -6.7307    1.0000 </r>
       <r>   -6.6583    1.0000 </r>
       <r>   -6.5050    1.0000 </r>
       <r>   -6.4500    1.0000 </r>
       <r>   -6.4333    1.0000 </r>
       <r>   -6.3539    1.0000 </r>
       <r>   -6.2579    1.0000 </r>
       <r>   -6.2173    1.0000 </r>
       <r>   -6.1421    1.0000 </r>
       <r>   -6.0429    1.0000 </r>
       <r>   -5.9525    1.0000 </r>
       <r>   -5.8858    1.0000 </r>
       <r>   -5.8047    1.0000 </r>
       <r>   -5.7408    1.0000 </r>
       <r>   -5.6691    1.0000 </r>
       <r>   -5.5796    1.0000 </r>
       <r>   -5.4899    1.0000 </r>
       <r>   -5.3986    1.0000 </r>
       <r>   -5.2979    1.0000 </r>
       <r>   -5.1742    1.0000 </r>
       <r>   -5.0974    1.0000 </r>
       <r>   -5.0071    1.0000 </r>
       <r>   -4.7708    1.0000 </r>
       <r>   -4.6691    1.0000 </r>
       <r>   -4.4956    1.0000 </r>
       <r>   -4.4500    1.0000 </r>
       <r>   -4.3915    1.0000 </r>
       <r>   -4.3649    1.0000 </r>
       <r>   -4.1347    1.0000 </r>
       <r>   -4.0614    1.0000 </r>
       <r>   -3.9192    1.0000 </r>
       <r>   -3.7732    0.9979 </r>
       <r>   -3.6139    0.9592 </r>
       <r>   -3.3608    0.4807 </r>
       <r>   -3.0085    0.0055 </r>
       <r>   -2.8003    0.0000 </r>
       <r>   -2.6411    0.0000 </r>
       <r>   -2.5414    0.0000 </r>
       <r>   -2.4918    0.0000 </r>
       <r>   -2.3733    0.0000 </r>
       <r>   -2.2932    0.0000 </r>
       <r>   -2.1862    0.0000 </r>
       <r>   -2.1155    0.0000 </r>
       <r>   -2.0250    0.0000 </r>
       <r>   -1.7638    0.0000 </r>
       <r>   -1.6023    0.0000 </r>
       <r>   -1.4378    0.0000 </r>
       <r>   -1.3193    0.0000 </r>
       <r>   -1.2841    0.0000 </r>
       <r>   -1.2133    0.0000 </r>
       <r>   -1.0978    0.0000 </r>
       <r>   -1.0536    0.0000 </r>
       <r>   -0.9907    0.0000 </r>
       <r>   -0.8921    0.0000 </r>
       <r>   -0.8163    0.0000 </r>
       <r>   -0.7101    0.0000 </r>
       <r>   -0.6775    0.0000 </r>
       <r>   -0.5434    0.0000 </r>
       <r>   -0.4792    0.0000 </r>
       <r>   -0.3352    0.0000 </r>
       <r>   -0.1931    0.0000 </r>
       <r>   -0.1397    0.0000 </r>
       <r>   -0.0136    0.0000 </r>
       <r>    0.1094    0.0000 </r>
       <r>    0.3451    0.0000 </r>
       <r>    0.5232    0.0000 </r>
       <r>    0.6597    0.0000 </r>
       <r>    0.9430    0.0000 </r>
       <r>    1.0593    0.0000 </r>
       <r>    1.2173    0.0000 </r>
       <r>    1.3110    0.0000 </r>
       <r>    2.0867    0.0000 </r>
       <r>    2.2605    0.0000 </r>
       <r>    2.5530    0.0000 </r>
      </set>
      <set comment="kpoint 33">
       <r>  -17.5162    1.0000 </r>
       <r>  -17.2769    1.0000 </r>
       <r>  -16.8809    1.0000 </r>
       <r>  -16.6438    1.0000 </r>
       <r>  -16.4876    1.0000 </r>
       <r>  -16.3883    1.0000 </r>
       <r>  -16.2730    1.0000 </r>
       <r>  -16.1824    1.0000 </r>
       <r>  -16.0633    1.0000 </r>
       <r>  -16.0025    1.0000 </r>
       <r>  -15.9045    1.0000 </r>
       <r>  -15.8461    1.0000 </r>
       <r>  -15.8229    1.0000 </r>
       <r>  -15.6813    1.0000 </r>
       <r>  -15.6123    1.0000 </r>
       <r>  -15.5491    1.0000 </r>
       <r>  -15.4301    1.0000 </r>
       <r>  -15.3709    1.0000 </r>
       <r>   -9.7099    1.0000 </r>
       <r>   -9.4425    1.0000 </r>
       <r>   -9.3478    1.0000 </r>
       <r>   -9.0298    1.0000 </r>
       <r>   -8.8624    1.0000 </r>
       <r>   -8.6868    1.0000 </r>
       <r>   -8.4961    1.0000 </r>
       <r>   -8.4335    1.0000 </r>
       <r>   -8.3719    1.0000 </r>
       <r>   -8.3296    1.0000 </r>
       <r>   -8.2700    1.0000 </r>
       <r>   -8.2409    1.0000 </r>
       <r>   -8.1319    1.0000 </r>
       <r>   -8.0359    1.0000 </r>
       <r>   -8.0117    1.0000 </r>
       <r>   -7.9205    1.0000 </r>
       <r>   -7.8163    1.0000 </r>
       <r>   -7.6726    1.0000 </r>
       <r>   -7.5795    1.0000 </r>
       <r>   -7.4003    1.0000 </r>
       <r>   -7.2840    1.0000 </r>
       <r>   -7.2136    1.0000 </r>
       <r>   -7.1576    1.0000 </r>
       <r>   -7.0925    1.0000 </r>
       <r>   -7.0349    1.0000 </r>
       <r>   -6.9540    1.0000 </r>
       <r>   -6.8678    1.0000 </r>
       <r>   -6.8166    1.0000 </r>
       <r>   -6.6906    1.0000 </r>
       <r>   -6.6109    1.0000 </r>
       <r>   -6.5410    1.0000 </r>
       <r>   -6.4666    1.0000 </r>
       <r>   -6.3948    1.0000 </r>
       <r>   -6.3393    1.0000 </r>
       <r>   -6.2818    1.0000 </r>
       <r>   -6.2245    1.0000 </r>
       <r>   -6.1491    1.0000 </r>
       <r>   -6.0639    1.0000 </r>
       <r>   -5.9787    1.0000 </r>
       <r>   -5.9176    1.0000 </r>
       <r>   -5.8478    1.0000 </r>
       <r>   -5.7898    1.0000 </r>
       <r>   -5.7181    1.0000 </r>
       <r>   -5.6611    1.0000 </r>
       <r>   -5.5846    1.0000 </r>
       <r>   -5.4461    1.0000 </r>
       <r>   -5.2140    1.0000 </r>
       <r>   -5.1019    1.0000 </r>
       <r>   -5.0059    1.0000 </r>
       <r>   -4.8675    1.0000 </r>
       <r>   -4.7709    1.0000 </r>
       <r>   -4.6094    1.0000 </r>
       <r>   -4.4977    1.0000 </r>
       <r>   -4.4765    1.0000 </r>
       <r>   -4.3560    1.0000 </r>
       <r>   -4.3221    1.0000 </r>
       <r>   -4.2144    1.0000 </r>
       <r>   -4.1652    1.0000 </r>
       <r>   -3.9293    1.0000 </r>
       <r>   -3.8221    0.9993 </r>
       <r>   -3.5955    0.9464 </r>
       <r>   -3.3733    0.5157 </r>
       <r>   -3.0968    0.0277 </r>
       <r>   -2.7264    0.0000 </r>
       <r>   -2.6114    0.0000 </r>
       <r>   -2.5319    0.0000 </r>
       <r>   -2.4394    0.0000 </r>
       <r>   -2.3614    0.0000 </r>
       <r>   -2.2422    0.0000 </r>
       <r>   -2.1854    0.0000 </r>
       <r>   -2.0913    0.0000 </r>
       <r>   -1.9779    0.0000 </r>
       <r>   -1.6961    0.0000 </r>
       <r>   -1.6221    0.0000 </r>
       <r>   -1.4906    0.0000 </r>
       <r>   -1.3869    0.0000 </r>
       <r>   -1.3336    0.0000 </r>
       <r>   -1.2400    0.0000 </r>
       <r>   -1.1493    0.0000 </r>
       <r>   -1.0555    0.0000 </r>
       <r>   -1.0140    0.0000 </r>
       <r>   -0.8828    0.0000 </r>
       <r>   -0.7936    0.0000 </r>
       <r>   -0.7099    0.0000 </r>
       <r>   -0.6490    0.0000 </r>
       <r>   -0.5783    0.0000 </r>
       <r>   -0.5037    0.0000 </r>
       <r>   -0.2762    0.0000 </r>
       <r>   -0.1550    0.0000 </r>
       <r>   -0.1133    0.0000 </r>
       <r>   -0.0017    0.0000 </r>
       <r>    0.2055    0.0000 </r>
       <r>    0.3792    0.0000 </r>
       <r>    0.5209    0.0000 </r>
       <r>    0.6497    0.0000 </r>
       <r>    0.9101    0.0000 </r>
       <r>    1.0419    0.0000 </r>
       <r>    1.1322    0.0000 </r>
       <r>    1.2887    0.0000 </r>
       <r>    2.1133    0.0000 </r>
       <r>    2.2937    0.0000 </r>
       <r>    2.3637    0.0000 </r>
      </set>
      <set comment="kpoint 34">
       <r>  -17.4919    1.0000 </r>
       <r>  -17.3380    1.0000 </r>
       <r>  -16.7308    1.0000 </r>
       <r>  -16.6529    1.0000 </r>
       <r>  -16.6238    1.0000 </r>
       <r>  -16.3956    1.0000 </r>
       <r>  -16.2557    1.0000 </r>
       <r>  -16.2015    1.0000 </r>
       <r>  -16.0185    1.0000 </r>
       <r>  -15.9931    1.0000 </r>
       <r>  -15.9187    1.0000 </r>
       <r>  -15.8596    1.0000 </r>
       <r>  -15.8087    1.0000 </r>
       <r>  -15.6768    1.0000 </r>
       <r>  -15.5964    1.0000 </r>
       <r>  -15.5395    1.0000 </r>
       <r>  -15.4420    1.0000 </r>
       <r>  -15.3895    1.0000 </r>
       <r>   -9.7441    1.0000 </r>
       <r>   -9.3643    1.0000 </r>
       <r>   -9.2705    1.0000 </r>
       <r>   -8.9957    1.0000 </r>
       <r>   -8.9755    1.0000 </r>
       <r>   -8.8359    1.0000 </r>
       <r>   -8.5216    1.0000 </r>
       <r>   -8.4373    1.0000 </r>
       <r>   -8.3851    1.0000 </r>
       <r>   -8.3067    1.0000 </r>
       <r>   -8.2610    1.0000 </r>
       <r>   -8.2153    1.0000 </r>
       <r>   -8.1117    1.0000 </r>
       <r>   -8.0499    1.0000 </r>
       <r>   -7.9484    1.0000 </r>
       <r>   -7.8718    1.0000 </r>
       <r>   -7.7987    1.0000 </r>
       <r>   -7.7122    1.0000 </r>
       <r>   -7.5003    1.0000 </r>
       <r>   -7.4256    1.0000 </r>
       <r>   -7.3112    1.0000 </r>
       <r>   -7.2069    1.0000 </r>
       <r>   -7.1395    1.0000 </r>
       <r>   -7.1045    1.0000 </r>
       <r>   -7.0370    1.0000 </r>
       <r>   -6.9366    1.0000 </r>
       <r>   -6.9046    1.0000 </r>
       <r>   -6.7754    1.0000 </r>
       <r>   -6.6618    1.0000 </r>
       <r>   -6.6188    1.0000 </r>
       <r>   -6.5234    1.0000 </r>
       <r>   -6.4801    1.0000 </r>
       <r>   -6.4338    1.0000 </r>
       <r>   -6.2979    1.0000 </r>
       <r>   -6.2589    1.0000 </r>
       <r>   -6.2273    1.0000 </r>
       <r>   -6.1396    1.0000 </r>
       <r>   -6.1301    1.0000 </r>
       <r>   -6.0284    1.0000 </r>
       <r>   -5.9111    1.0000 </r>
       <r>   -5.8588    1.0000 </r>
       <r>   -5.8316    1.0000 </r>
       <r>   -5.7626    1.0000 </r>
       <r>   -5.6817    1.0000 </r>
       <r>   -5.5881    1.0000 </r>
       <r>   -5.5222    1.0000 </r>
       <r>   -5.1848    1.0000 </r>
       <r>   -5.1329    1.0000 </r>
       <r>   -4.8126    1.0000 </r>
       <r>   -4.7679    1.0000 </r>
       <r>   -4.7253    1.0000 </r>
       <r>   -4.6371    1.0000 </r>
       <r>   -4.5622    1.0000 </r>
       <r>   -4.4549    1.0000 </r>
       <r>   -4.3612    1.0000 </r>
       <r>   -4.2938    1.0000 </r>
       <r>   -4.2591    1.0000 </r>
       <r>   -4.2106    1.0000 </r>
       <r>   -3.9282    1.0000 </r>
       <r>   -3.8320    0.9995 </r>
       <r>   -3.6273    0.9668 </r>
       <r>   -3.3710    0.5092 </r>
       <r>   -3.1434    0.0563 </r>
       <r>   -2.6896    0.0000 </r>
       <r>   -2.6018    0.0000 </r>
       <r>   -2.5273    0.0000 </r>
       <r>   -2.4089    0.0000 </r>
       <r>   -2.3574    0.0000 </r>
       <r>   -2.2382    0.0000 </r>
       <r>   -2.1832    0.0000 </r>
       <r>   -2.0644    0.0000 </r>
       <r>   -1.9640    0.0000 </r>
       <r>   -1.6544    0.0000 </r>
       <r>   -1.6033    0.0000 </r>
       <r>   -1.5282    0.0000 </r>
       <r>   -1.4191    0.0000 </r>
       <r>   -1.3521    0.0000 </r>
       <r>   -1.2429    0.0000 </r>
       <r>   -1.1926    0.0000 </r>
       <r>   -1.0624    0.0000 </r>
       <r>   -1.0329    0.0000 </r>
       <r>   -0.8566    0.0000 </r>
       <r>   -0.7827    0.0000 </r>
       <r>   -0.7313    0.0000 </r>
       <r>   -0.6589    0.0000 </r>
       <r>   -0.5888    0.0000 </r>
       <r>   -0.4834    0.0000 </r>
       <r>   -0.2500    0.0000 </r>
       <r>   -0.1711    0.0000 </r>
       <r>   -0.1032    0.0000 </r>
       <r>    0.0162    0.0000 </r>
       <r>    0.2307    0.0000 </r>
       <r>    0.4011    0.0000 </r>
       <r>    0.5430    0.0000 </r>
       <r>    0.6264    0.0000 </r>
       <r>    0.9075    0.0000 </r>
       <r>    1.0225    0.0000 </r>
       <r>    1.1058    0.0000 </r>
       <r>    1.3034    0.0000 </r>
       <r>    2.1821    0.0000 </r>
       <r>    2.2280    0.0000 </r>
       <r>    2.3765    0.0000 </r>
      </set>
     </set>
    </set>
   </array>
  </eigenvalues>
  <separator name="orbital magnetization" >
   <v name="MAGDIPOLOUT">      0.00000000      0.00000000      0.00000000</v>
  </separator>
 </calculation>
 <structure name="finalpos" >
  <crystal>
   <varray name="basis" >
    <v>       8.38894379       4.81219133       0.00000000 </v>
    <v>      -8.39567349       4.82406646       0.00000000 </v>
    <v>       0.00000000       0.00000000      30.00000000 </v>
   </varray>
   <i name="volume">   2426.11228453 </i>
   <varray name="rec_basis" >
    <v>       0.05965181       0.10381638       0.00000000 </v>
    <v>      -0.05950497       0.10373317       0.00000000 </v>
    <v>       0.00000000       0.00000000       0.03333333 </v>
   </varray>
  </crystal>
  <varray name="positions" >
   <v>       0.69312600       0.65088548       0.00222723 </v>
   <v>       0.97768155       0.33696883      -0.00080871 </v>
   <v>       0.31832933       0.36155519      -0.00366717 </v>
   <v>       0.64654321       0.01687235      -0.00247143 </v>
   <v>       0.00856106       0.67612589       0.00022475 </v>
   <v>       0.67917857       0.32069005       0.00136244 </v>
   <v>       0.01352550      -0.02896459       0.00191222 </v>
   <v>       0.33568464      -0.01920570       0.00068914 </v>
   <v>       0.32640200       0.68867501      -0.00062399 </v>
   <v>       0.10222435       0.21596792       0.95349184 </v>
   <v>       0.22992047       0.12107260       0.04861996 </v>
   <v>       0.11029763       0.55018292       0.94774139 </v>
   <v>       0.21319478       0.44854577       0.04873951 </v>
   <v>       0.11839678       0.88611664       0.94486556 </v>
   <v>       0.22147822       0.77869390       0.05682239 </v>
   <v>       0.43697753       0.22748491       0.95634793 </v>
   <v>       0.54969657       0.11060880       0.05563247 </v>
   <v>       0.45698734       0.56931326       0.95197214 </v>
   <v>       0.54838998       0.44207495       0.04782947 </v>
   <v>       0.44291485       0.89147505       0.94232250 </v>
   <v>       0.56122519       0.77659574       0.04443487 </v>
   <v>       0.78108114       0.22524980       0.94398864 </v>
   <v>       0.88970081       0.10745589       0.04363881 </v>
   <v>       0.78016104       0.55148600       0.94869581 </v>
   <v>       0.89163251       0.44102894       0.05347831 </v>
   <v>       0.77677994       0.88374903       0.95639909 </v>
   <v>       0.88812350       0.76750983       0.05613471 </v>
  </varray>
 </structure>
</modeling>
