unknown system                          
           1
     8.858448    5.103548    0.000000
    -8.858382    5.103436    0.000000
     0.000000    0.000000   30.000000
   V    Mo   W    S 
   3   3   3  18
Direct configuration=     1
   0.66666669  0.66666669  0.00000000
   1.00000000  0.33333334  0.00000000
   0.33333334  0.33333334  0.00000000
   0.66666669  0.00000000  0.00000000
   0.00000000  0.66666669  0.00000000
   0.66666669  0.33333334  0.00000000
   0.00000000  0.00000000  0.00000000
   0.33333334  0.00000000  0.00000000
   0.33333334  0.66666669  0.00000000
   0.11068511  0.22244981  0.95539999
   0.22244981  0.11068511  0.04460000
   0.11068511  0.55578315  0.95539999
   0.22244981  0.44401845  0.04460000
   0.11068511  0.88911647  0.95539999
   0.22244981  0.77735180  0.04460000
   0.44401845  0.22244981  0.95539999
   0.55578315  0.11068511  0.04460000
   0.44401845  0.55578315  0.95539999
   0.55578315  0.44401845  0.04460000
   0.44401845  0.88911647  0.95539999
   0.55578315  0.77735180  0.04460000
   0.77735180  0.22244981  0.95539999
   0.88911647  0.11068511  0.04460000
   0.77735180  0.55578315  0.95539999
   0.88911647  0.44401845  0.04460000
   0.77735180  0.88911647  0.95539999
   0.88911647  0.77735180  0.04460000
unknown system                          
           1
     8.669621    4.997417    0.000000
    -8.669442    4.997108    0.000000
     0.000000    0.000000   30.000000
   V    Mo   W    S 
   3   3   3  18
Direct configuration=     2
   0.66758998  0.66628902  0.00018953
   0.99803628  0.33340091 -0.00016484
   0.33443055  0.33365066  0.00002732
   0.66647817  0.00128382 -0.00016680
  -0.00132113  0.66531924  0.00012322
   0.66804636  0.33350840  0.00003680
  -0.00162982 -0.00103771 -0.00008173
   0.33501293  0.00017313 -0.00003184
   0.33328954  0.66734265  0.00003965
   0.11245160  0.22562375  0.95312747
   0.22388458  0.11463346  0.04807003
   0.10972094  0.55124815  0.95193435
   0.22064229  0.44089984  0.04683266
   0.11161412  0.88971450  0.95081493
   0.22282393  0.77817048  0.04930911
   0.44141799  0.22350950  0.95202133
   0.55438416  0.11056689  0.04925596
   0.44608501  0.55371694  0.95305887
   0.55332520  0.44665072  0.04695185
   0.44363659  0.88844929  0.95064258
   0.55694749  0.77467610  0.04796352
   0.78228102  0.22433832  0.95186059
   0.89151820  0.11506720  0.04804951
   0.77523394  0.55780382  0.95200253
   0.89120428  0.44203377  0.04803561
   0.77646171  0.88486869  0.95195228
   0.88464854  0.77631291  0.04814541
unknown system                          
           1
     8.486868    4.898187    0.000000
    -8.486810    4.898087    0.000000
     0.000000    0.000000   30.000000
   V    Mo   W    S 
   3   3   3  18
Direct configuration=     3
   0.66801768  0.66624336  0.00021279
   0.99737277  0.33335698 -0.00018266
   0.33470145  0.33366492  0.00003672
   0.66609035  0.00168287 -0.00014543
  -0.00156846  0.66513866  0.00009936
   0.66845229  0.33331499  0.00003364
  -0.00206533 -0.00152326 -0.00012971
   0.33561913 -0.00004900 -0.00003451
   0.33331319  0.66808545  0.00009598
   0.11236923  0.22544290  0.95323651
   0.22381731  0.11446236  0.04797346
   0.10987647  0.55122286  0.95194640
   0.22069525  0.44108010  0.04670348
   0.11171660  0.88995963  0.95087764
   0.22305119  0.77827035  0.04932388
   0.44128687  0.22334068  0.95203624
   0.55417041  0.11045826  0.04933782
   0.44599416  0.55382281  0.95316116
   0.55331794  0.44670075  0.04691739
   0.44341193  0.88836619  0.95056131
   0.55673693  0.77451806  0.04791063
   0.78246450  0.22446682  0.95174896
   0.89173224  0.11507311  0.04800687
   0.77515101  0.55783880  0.95197150
   0.89127439  0.44196597  0.04813004
   0.77660865  0.88486820  0.95196977
   0.88460630  0.77644162  0.04820066
unknown system                          
           1
     8.281693    4.774933    0.000000
    -8.280663    4.773150    0.000000
     0.000000    0.000000   30.000000
   V    Mo   W    S 
   3   3   3  18
Direct configuration=     4
   0.67007347  0.66638216  0.00021566
   0.99481352  0.33316676 -0.00017411
   0.33549412  0.33336703  0.00005619
   0.66392257  0.00301572 -0.00002354
  -0.00209467  0.66503139 -0.00001846
   0.66975155  0.33209150  0.00000331
  -0.00341533 -0.00362318 -0.00025230
   0.33785233 -0.00144620 -0.00003763
   0.33344416  0.67173572  0.00026028
   0.11285062  0.22635915  0.95231600
   0.22421724  0.11516475  0.04905320
   0.10939250  0.55005752  0.95053313
   0.22007175  0.44020411  0.04752773
   0.11185427  0.89017293  0.94952863
   0.22302697  0.77833708  0.05103868
   0.44096787  0.22391331  0.95065501
   0.55423421  0.11062775  0.05129112
   0.44643259  0.55354061  0.95223206
   0.55301019  0.44719337  0.04810932
   0.44337629  0.88837212  0.94853595
   0.55719749  0.77405089  0.04915580
   0.78385900  0.22531939  0.94983668
   0.89247843  0.11619602  0.04928087
   0.77438047  0.55823466  0.95043826
   0.89191986  0.44133663  0.04992965
   0.77575478  0.88366463  0.95058799
   0.88334818  0.77574863  0.04992042
unknown system                          
           1
     8.285658    4.770437    0.000000
    -8.285452    4.770087    0.000000
     0.000000    0.000000   30.000000
   V    Mo   W    S 
   3   3   3  18
Direct configuration=     5
   0.67446754  0.66639850  0.00004590
   0.99033540  0.33267791  0.00001344
   0.33671128  0.33271177  0.00007236
   0.65872340  0.00546085  0.00010013
  -0.00308541  0.66524547 -0.00016430
   0.67176747  0.32935937 -0.00005222
  -0.00577255 -0.00766067 -0.00034026
   0.34267583 -0.00420521 -0.00000186
   0.33400732  0.67907037  0.00036845
   0.11302849  0.22715406  0.95111187
   0.22460639  0.11536358  0.05029035
   0.10895833  0.54911831  0.94872674
   0.21933251  0.43989671  0.04841295
   0.11235396  0.89018717  0.94783721
   0.22224177  0.77856379  0.05351332
   0.44136210  0.22436892  0.94888063
   0.55471183  0.11151030  0.05412229
   0.44693861  0.55377084  0.95118288
   0.55336974  0.44750830  0.04986363
   0.44403334  0.88866936  0.94548248
   0.55786449  0.77420924  0.05070042
   0.78493120  0.22588974  0.94704941
   0.89256291  0.11701892  0.05074438
   0.77355719  0.55800082  0.94837867
   0.89241514  0.44084179  0.05232222
   0.77413473  0.88253571  0.94895902
   0.88198143  0.77454855  0.05237979
unknown system                          
           1
     8.282202    4.766905    0.000000
    -8.281332    4.765402    0.000000
     0.000000    0.000000   30.000000
   V    Mo   W    S 
   3   3   3  18
Direct configuration=     6
   0.67600129  0.66553557  0.00002516
   0.98927086  0.33255447  0.00001184
   0.33707506  0.33260300  0.00007407
   0.65731412  0.00596357  0.00000872
  -0.00345049  0.66557495 -0.00011638
   0.67179733  0.32885336 -0.00002012
  -0.00599214 -0.00884722 -0.00036104
   0.34376412 -0.00454025  0.00012615
   0.33419424  0.68086345  0.00033675
   0.11256292  0.22677777  0.95121124
   0.22463991  0.11452202  0.05017956
   0.10913624  0.54957304  0.94871594
   0.21940821  0.44080179  0.04821466
   0.11299232  0.89031037  0.94783167
   0.22180396  0.77887069  0.05381008
   0.44181085  0.22382251  0.94883902
   0.55477028  0.11202561  0.05452418
   0.44698742  0.55442858  0.95135179
   0.55402486  0.44740255  0.04993478
   0.44448912  0.88900811  0.94492418
   0.55786167  0.77485393  0.05056289
   0.78447472  0.22551495  0.94678077
   0.89166384  0.11630830  0.05063797
   0.77370005  0.55735117  0.94819609
   0.89226763  0.44101802  0.05246885
   0.77358171  0.88284161  0.94908446
   0.88206437  0.77422253  0.05264663
unknown system                          
           1
     8.291380    4.768795    0.000000
    -8.290026    4.766450    0.000000
     0.000000    0.000000   30.000000
   V    Mo   W    S 
   3   3   3  18
Direct configuration=     7
   0.67838806  0.66388514 -0.00002789
   0.98743511  0.33225913  0.00002479
   0.33773473  0.33251334  0.00001693
   0.65493798  0.00715994 -0.00003170
  -0.00409015  0.66613223 -0.00007686
   0.67189619  0.32802853  0.00001659
  -0.00630622 -0.01093921 -0.00043967
   0.34573912 -0.00523167  0.00020459
   0.33437470  0.68407993  0.00031407
   0.11202816  0.22633854  0.95143701
   0.22468042  0.11366668  0.05008543
   0.10922165  0.55005306  0.94870859
   0.21947708  0.44182698  0.04786163
   0.11378009  0.89050689  0.94783760
   0.22133208  0.77919785  0.05417105
   0.44220650  0.22322228  0.94879317
   0.55491403  0.11265213  0.05504197
   0.44715585  0.55519211  0.95166031
   0.55474261  0.44734317  0.05007279
   0.44478016  0.88952266  0.94426679
   0.55801971  0.77554470  0.05027002
   0.78401800  0.22527435  0.94640505
   0.89067633  0.11544796  0.05040166
   0.77391475  0.55664825  0.94790520
   0.89220742  0.44118581  0.05266565
   0.77286161  0.88293832  0.94933865
   0.88208849  0.77376538  0.05307647
unknown system                          
           1
     8.309144    4.771423    0.000000
    -8.306152    4.766235    0.000000
     0.000000    0.000000   30.000000
   V    Mo   W    S 
   3   3   3  18
Direct configuration=     8
   0.67964751  0.66269057 -0.00004150
   0.98637479  0.33210691  0.00002966
   0.33819137  0.33250333 -0.00001315
   0.65386658  0.00793330 -0.00007976
  -0.00450234  0.66644219 -0.00005860
   0.67188956  0.32774868  0.00005021
  -0.00633045 -0.01221876 -0.00047643
   0.34659416 -0.00539866  0.00030104
   0.33432849  0.68565564  0.00029518
   0.11176118  0.22607204  0.95163351
   0.22469573  0.11330376  0.04999778
   0.10929386  0.55029693  0.94875869
   0.21952936  0.44237000  0.04759020
   0.11423892  0.89061405  0.94786630
   0.22109928  0.77941694  0.05430624
   0.44234698  0.22290777  0.94880044
   0.55492371  0.11301816  0.05527003
   0.44728815  0.55558787  0.95189454
   0.55504620  0.44732201  0.05012158
   0.44494412  0.88980827  0.94396202
   0.55814572  0.77586374  0.05000764
   0.78377480  0.22516367  0.94626522
   0.89016912  0.11497804  0.05019287
   0.77410208  0.55628119  0.94776774
   0.89219205  0.44128134  0.05271093
   0.77248225  0.88291351  0.94957963
   0.88212128  0.77355197  0.05326789
unknown system                          
           1
     8.310016    4.771706    0.000000
    -8.306972    4.766427    0.000000
     0.000000    0.000000   30.000000
   V    Mo   W    S 
   3   3   3  18
Direct configuration=     9
   0.68205065  0.65977642 -0.00002868
   0.98379200  0.33185202  0.00003960
   0.33954995  0.33246923 -0.00010947
   0.65201125  0.00988939 -0.00019952
  -0.00545430  0.66704964 -0.00005364
   0.67181150  0.32740136  0.00012258
  -0.00601043 -0.01533878 -0.00057225
   0.34800984 -0.00538870  0.00050509
   0.33390447  0.68875430  0.00023880
   0.11127732  0.22547057  0.95215128
   0.22471133  0.11290531  0.04986223
   0.10947760  0.55068121  0.94887576
   0.21963650  0.44334300  0.04692004
   0.11514328  0.89077781  0.94789429
   0.22065468  0.77986475  0.05454916
   0.44247132  0.22238821  0.94881111
   0.55491446  0.11385058  0.05570542
   0.44767878  0.55638669  0.95246004
   0.55549005  0.44728890  0.05028217
   0.44519944  0.89048417  0.94345515
   0.55851187  0.77634470  0.04930153
   0.78335270  0.22509608  0.94598700
   0.88932622  0.11409331  0.04966377
   0.77458533  0.55557935  0.94743677
   0.89222791  0.44146829  0.05280532
   0.77169001  0.88260536  0.95022703
   0.88220072  0.77312125  0.05366932
unknown system                          
           1
     8.299702    4.765833    0.000000
    -8.298277    4.763373    0.000000
     0.000000    0.000000   30.000000
   V    Mo   W    S 
   3   3   3  18
Direct configuration=    10
   0.68211481  0.65966441 -0.00002496
   0.98367495  0.33185652  0.00003955
   0.33963530  0.33245720 -0.00011399
   0.65196368  0.00997024 -0.00020409
  -0.00548695  0.66706249 -0.00005474
   0.67180187  0.32739809  0.00012582
  -0.00596583 -0.01547200 -0.00057523
   0.34803571 -0.00536240  0.00051410
   0.33386932  0.68885198  0.00023606
   0.11125949  0.22544440  0.95217560
   0.22470967  0.11291036  0.04986396
   0.10948415  0.55068665  0.94887780
   0.21963914  0.44336990  0.04689034
   0.11517238  0.89077356  0.94788802
   0.22063768  0.77988010  0.05455734
   0.44247291  0.22237883  0.94880672
   0.55491427  0.11388502  0.05571865
   0.44769857  0.55641972  0.95248269
   0.55550022  0.44728350  0.05029421
   0.44520609  0.89051820  0.94344215
   0.55853166  0.77635470  0.04926985
   0.78334014  0.22510291  0.94597528
   0.88930488  0.11406482  0.04964006
   0.77460731  0.55555135  0.94742151
   0.89222912  0.44147616  0.05281102
   0.77165837  0.88258586  0.95025626
   0.88220555  0.77310187  0.05368591
unknown system                          
           1
     8.319579    4.774887    0.000000
    -8.315783    4.768302    0.000000
     0.000000    0.000000   30.000000
   V    Mo   W    S 
   3   3   3  18
Direct configuration=    11
   0.68210050  0.65953183 -0.00001503
   0.98338296  0.33172130  0.00004016
   0.33955430  0.33260182 -0.00011483
   0.65211062  0.01023189 -0.00020797
  -0.00554801  0.66691091 -0.00005860
   0.67188938  0.32721656  0.00013101
  -0.00600348 -0.01545604 -0.00057022
   0.34821171 -0.00529101  0.00053329
   0.33388735  0.68889747  0.00023287
   0.11125987  0.22552127  0.95216111
   0.22469453  0.11294102  0.04986248
   0.10944849  0.55057354  0.94888517
   0.21953944  0.44326284  0.04690221
   0.11521404  0.89083896  0.94787367
   0.22063898  0.77990285  0.05458103
   0.44240132  0.22239672  0.94878664
   0.55490493  0.11390201  0.05574859
   0.44778948  0.55641699  0.95245357
   0.55547430  0.44732242  0.05032763
   0.44520823  0.89052149  0.94341198
   0.55860427  0.77632232  0.04927114
   0.78344580  0.22518023  0.94595681
   0.88932529  0.11415778  0.04964374
   0.77461140  0.55556717  0.94736803
   0.89230800  0.44143031  0.05281974
   0.77158365  0.88248948  0.95024820
   0.88217710  0.77310234  0.05372747
unknown system                          
           1
     8.327079    4.777447    0.000000
    -8.322799    4.770024    0.000000
     0.000000    0.000000   30.000000
   V    Mo   W    S 
   3   3   3  18
Direct configuration=    12
   0.68271995  0.65850155  0.00001844
   0.98248865  0.33204612  0.00004131
   0.34074607  0.33214724 -0.00016735
   0.65138990  0.01077131 -0.00024554
  -0.00580479  0.66724101 -0.00006739
   0.67163230  0.32746192  0.00016409
  -0.00531355 -0.01699489 -0.00060511
   0.34816647 -0.00502212  0.00062489
   0.33340284  0.68986914  0.00020373
   0.11108517  0.22510365  0.95248404
   0.22467709  0.11301997  0.04989376
   0.10957680  0.55079196  0.94890579
   0.21974006  0.44367522  0.04652448
   0.11544027  0.89066583  0.94780386
   0.22046175  0.78002992  0.05461281
   0.44251209  0.22231681  0.94876087
   0.55488566  0.11423078  0.05579898
   0.44786860  0.55677782  0.95277439
   0.55558990  0.44720162  0.05041671
   0.44524784  0.89090429  0.94335284
   0.55869778  0.77642647  0.04889352
   0.78316065  0.22518408  0.94589353
   0.88911043  0.11371790  0.04933469
   0.77487469  0.55526727  0.94728427
   0.89219550  0.44158012  0.05284445
   0.77138652  0.88240920  0.95061481
   0.88227582  0.77289024  0.05383901
unknown system                          
           1
     8.323116    4.776962    0.000000
    -8.319369    4.770462    0.000000
     0.000000    0.000000   30.000000
   V    Mo   W    S 
   3   3   3  18
Direct configuration=    13
   0.68336192  0.65725924  0.00007092
   0.98097003  0.33239510  0.00003088
   0.34220599  0.33168043 -0.00021558
   0.65084707  0.01172675 -0.00031693
  -0.00615899  0.66726834 -0.00010599
   0.67148566  0.32753179  0.00018818
  -0.00435895 -0.01870205 -0.00063617
   0.34814502 -0.00449902  0.00071390
   0.33282794  0.69091681  0.00016311
   0.11087017  0.22474874  0.95284158
   0.22460539  0.11322494  0.05000388
   0.10962638  0.55077077  0.94889522
   0.21977299  0.44391117  0.04611033
   0.11570467  0.89044726  0.94765560
   0.22025758  0.78021711  0.05470763
   0.44256381  0.22228646  0.94863976
   0.55487318  0.11464089  0.05594523
   0.44808495  0.55718663  0.95306766
   0.55567385  0.44711112  0.05060872
   0.44525698  0.89139089  0.94325505
   0.55892701  0.77648812  0.04850276
   0.78301329  0.22531560  0.94575680
   0.88897331  0.11341428  0.04899642
   0.77510907  0.55497682  0.94713480
   0.89215985  0.44168103  0.05293909
   0.77108975  0.88221192  0.95101430
   0.88232654  0.77261332  0.05403277
unknown system                          
           1
     8.315318    4.772026    0.000000
    -8.312116    4.766476    0.000000
     0.000000    0.000000   30.000000
   V    Mo   W    S 
   3   3   3  18
Direct configuration=    14
   0.68275590  0.65838801  0.00000372
   0.98239408  0.33184998  0.00004959
   0.34049061  0.33238351 -0.00018427
   0.65152497  0.01087676 -0.00026202
  -0.00582520  0.66730027 -0.00007668
   0.67170462  0.32741480  0.00014452
  -0.00554746 -0.01703157 -0.00062618
   0.34827175 -0.00513746  0.00060051
   0.33343322  0.68991121  0.00020014
   0.11108122  0.22514955  0.95242918
   0.22472318  0.11298494  0.04985921
   0.10956949  0.55078643  0.94892579
   0.21970045  0.44368165  0.04657390
   0.11549242  0.89080192  0.94784814
   0.22044065  0.78000627  0.05464635
   0.44245141  0.22228318  0.94880261
   0.55493385  0.11428157  0.05586086
   0.44793717  0.55678868  0.95273895
   0.55558002  0.44720944  0.05041490
   0.44530616  0.89088645  0.94332340
   0.55875700  0.77641114  0.04890909
   0.78322032  0.22520863  0.94588907
   0.88907910  0.11374039  0.04938747
   0.77490176  0.55525632  0.94725910
   0.89228242  0.44155605  0.05283876
   0.77128408  0.88230930  0.95057900
   0.88227126  0.77291705  0.05386478
unknown system                          
           1
     8.318463    4.773406    0.000000
    -8.315771    4.768743    0.000000
     0.000000    0.000000   30.000000
   V    Mo   W    S 
   3   3   3  18
Direct configuration=    15
   0.68236859  0.65898922 -0.00002778
   0.98348973  0.33076174  0.00009287
   0.33839793  0.33379358 -0.00017403
   0.65220116  0.01036404 -0.00016510
  -0.00563285  0.66755567 -0.00002840
   0.67194609  0.32715109  0.00014827
  -0.00730372 -0.01572376 -0.00061196
   0.34889392 -0.00601586  0.00059001
   0.33410465  0.68925905  0.00026975
   0.11114274  0.22540282  0.95202999
   0.22484724  0.11265270  0.04953688
   0.10958944  0.55089501  0.94906142
   0.21958120  0.44362929  0.04700820
   0.11548524  0.89136437  0.94812335
   0.22062157  0.77984121  0.05455635
   0.44227509  0.22216878  0.94908955
   0.55503546  0.11403172  0.05574397
   0.44797340  0.55656318  0.95243644
   0.55554746  0.44727639  0.05016251
   0.44553575  0.89046811  0.94336473
   0.55865485  0.77635242  0.04914177
   0.78346977  0.22515579  0.94599600
   0.88906737  0.11397006  0.04975741
   0.77487287  0.55540097  0.94733579
   0.89248330  0.44147475  0.05267138
   0.77130555  0.88220437  0.95020559
   0.88226065  0.77322775  0.05368493
unknown system                          
           1
     8.321811    4.771851    0.000000
    -8.319342    4.767581    0.000000
     0.000000    0.000000   30.000000
   V    Mo   W    S 
   3   3   3  18
Direct configuration=    16
   0.68213538  0.65930908 -0.00005913
   0.98425494  0.32993113  0.00009369
   0.33697152  0.33497093 -0.00017677
   0.65275673  0.01005158 -0.00016018
  -0.00556390  0.66777430 -0.00002993
   0.67214099  0.32703090  0.00010678
  -0.00852858 -0.01489754 -0.00060356
   0.34926293 -0.00659694  0.00053529
   0.33453475  0.68875191  0.00027300
   0.11117548  0.22558540  0.95175300
   0.22493861  0.11245045  0.04931915
   0.10961288  0.55096120  0.94914963
   0.21947782  0.44358470  0.04732547
   0.11553485  0.89175469  0.94829924
   0.22067996  0.77971187  0.05455898
   0.44213448  0.22206501  0.94929086
   0.55512712  0.11391840  0.05575438
   0.44803656  0.55642984  0.95221666
   0.55551821  0.44730760  0.05002342
   0.44572783  0.89023840  0.94337590
   0.55866951  0.77628375  0.04931437
   0.78362369  0.22511439  0.94605468
   0.88904058  0.11410431  0.05004126
   0.77485400  0.55547426  0.94737795
   0.89263394  0.44144455  0.05259946
   0.77124895  0.88207865  0.94994823
   0.88221523  0.77338165  0.05361806
unknown system                          
           1
     8.325474    4.774186    0.000000
    -8.322770    4.769506    0.000000
     0.000000    0.000000   30.000000
   V    Mo   W    S 
   3   3   3  18
Direct configuration=    17
   0.68254125  0.65818730  0.00001472
   0.98355947  0.32905396  0.00004715
   0.33684502  0.33645201 -0.00019488
   0.65285130  0.01085396 -0.00021726
  -0.00591144  0.66813312 -0.00006789
   0.67235379  0.32692964  0.00011209
  -0.00896759 -0.01576309 -0.00056113
   0.34972789 -0.00676444  0.00062493
   0.33439252  0.68923068  0.00023788
   0.11089774  0.22533399  0.95187624
   0.22490182  0.11247037  0.04907215
   0.10973545  0.55102847  0.94928223
   0.21936442  0.44378987  0.04722787
   0.11593225  0.89192439  0.94834569
   0.22055794  0.77978022  0.05460617
   0.44201668  0.22187111  0.94945112
   0.55518978  0.11419896  0.05585871
   0.44835135  0.55675117  0.95227529
   0.55557935  0.44717500  0.05004145
   0.44599421  0.89058357  0.94330071
   0.55892265  0.77625211  0.04900793
   0.78361576  0.22521044  0.94596398
   0.88884813  0.11388454  0.04996934
   0.77510067  0.55516117  0.94727758
   0.89270829  0.44157759  0.05258390
   0.77090759  0.88172583  0.95012644
   0.88219814  0.77318252  0.05373752
unknown system                          
           1
     8.332024    4.777270    0.000000
    -8.329120    4.772243    0.000000
     0.000000    0.000000   30.000000
   V    Mo   W    S 
   3   3   3  18
Direct configuration=    18
   0.68268657  0.65798357  0.00002248
   0.98314931  0.32945661  0.00004380
   0.33757348  0.33591192 -0.00020657
   0.65259674  0.01101817 -0.00024074
  -0.00597349  0.66804239 -0.00007758
   0.67222864  0.32701212  0.00011768
  -0.00837823 -0.01624628 -0.00057628
   0.34953621 -0.00646343  0.00063404
   0.33417566  0.68948951  0.00022080
   0.11087745  0.22523809  0.95200872
   0.22486993  0.11258044  0.04919529
   0.10972818  0.55099270  0.94923100
   0.21940188  0.44382100  0.04707709
   0.11593020  0.89173883  0.94824942
   0.22049599  0.77984051  0.05463761
   0.44207922  0.22191791  0.94934727
   0.55515962  0.11429043  0.05589404
   0.44835397  0.55684200  0.95238109
   0.55559709  0.44715776  0.05012986
   0.44591722  0.89072198  0.94328535
   0.55895841  0.77628205  0.04892391
   0.78353448  0.22523098  0.94592063
   0.88884888  0.11380676  0.04984236
   0.77511682  0.55511570  0.94724519
   0.89264902  0.44159830  0.05264197
   0.77088841  0.88174997  0.95025556
   0.88221280  0.77308446  0.05379590
unknown system                          
           1
     8.336434    4.777707    0.000000
    -8.333387    4.772432    0.000000
     0.000000    0.000000   30.000000
   V    Mo   W    S 
   3   3   3  18
Direct configuration=    19
   0.68321034  0.65684479  0.00009321
   0.98194693  0.32939391  0.00003754
   0.33868386  0.33650172 -0.00026476
   0.65219967  0.01187570 -0.00028355
  -0.00627017  0.66828919 -0.00008643
   0.67210000  0.32694291  0.00015282
  -0.00779927 -0.01781167 -0.00058613
   0.34964829 -0.00625214  0.00072457
   0.33378384  0.69034288  0.00019889
   0.11062899  0.22482781  0.95230405
   0.22482829  0.11279712  0.04920253
   0.10981593  0.55099850  0.94923727
   0.21932717  0.44403709  0.04679313
   0.11616339  0.89159532  0.94814033
   0.22033078  0.77995806  0.05468025
   0.44204926  0.22186713  0.94933733
   0.55517988  0.11460223  0.05597464
   0.44868723  0.55728888  0.95256221
   0.55567531  0.44699847  0.05028733
   0.44599076  0.89123751  0.94322788
   0.55921394  0.77632217  0.04852832
   0.78337053  0.22532900  0.94577176
   0.88867958  0.11348923  0.04958946
   0.77530908  0.55482454  0.94711668
   0.89263538  0.44170285  0.05268194
   0.77058219  0.88147169  0.95060887
   0.88224329  0.77273956  0.05396978
unknown system                          
           1
     8.336915    4.777894    0.000000
    -8.333851    4.772589    0.000000
     0.000000    0.000000   30.000000
   V    Mo   W    S 
   3   3   3  18
Direct configuration=    20
   0.68358477  0.65592077  0.00015210
   0.98085575  0.32933905  0.00002017
   0.33959916  0.33728849 -0.00032279
   0.65198427  0.01265832 -0.00035200
  -0.00648121  0.66843604 -0.00012870
   0.67207083  0.32688105  0.00015743
  -0.00724375 -0.01911891 -0.00058309
   0.34962367 -0.00609463  0.00080535
   0.33342766  0.69092135  0.00016015
   0.11041583  0.22447927  0.95254805
   0.22480237  0.11299159  0.04918399
   0.10990013  0.55099060  0.94926663
   0.21920794  0.44420387  0.04658724
   0.11636450  0.89145606  0.94804929
   0.22017583  0.78004759  0.05473004
   0.44199791  0.22181332  0.94936559
   0.55517208  0.11486099  0.05606016
   0.44900760  0.55768080  0.95267014
   0.55572071  0.44683015  0.05041526
   0.44607005  0.89163087  0.94318034
   0.55941924  0.77631990  0.04821884
   0.78326298  0.22541679  0.94567474
   0.88855056  0.11324633  0.04938718
   0.77548351  0.55456203  0.94703266
   0.89262555  0.44175274  0.05270442
   0.77034973  0.88124594  0.95089219
   0.88226678  0.77245410  0.05412452
unknown system                          
           1
     8.330015    4.774919    0.000000
    -8.326604    4.769008    0.000000
     0.000000    0.000000   30.000000
   V    Mo   W    S 
   3   3   3  18
Direct configuration=    21
   0.68361713  0.65583307  0.00016170
   0.98072079  0.32935706  0.00001961
   0.33972997  0.33740943 -0.00033044
   0.65193576  0.01273068 -0.00035585
  -0.00647239  0.66846376 -0.00012978
   0.67205665  0.32685738  0.00016193
  -0.00713617 -0.01928278 -0.00057972
   0.34960286 -0.00609407  0.00081521
   0.33338607  0.69099726  0.00016047
   0.11038629  0.22442703  0.95258159
   0.22479720  0.11302390  0.04918593
   0.10990867  0.55098261  0.94926415
   0.21918836  0.44422218  0.04656221
   0.11638727  0.89142873  0.94802853
   0.22015421  0.78005112  0.05473633
   0.44198614  0.22180858  0.94936720
   0.55516857  0.11488976  0.05606800
   0.44905179  0.55773917  0.95267786
   0.55572146  0.44680003  0.05043504
   0.44607422  0.89168534  0.94317428
   0.55943962  0.77632468  0.04817908
   0.78324748  0.22542860  0.94565560
   0.88853573  0.11320959  0.04935683
   0.77550322  0.55452277  0.94701773
   0.89261932  0.44175606  0.05271077
   0.77032971  0.88123107  0.95092976
   0.88227452  0.77241145  0.05414591
unknown system                          
           1
     8.342126    4.779504    0.000000
    -8.339047    4.774174    0.000000
     0.000000    0.000000   30.000000
   V    Mo   W    S 
   3   3   3  18
Direct configuration=    22
   0.68320649  0.65634372  0.00011124
   0.98147859  0.32923308  0.00003008
   0.33889231  0.33669036 -0.00028545
   0.65212658  0.01225183 -0.00031494
  -0.00622788  0.66840693 -0.00011104
   0.67210608  0.32684758  0.00014967
  -0.00762570 -0.01824201 -0.00060235
   0.34974018 -0.00619870  0.00075748
   0.33361495  0.69067692  0.00017848
   0.11056727  0.22469399  0.95239970
   0.22482291  0.11286588  0.04916349
   0.10988459  0.55105363  0.94927523
   0.21933679  0.44415532  0.04668123
   0.11627058  0.89159344  0.94814540
   0.22026167  0.78003204  0.05469440
   0.44201924  0.22184459  0.94936992
   0.55520687  0.11477389  0.05602684
   0.44874668  0.55739842  0.95263417
   0.55564874  0.44684319  0.05035799
   0.44605615  0.89141117  0.94320491
   0.55926577  0.77633374  0.04837744
   0.78333518  0.22539267  0.94573075
   0.88859508  0.11338055  0.04952294
   0.77545079  0.55464400  0.94704449
   0.89266346  0.44174455  0.05267612
   0.77045168  0.88135211  0.95072039
   0.88231940  0.77269156  0.05406132
unknown system                          
           1
     8.345157    4.780373    0.000000
    -8.342140    4.775153    0.000000
     0.000000    0.000000   30.000000
   V    Mo   W    S 
   3   3   3  18
Direct configuration=    23
   0.68408728  0.65497632  0.00023931
   0.97945697  0.32955525  0.00000617
   0.34103521  0.33836314 -0.00040247
   0.65153597  0.01348618 -0.00041463
  -0.00663980  0.66861831 -0.00015997
   0.67194462  0.32675969  0.00018673
  -0.00622844 -0.02087492 -0.00056006
   0.34942824 -0.00595341  0.00090731
   0.33298881  0.69165117  0.00014028
   0.11011776  0.22397600  0.95289529
   0.22474626  0.11328797  0.04921612
   0.10997750  0.55091264  0.94925567
   0.21901349  0.44437650  0.04632400
   0.11657209  0.89116471  0.94785760
   0.21997702  0.78010891  0.05478900
   0.44192578  0.22176075  0.94936628
   0.55512079  0.11512997  0.05613592
   0.44946564  0.55825616  0.95277966
   0.55578527  0.44663127  0.05059106
   0.44610037  0.89214910  0.94313127
   0.55965821  0.77634388  0.04782874
   0.78309264  0.22551148  0.94552444
   0.88842063  0.11290671  0.04907427
   0.77564859  0.55424387  0.94692832
   0.89255244  0.44178833  0.05276261
   0.77014192  0.88106626  0.95128114
   0.88228919  0.77201821  0.05431584
unknown system                          
           1
     8.333615    4.774241    0.000000
    -8.330425    4.768719    0.000000
     0.000000    0.000000   30.000000
   V    Mo   W    S 
   3   3   3  18
Direct configuration=    24
   0.68430459  0.65446459  0.00028279
   0.97873230  0.32984479 -0.00001094
   0.34204351  0.33890296 -0.00044967
   0.65124199  0.01390075 -0.00046793
  -0.00668130  0.66867000 -0.00018748
   0.67175456  0.32671127  0.00019598
  -0.00543344 -0.02181171 -0.00053345
   0.34920917 -0.00579152  0.00096404
   0.33271426  0.69199046  0.00011846
   0.10998744  0.22369471  0.95311641
   0.22470820  0.11349627  0.04925555
   0.11001805  0.55086152  0.94923353
   0.21892439  0.44445583  0.04615465
   0.11668000  0.89092087  0.94771431
   0.21983123  0.78013016  0.05483656
   0.44186983  0.22176260  0.94935269
   0.55504797  0.11526889  0.05618981
   0.44970189  0.55854952  0.95285120
   0.55577410  0.44649513  0.05070199
   0.44608016  0.89243193  0.94309893