   27   27  100    1
  0.9710400E+02  0.1002848E-08  0.1002848E-08  0.3000000E-08  0.5000000E-15
  1.000000000000000E-004
  CAR 
 unknown system                          
    159     34    120
 
  0.0000000E+00  0.0000000E+00  0.0000000E+00  0.1562500E-01
    1      -17.807052   1.000000
    2      -16.734595   1.000000
    3      -16.672805   1.000000
    4      -16.593780   1.000000
    5      -16.539247   1.000000
    6      -16.493977   1.000000
    7      -16.445646   1.000000
    8      -16.245433   1.000000
    9      -16.140504   1.000000
   10      -16.127807   1.000000
   11      -16.091794   1.000000
   12      -15.980307   1.000000
   13      -15.883167   1.000000
   14      -15.778400   1.000000
   15      -15.618046   1.000000
   16      -15.372936   1.000000
   17      -15.369277   1.000000
   18      -15.216212   1.000000
   19       -9.326537   1.000000
   20       -8.966958   1.000000
   21       -8.943465   1.000000
   22       -8.875986   1.000000
   23       -8.716759   1.000000
   24       -8.693256   1.000000
   25       -8.647478   1.000000
   26       -8.598664   1.000000
   27       -8.499797   1.000000
   28       -8.499480   1.000000
   29       -8.471566   1.000000
   30       -8.469868   1.000000
   31       -8.401795   1.000000
   32       -8.111001   1.000000
   33       -8.051902   1.000000
   34       -8.015123   1.000000
   35       -7.812333   1.000000
   36       -7.747465   1.000000
   37       -7.690444   1.000000
   38       -7.651457   1.000000
   39       -7.429366   1.000000
   40       -7.412455   1.000000
   41       -7.345792   1.000000
   42       -7.217079   1.000000
   43       -7.124240   1.000000
   44       -6.891629   1.000000
   45       -6.807661   1.000000
   46       -6.805446   1.000000
   47       -6.732876   1.000000
   48       -6.652799   1.000000
   49       -6.530986   1.000000
   50       -6.487741   1.000000
   51       -6.415925   1.000000
   52       -6.332109   1.000000
   53       -6.313345   1.000000
   54       -6.272880   1.000000
   55       -6.221695   1.000000
   56       -6.166162   1.000000
   57       -6.084698   1.000000
   58       -5.978435   1.000000
   59       -5.846097   1.000000
   60       -5.535932   1.000000
   61       -5.421716   1.000000
   62       -5.314007   1.000000
   63       -5.274414   1.000000
   64       -5.218257   1.000000
   65       -5.096913   1.000000
   66       -4.983871   1.000000
   67       -4.947637   1.000000
   68       -4.826661   1.000000
   69       -4.824304   1.000000
   70       -4.682479   1.000000
   71       -4.675192   1.000000
   72       -4.596742   1.000000
   73       -4.550798   1.000000
   74       -4.385825   1.000000
   75       -4.091655   1.000000
   76       -3.997107   0.999999
   77       -3.854047   0.999874
   78       -3.574241   0.953601
   79       -3.474980   0.836193
   80       -3.456678   0.802204
   81       -3.214242   0.193584
   82       -2.962442   0.004081
   83       -2.858176   0.000359
   84       -2.729950   0.000009
   85       -2.476087   0.000000
   86       -2.464138   0.000000
   87       -2.405886   0.000000
   88       -2.370806   0.000000
   89       -2.200993   0.000000
   90       -2.182267   0.000000
   91       -1.568237   0.000000
   92       -1.530626   0.000000
   93       -1.447531   0.000000
   94       -1.301130   0.000000
   95       -1.106197   0.000000
   96       -1.084900   0.000000
   97       -0.995618   0.000000
   98       -0.878002   0.000000
   99       -0.771036   0.000000
  100       -0.663378   0.000000
  101       -0.618929   0.000000
  102       -0.553521   0.000000
  103       -0.521076   0.000000
  104       -0.319708   0.000000
  105       -0.210229   0.000000
  106       -0.165270   0.000000
  107       -0.164858   0.000000
  108       -0.003189   0.000000
  109        0.034538   0.000000
  110        0.282177   0.000000
  111        0.317122   0.000000
  112        0.644589   0.000000
  113        0.663965   0.000000
  114        0.886054   0.000000
  115        0.947951   0.000000
  116        0.948481   0.000000
  117        1.273915   0.000000
  118        1.644991   0.000000
  119        1.830835   0.000000
  120        2.148963   0.000000
 
  0.1250000E+00  0.2775558E-16  0.0000000E+00  0.3125000E-01
    1      -17.782694   1.000000
    2      -16.781232   1.000000
    3      -16.729259   1.000000
    4      -16.658788   1.000000
    5      -16.541712   1.000000
    6      -16.454543   1.000000
    7      -16.402102   1.000000
    8      -16.263682   1.000000
    9      -16.146863   1.000000
   10      -16.091999   1.000000
   11      -16.031603   1.000000
   12      -15.965741   1.000000
   13      -15.872117   1.000000
   14      -15.770428   1.000000
   15      -15.628433   1.000000
   16      -15.386563   1.000000
   17      -15.373285   1.000000
   18      -15.219490   1.000000
   19       -9.315740   1.000000
   20       -9.138672   1.000000
   21       -9.011303   1.000000
   22       -8.971611   1.000000
   23       -8.773740   1.000000
   24       -8.732914   1.000000
   25       -8.647352   1.000000
   26       -8.601283   1.000000
   27       -8.534161   1.000000
   28       -8.512805   1.000000
   29       -8.407239   1.000000
   30       -8.302259   1.000000
   31       -8.251295   1.000000
   32       -8.074556   1.000000
   33       -8.021928   1.000000
   34       -7.892792   1.000000
   35       -7.799629   1.000000
   36       -7.748687   1.000000
   37       -7.673405   1.000000
   38       -7.580028   1.000000
   39       -7.502862   1.000000
   40       -7.423677   1.000000
   41       -7.302783   1.000000
   42       -7.212526   1.000000
   43       -7.160464   1.000000
   44       -6.958687   1.000000
   45       -6.845265   1.000000
   46       -6.777678   1.000000
   47       -6.713602   1.000000
   48       -6.667745   1.000000
   49       -6.497742   1.000000
   50       -6.458657   1.000000
   51       -6.425189   1.000000
   52       -6.399888   1.000000
   53       -6.310060   1.000000
   54       -6.279293   1.000000
   55       -6.244417   1.000000
   56       -6.123643   1.000000
   57       -6.059802   1.000000
   58       -5.964373   1.000000
   59       -5.803690   1.000000
   60       -5.516124   1.000000
   61       -5.448662   1.000000
   62       -5.414266   1.000000
   63       -5.329468   1.000000
   64       -5.245314   1.000000
   65       -5.069779   1.000000
   66       -5.035828   1.000000
   67       -4.939935   1.000000
   68       -4.893151   1.000000
   69       -4.812055   1.000000
   70       -4.722444   1.000000
   71       -4.647414   1.000000
   72       -4.569778   1.000000
   73       -4.486246   1.000000
   74       -4.289820   1.000000
   75       -4.081091   1.000000
   76       -3.961943   0.999995
   77       -3.871050   0.999921
   78       -3.691578   0.993972
   79       -3.598301   0.967911
   80       -3.416534   0.714187
   81       -3.118465   0.061535
   82       -2.939990   0.002523
   83       -2.827425   0.000159
   84       -2.714569   0.000005
   85       -2.505602   0.000000
   86       -2.444209   0.000000
   87       -2.384442   0.000000
   88       -2.353875   0.000000
   89       -2.195955   0.000000
   90       -2.147989   0.000000
   91       -1.585027   0.000000
   92       -1.525800   0.000000
   93       -1.442261   0.000000
   94       -1.307111   0.000000
   95       -1.100004   0.000000
   96       -1.074336   0.000000
   97       -0.997486   0.000000
   98       -0.891689   0.000000
   99       -0.810906   0.000000
  100       -0.723369   0.000000
  101       -0.662329   0.000000
  102       -0.597214   0.000000
  103       -0.557404   0.000000
  104       -0.403629   0.000000
  105       -0.329984   0.000000
  106       -0.190780   0.000000
  107       -0.123258   0.000000
  108        0.000178   0.000000
  109        0.118948   0.000000
  110        0.190130   0.000000
  111        0.289424   0.000000
  112        0.677342   0.000000
  113        0.705666   0.000000
  114        0.901338   0.000000
  115        0.949160   0.000000
  116        1.002601   0.000000
  117        1.285411   0.000000
  118        1.687227   0.000000
  119        1.870775   0.000000
  120        2.183788   0.000000
 
  0.2500000E+00  0.5551115E-16  0.0000000E+00  0.3125000E-01
    1      -17.711332   1.000000
    2      -16.984810   1.000000
    3      -16.733246   1.000000
    4      -16.706210   1.000000
    5      -16.583554   1.000000
    6      -16.436091   1.000000
    7      -16.363321   1.000000
    8      -16.210899   1.000000
    9      -16.144696   1.000000
   10      -16.030846   1.000000
   11      -16.009241   1.000000
   12      -15.910358   1.000000
   13      -15.816316   1.000000
   14      -15.754767   1.000000
   15      -15.649605   1.000000
   16      -15.415781   1.000000
   17      -15.383702   1.000000
   18      -15.230270   1.000000
   19       -9.476237   1.000000
   20       -9.229757   1.000000
   21       -9.147157   1.000000
   22       -9.076280   1.000000
   23       -8.899867   1.000000
   24       -8.808754   1.000000
   25       -8.587297   1.000000
   26       -8.569845   1.000000
   27       -8.506129   1.000000
   28       -8.417641   1.000000
   29       -8.320714   1.000000
   30       -8.240100   1.000000
   31       -8.142567   1.000000
   32       -8.068902   1.000000
   33       -7.909535   1.000000
   34       -7.872530   1.000000
   35       -7.742759   1.000000
   36       -7.638882   1.000000
   37       -7.592028   1.000000
   38       -7.521047   1.000000
   39       -7.454136   1.000000
   40       -7.387594   1.000000
   41       -7.315615   1.000000
   42       -7.223621   1.000000
   43       -7.123832   1.000000
   44       -7.002920   1.000000
   45       -6.872871   1.000000
   46       -6.766225   1.000000
   47       -6.726610   1.000000
   48       -6.674930   1.000000
   49       -6.565071   1.000000
   50       -6.453240   1.000000
   51       -6.422798   1.000000
   52       -6.384317   1.000000
   53       -6.327461   1.000000
   54       -6.261068   1.000000
   55       -6.182313   1.000000
   56       -6.115910   1.000000
   57       -5.979992   1.000000
   58       -5.935643   1.000000
   59       -5.752736   1.000000
   60       -5.683928   1.000000
   61       -5.598440   1.000000
   62       -5.482937   1.000000
   63       -5.417393   1.000000
   64       -5.325289   1.000000
   65       -5.186818   1.000000
   66       -5.010853   1.000000
   67       -4.925909   1.000000
   68       -4.891233   1.000000
   69       -4.785856   1.000000
   70       -4.745025   1.000000
   71       -4.601596   1.000000
   72       -4.482480   1.000000
   73       -4.346353   1.000000
   74       -4.291348   1.000000
   75       -4.121365   1.000000
   76       -3.959637   0.999995
   77       -3.899450   0.999966
   78       -3.821007   0.999693
   79       -3.626642   0.979883
   80       -3.399509   0.671937
   81       -3.025512   0.013929
   82       -2.896267   0.000925
   83       -2.769801   0.000031
   84       -2.658614   0.000001
   85       -2.523689   0.000000
   86       -2.460843   0.000000
   87       -2.343123   0.000000
   88       -2.290515   0.000000
   89       -2.168204   0.000000
   90       -2.062037   0.000000
   91       -1.606380   0.000000
   92       -1.526164   0.000000
   93       -1.445748   0.000000
   94       -1.320830   0.000000
   95       -1.115223   0.000000
   96       -1.061720   0.000000
   97       -1.019242   0.000000
   98       -0.955153   0.000000
   99       -0.917070   0.000000
  100       -0.820060   0.000000
  101       -0.766595   0.000000
  102       -0.677945   0.000000
  103       -0.610997   0.000000
  104       -0.514239   0.000000
  105       -0.453693   0.000000
  106       -0.244810   0.000000
  107       -0.130848   0.000000
  108       -0.090099   0.000000
  109        0.038889   0.000000
  110        0.161659   0.000000
  111        0.289766   0.000000
  112        0.678030   0.000000
  113        0.808963   0.000000
  114        0.922452   0.000000
  115        0.987427   0.000000
  116        1.141012   0.000000
  117        1.323291   0.000000
  118        1.806185   0.000000
  119        1.985034   0.000000
  120        2.287139   0.000000
 
  0.3750000E+00  0.0000000E+00  0.0000000E+00  0.3125000E-01
    1      -17.601144   1.000000
    2      -17.189465   1.000000
    3      -16.768254   1.000000
    4      -16.698292   1.000000
    5      -16.622938   1.000000
    6      -16.443506   1.000000
    7      -16.347358   1.000000
    8      -16.164316   1.000000
    9      -16.103977   1.000000
   10      -16.011172   1.000000
   11      -15.943828   1.000000
   12      -15.904980   1.000000
   13      -15.797927   1.000000
   14      -15.718313   1.000000
   15      -15.662727   1.000000
   16      -15.427648   1.000000
   17      -15.396800   1.000000
   18      -15.246300   1.000000
   19       -9.683497   1.000000
   20       -9.309186   1.000000
   21       -9.148312   1.000000
   22       -9.110032   1.000000
   23       -9.000960   1.000000
   24       -8.847735   1.000000
   25       -8.542716   1.000000
   26       -8.513028   1.000000
   27       -8.438962   1.000000
   28       -8.345702   1.000000
   29       -8.284275   1.000000
   30       -8.227351   1.000000
   31       -8.149838   1.000000
   32       -8.058752   1.000000
   33       -7.971291   1.000000
   34       -7.830723   1.000000
   35       -7.756884   1.000000
   36       -7.662603   1.000000
   37       -7.579168   1.000000
   38       -7.464589   1.000000
   39       -7.365107   1.000000
   40       -7.273894   1.000000
   41       -7.208887   1.000000
   42       -7.133049   1.000000
   43       -7.041256   1.000000
   44       -6.968025   1.000000
   45       -6.854523   1.000000
   46       -6.812604   1.000000
   47       -6.728284   1.000000
   48       -6.666014   1.000000
   49       -6.545285   1.000000
   50       -6.480570   1.000000
   51       -6.414525   1.000000
   52       -6.381137   1.000000
   53       -6.318045   1.000000
   54       -6.222414   1.000000
   55       -6.111019   1.000000
   56       -6.054179   1.000000
   57       -5.989279   1.000000
   58       -5.922330   1.000000
   59       -5.865417   1.000000
   60       -5.787137   1.000000
   61       -5.761813   1.000000
   62       -5.602575   1.000000
   63       -5.534548   1.000000
   64       -5.340850   1.000000
   65       -5.199639   1.000000
   66       -5.013006   1.000000
   67       -4.900704   1.000000
   68       -4.863395   1.000000
   69       -4.808100   1.000000
   70       -4.735111   1.000000
   71       -4.626113   1.000000
   72       -4.529236   1.000000
   73       -4.386767   1.000000
   74       -4.208124   1.000000
   75       -4.101806   1.000000
   76       -4.038397   1.000000
   77       -3.883258   0.999945
   78       -3.780975   0.999163
   79       -3.553821   0.937782
   80       -3.425143   0.734516
   81       -2.974828   0.005269
   82       -2.869660   0.000481
   83       -2.719585   0.000006
   84       -2.603998   0.000000
   85       -2.537775   0.000000
   86       -2.459785   0.000000
   87       -2.302380   0.000000
   88       -2.225314   0.000000
   89       -2.133769   0.000000
   90       -1.949991   0.000000
   91       -1.621692   0.000000
   92       -1.535553   0.000000
   93       -1.472977   0.000000
   94       -1.343576   0.000000
   95       -1.226092   0.000000
   96       -1.096513   0.000000
   97       -1.058109   0.000000
   98       -1.009360   0.000000
   99       -0.970865   0.000000
  100       -0.886657   0.000000
  101       -0.815131   0.000000
  102       -0.735798   0.000000
  103       -0.665224   0.000000
  104       -0.612910   0.000000
  105       -0.461365   0.000000
  106       -0.357949   0.000000
  107       -0.205938   0.000000
  108       -0.158655   0.000000
  109       -0.067359   0.000000
  110        0.146656   0.000000
  111        0.282930   0.000000
  112        0.681730   0.000000
  113        0.894683   0.000000
  114        0.952341   0.000000
  115        1.023265   0.000000
  116        1.267110   0.000000
  117        1.372948   0.000000
  118        1.985892   0.000000
  119        2.161421   0.000000
  120        2.453978   0.000000
 
  0.5000000E+00  0.1110223E-15  0.0000000E+00  0.1562500E-01
    1      -17.511449   1.000000
    2      -17.312512   1.000000
    3      -16.782481   1.000000
    4      -16.689597   1.000000
    5      -16.640388   1.000000
    6      -16.449401   1.000000
    7      -16.341182   1.000000
    8      -16.165944   1.000000
    9      -16.058303   1.000000
   10      -15.997841   1.000000
   11      -15.934573   1.000000
   12      -15.897469   1.000000
   13      -15.776994   1.000000
   14      -15.749601   1.000000
   15      -15.649403   1.000000
   16      -15.423991   1.000000
   17      -15.401315   1.000000
   18      -15.255530   1.000000
   19       -9.759213   1.000000
   20       -9.349438   1.000000
   21       -9.174373   1.000000
   22       -9.079147   1.000000
   23       -9.027397   1.000000
   24       -8.852308   1.000000
   25       -8.533824   1.000000
   26       -8.509048   1.000000
   27       -8.418832   1.000000
   28       -8.339929   1.000000
   29       -8.242128   1.000000
   30       -8.176395   1.000000
   31       -8.140201   1.000000
   32       -8.053634   1.000000
   33       -8.016368   1.000000
   34       -7.875257   1.000000
   35       -7.808087   1.000000
   36       -7.721829   1.000000
   37       -7.536358   1.000000
   38       -7.433882   1.000000
   39       -7.303689   1.000000
   40       -7.281933   1.000000
   41       -7.119187   1.000000
   42       -7.066446   1.000000
   43       -6.986603   1.000000
   44       -6.963281   1.000000
   45       -6.866552   1.000000
   46       -6.759217   1.000000
   47       -6.690115   1.000000
   48       -6.640782   1.000000
   49       -6.558953   1.000000
   50       -6.504565   1.000000
   51       -6.418434   1.000000
   52       -6.391498   1.000000
   53       -6.287130   1.000000
   54       -6.258540   1.000000
   55       -6.143255   1.000000
   56       -6.077034   1.000000
   57       -5.994111   1.000000
   58       -5.930099   1.000000
   59       -5.847560   1.000000
   60       -5.830644   1.000000
   61       -5.755960   1.000000
   62       -5.631720   1.000000
   63       -5.483671   1.000000
   64       -5.349661   1.000000
   65       -5.312436   1.000000
   66       -5.115855   1.000000
   67       -4.893452   1.000000
   68       -4.867318   1.000000
   69       -4.837477   1.000000
   70       -4.727344   1.000000
   71       -4.618741   1.000000
   72       -4.519508   1.000000
   73       -4.365171   1.000000
   74       -4.211141   1.000000
   75       -4.122739   1.000000
   76       -4.024713   0.999999
   77       -3.850978   0.999862
   78       -3.754572   0.998441
   79       -3.512058   0.892718
   80       -3.454141   0.797177
   81       -2.957407   0.003672
   82       -2.860604   0.000382
   83       -2.699689   0.000003
   84       -2.593906   0.000000
   85       -2.546326   0.000000
   86       -2.439086   0.000000
   87       -2.286159   0.000000
   88       -2.196096   0.000000
   89       -2.118202   0.000000
   90       -1.887085   0.000000
   91       -1.647556   0.000000
   92       -1.520361   0.000000
   93       -1.505271   0.000000
   94       -1.359180   0.000000
   95       -1.273721   0.000000
   96       -1.164889   0.000000
   97       -1.061922   0.000000
   98       -1.019397   0.000000
   99       -0.975917   0.000000
  100       -0.914425   0.000000
  101       -0.819074   0.000000
  102       -0.755574   0.000000
  103       -0.692136   0.000000
  104       -0.637659   0.000000
  105       -0.447918   0.000000
  106       -0.425444   0.000000
  107       -0.246885   0.000000
  108       -0.174588   0.000000
  109       -0.114814   0.000000
  110        0.139585   0.000000
  111        0.275187   0.000000
  112        0.687201   0.000000
  113        0.922579   0.000000
  114        0.966125   0.000000
  115        1.036066   0.000000
  116        1.315584   0.000000
  117        1.396233   0.000000
  118        2.184752   0.000000
  119        2.252836   0.000000
  120        2.372467   0.000000
 
  0.0000000E+00  0.1250000E+00  0.0000000E+00  0.3125000E-01
    1      -17.782685   1.000000
    2      -16.781361   1.000000
    3      -16.729256   1.000000
    4      -16.658727   1.000000
    5      -16.541545   1.000000
    6      -16.454605   1.000000
    7      -16.401978   1.000000
    8      -16.263930   1.000000
    9      -16.147058   1.000000
   10      -16.091832   1.000000
   11      -16.031551   1.000000
   12      -15.965755   1.000000
   13      -15.872062   1.000000
   14      -15.770409   1.000000
   15      -15.628412   1.000000
   16      -15.386571   1.000000
   17      -15.373282   1.000000
   18      -15.219509   1.000000
   19       -9.315728   1.000000
   20       -9.138853   1.000000
   21       -9.011226   1.000000
   22       -8.971669   1.000000
   23       -8.773504   1.000000
   24       -8.732697   1.000000
   25       -8.647502   1.000000
   26       -8.601227   1.000000
   27       -8.534191   1.000000
   28       -8.513078   1.000000
   29       -8.407256   1.000000
   30       -8.302648   1.000000
   31       -8.251120   1.000000
   32       -8.074461   1.000000
   33       -8.021800   1.000000
   34       -7.892470   1.000000
   35       -7.799688   1.000000
   36       -7.748782   1.000000
   37       -7.673809   1.000000
   38       -7.579723   1.000000
   39       -7.502553   1.000000
   40       -7.423752   1.000000
   41       -7.302861   1.000000
   42       -7.212532   1.000000
   43       -7.160591   1.000000
   44       -6.958375   1.000000
   45       -6.845243   1.000000
   46       -6.778017   1.000000
   47       -6.713363   1.000000
   48       -6.668274   1.000000
   49       -6.497772   1.000000
   50       -6.458842   1.000000
   51       -6.424738   1.000000
   52       -6.400331   1.000000
   53       -6.310243   1.000000
   54       -6.278752   1.000000
   55       -6.244291   1.000000
   56       -6.123104   1.000000
   57       -6.060175   1.000000
   58       -5.964485   1.000000
   59       -5.803678   1.000000
   60       -5.515935   1.000000
   61       -5.448923   1.000000
   62       -5.414357   1.000000
   63       -5.329108   1.000000
   64       -5.245237   1.000000
   65       -5.069671   1.000000
   66       -5.035870   1.000000
   67       -4.940037   1.000000
   68       -4.893158   1.000000
   69       -4.812392   1.000000
   70       -4.722330   1.000000
   71       -4.647864   1.000000
   72       -4.569826   1.000000
   73       -4.485823   1.000000
   74       -4.289783   1.000000
   75       -4.081067   1.000000
   76       -3.961610   0.999995
   77       -3.871136   0.999922
   78       -3.691715   0.993989
   79       -3.598451   0.967987
   80       -3.416681   0.714540
   81       -3.118389   0.061470
   82       -2.939985   0.002523
   83       -2.827249   0.000158
   84       -2.714820   0.000006
   85       -2.505566   0.000000
   86       -2.443995   0.000000
   87       -2.384737   0.000000
   88       -2.353816   0.000000
   89       -2.196217   0.000000
   90       -2.147731   0.000000
   91       -1.585121   0.000000
   92       -1.525870   0.000000
   93       -1.441978   0.000000
   94       -1.307078   0.000000
   95       -1.099778   0.000000
   96       -1.074511   0.000000
   97       -0.997464   0.000000
   98       -0.891591   0.000000
   99       -0.811098   0.000000
  100       -0.723334   0.000000
  101       -0.661549   0.000000
  102       -0.597305   0.000000
  103       -0.558076   0.000000
  104       -0.403453   0.000000
  105       -0.330707   0.000000
  106       -0.190045   0.000000
  107       -0.123331   0.000000
  108       -0.000103   0.000000
  109        0.119043   0.000000
  110        0.190132   0.000000
  111        0.289530   0.000000
  112        0.677451   0.000000
  113        0.705629   0.000000
  114        0.901319   0.000000
  115        0.948573   0.000000
  116        1.003089   0.000000
  117        1.285360   0.000000
  118        1.687235   0.000000
  119        1.870776   0.000000
  120        2.183792   0.000000
 
  0.1250000E+00  0.1250000E+00  0.0000000E+00  0.3125000E-01
    1      -17.735965   1.000000
    2      -16.857620   1.000000
    3      -16.839747   1.000000
    4      -16.718988   1.000000
    5      -16.460546   1.000000
    6      -16.439532   1.000000
    7      -16.393238   1.000000
    8      -16.270727   1.000000
    9      -16.116575   1.000000
   10      -16.058785   1.000000
   11      -15.976017   1.000000
   12      -15.953676   1.000000
   13      -15.833972   1.000000
   14      -15.770532   1.000000
   15      -15.649378   1.000000
   16      -15.403919   1.000000
   17      -15.383924   1.000000
   18      -15.220217   1.000000
   19       -9.346168   1.000000
   20       -9.273757   1.000000
   21       -9.180660   1.000000
   22       -9.080625   1.000000
   23       -8.817609   1.000000
   24       -8.690271   1.000000
   25       -8.630382   1.000000
   26       -8.565345   1.000000
   27       -8.519240   1.000000
   28       -8.471110   1.000000
   29       -8.325131   1.000000
   30       -8.268138   1.000000
   31       -8.133843   1.000000
   32       -8.055744   1.000000
   33       -8.044878   1.000000
   34       -7.831380   1.000000
   35       -7.780468   1.000000
   36       -7.698782   1.000000
   37       -7.566525   1.000000
   38       -7.551356   1.000000
   39       -7.480322   1.000000
   40       -7.358249   1.000000
   41       -7.319436   1.000000
   42       -7.270253   1.000000
   43       -7.099686   1.000000
   44       -7.003001   1.000000
   45       -6.846870   1.000000
   46       -6.817138   1.000000
   47       -6.693672   1.000000
   48       -6.654845   1.000000
   49       -6.526053   1.000000
   50       -6.501241   1.000000
   51       -6.396628   1.000000
   52       -6.355506   1.000000
   53       -6.311255   1.000000
   54       -6.281957   1.000000
   55       -6.267175   1.000000
   56       -6.102887   1.000000
   57       -6.051713   1.000000
   58       -5.924439   1.000000
   59       -5.793402   1.000000
   60       -5.595300   1.000000
   61       -5.585763   1.000000
   62       -5.420687   1.000000
   63       -5.367172   1.000000
   64       -5.290246   1.000000
   65       -5.106219   1.000000
   66       -5.037955   1.000000
   67       -4.987946   1.000000
   68       -4.939248   1.000000
   69       -4.802907   1.000000
   70       -4.659829   1.000000
   71       -4.626993   1.000000
   72       -4.534959   1.000000
   73       -4.404250   1.000000
   74       -4.199062   1.000000
   75       -4.123901   1.000000
   76       -4.012970   0.999999
   77       -3.883277   0.999945
   78       -3.751173   0.998316
   79       -3.632800   0.981909
   80       -3.453360   0.795614
   81       -3.032000   0.015643
   82       -2.860335   0.000380
   83       -2.808557   0.000094
   84       -2.659069   0.000001
   85       -2.494635   0.000000
   86       -2.453754   0.000000
   87       -2.348568   0.000000
   88       -2.347293   0.000000
   89       -2.172503   0.000000
   90       -2.108513   0.000000
   91       -1.583264   0.000000
   92       -1.538951   0.000000
   93       -1.415817   0.000000
   94       -1.340195   0.000000
   95       -1.080835   0.000000
   96       -1.073159   0.000000
   97       -1.001099   0.000000
   98       -0.929329   0.000000
   99       -0.916410   0.000000
  100       -0.812629   0.000000
  101       -0.722411   0.000000
  102       -0.649798   0.000000
  103       -0.643288   0.000000
  104       -0.440055   0.000000
  105       -0.423402   0.000000
  106       -0.221633   0.000000
  107       -0.131833   0.000000
  108       -0.040075   0.000000
  109        0.028287   0.000000
  110        0.152078   0.000000
  111        0.275337   0.000000
  112        0.691090   0.000000
  113        0.801634   0.000000
  114        0.887864   0.000000
  115        1.020846   0.000000
  116        1.086623   0.000000
  117        1.290551   0.000000
  118        1.765853   0.000000
  119        1.949146   0.000000
  120        2.252317   0.000000
 
  0.2500000E+00  0.1250000E+00  0.0000000E+00  0.3125000E-01
    1      -17.645352   1.000000
    2      -17.064620   1.000000
    3      -16.905304   1.000000
    4      -16.707056   1.000000
    5      -16.466891   1.000000
    6      -16.428049   1.000000
    7      -16.359978   1.000000
    8      -16.219623   1.000000
    9      -16.109834   1.000000
   10      -16.045909   1.000000
   11      -15.941524   1.000000
   12      -15.903906   1.000000
   13      -15.786398   1.000000
   14      -15.749925   1.000000
   15      -15.677475   1.000000
   16      -15.419616   1.000000
   17      -15.396564   1.000000
   18      -15.229205   1.000000
   19       -9.562284   1.000000
   20       -9.376436   1.000000
   21       -9.283973   1.000000
   22       -9.094829   1.000000
   23       -8.856442   1.000000
   24       -8.695945   1.000000
   25       -8.546590   1.000000
   26       -8.490503   1.000000
   27       -8.447984   1.000000
   28       -8.414200   1.000000
   29       -8.283591   1.000000
   30       -8.266891   1.000000
   31       -8.163119   1.000000
   32       -8.074354   1.000000
   33       -7.978759   1.000000
   34       -7.894141   1.000000
   35       -7.812144   1.000000
   36       -7.640812   1.000000
   37       -7.583593   1.000000
   38       -7.453291   1.000000
   39       -7.407228   1.000000
   40       -7.263212   1.000000
   41       -7.237731   1.000000
   42       -7.163824   1.000000
   43       -7.051479   1.000000
   44       -6.965620   1.000000
   45       -6.874526   1.000000
   46       -6.795359   1.000000
   47       -6.720170   1.000000