       N       E                     dE             d eps       ncg     rms          rms(c)
DAV:   1     0.112361320372E+04    0.11236E+04   -0.35870E+04  8160   0.577E+02
DAV:   2    -0.441261882837E+01   -0.11280E+04   -0.10875E+04 11320   0.173E+02
DAV:   3    -0.199936063397E+03   -0.19552E+03   -0.18798E+03 10920   0.818E+01
DAV:   4    -0.208997758124E+03   -0.90617E+01   -0.87882E+01 12400   0.259E+01
DAV:   5    -0.209268956585E+03   -0.27120E+00   -0.27031E+00 11200   0.329E+00    0.274E+01
DAV:   6    -0.237345918369E+03   -0.28077E+02   -0.10896E+02 12600   0.604E+01    0.593E+01
DAV:   7    -0.196731477848E+03    0.40614E+02   -0.17852E+02 13520   0.151E+02    0.206E+01
DAV:   8    -0.190347977803E+03    0.63835E+01   -0.20997E+01 11520   0.134E+01    0.140E+01
DAV:   9    -0.188349235031E+03    0.19987E+01   -0.40586E+00 12040   0.633E+00    0.935E+00
DAV:  10    -0.187124877818E+03    0.12244E+01   -0.16229E+00 13160   0.762E+00    0.281E+00
DAV:  11    -0.187114803020E+03    0.10075E-01   -0.61438E-01 12240   0.223E+00    0.294E+00
DAV:  12    -0.187109494473E+03    0.53085E-02   -0.66170E-01 11960   0.345E+00    0.370E+00
DAV:  13    -0.186994338380E+03    0.11516E+00   -0.31681E-01 13000   0.325E+00    0.184E+00
DAV:  14    -0.186959479367E+03    0.34859E-01   -0.78523E-02 12800   0.164E+00    0.552E-01
DAV:  15    -0.186955423932E+03    0.40554E-02   -0.10703E-02 11520   0.357E-01    0.391E-01
DAV:  16    -0.186953527285E+03    0.18966E-02   -0.72562E-03 12880   0.409E-01    0.267E-01
DAV:  17    -0.186953529518E+03   -0.22337E-05   -0.29582E-03 12080   0.321E-01    0.296E-01
DAV:  18    -0.186952792763E+03    0.73676E-03   -0.14452E-03 10360   0.215E-01    0.510E-02
DAV:  19    -0.186953607318E+03   -0.81456E-03   -0.10108E-03  9400   0.716E-02    0.636E-02
DAV:  20    -0.186954675899E+03   -0.10686E-02   -0.35675E-04  8000   0.806E-02    0.463E-02
DAV:  21    -0.186955570869E+03   -0.89497E-03   -0.13268E-04  6280   0.414E-02    0.402E-02
DAV:  22    -0.186956363354E+03   -0.79248E-03   -0.15223E-04  8040   0.329E-02    0.198E-02
DAV:  23    -0.186956866969E+03   -0.50361E-03   -0.26852E-05  6280   0.173E-02    0.104E-02
DAV:  24    -0.186957177629E+03   -0.31066E-03   -0.17215E-05  5880   0.113E-02    0.573E-03
DAV:  25    -0.186957541020E+03   -0.36339E-03   -0.11011E-05  5480   0.852E-03    0.433E-03
DAV:  26    -0.186957765004E+03   -0.22398E-03   -0.77333E-06  6840   0.696E-03    0.188E-03
DAV:  27    -0.186957855785E+03   -0.90780E-04   -0.34169E-06  7200   0.423E-03
   1 F= -.18695786E+03 E0= -.18678717E+03  d E =-.186958E+03
       N       E                     dE             d eps       ncg     rms          rms(c)
DAV:   1    -0.187591553723E+03   -0.63379E+00   -0.26803E+02  8160   0.347E+01    0.465E+00
DAV:   2    -0.189620906898E+03   -0.20294E+01   -0.20147E+01 12320   0.158E+01    0.993E+00
DAV:   3    -0.189376930598E+03    0.24398E+00   -0.41920E+00 12240   0.124E+01    0.628E+00
DAV:   4    -0.188844295050E+03    0.53264E+00   -0.62741E-01 12520   0.425E+00    0.183E+00
DAV:   5    -0.188848902367E+03   -0.46073E-02   -0.28475E-01 11400   0.205E+00    0.265E+00
DAV:   6    -0.188901127592E+03   -0.52225E-01   -0.47101E-01 12400   0.383E+00    0.469E+00
DAV:   7    -0.188763905126E+03    0.13722E+00   -0.39870E-01 12480   0.307E+00    0.110E+00
DAV:   8    -0.188748818322E+03    0.15087E-01   -0.49089E-02 10240   0.782E-01    0.544E-01
DAV:   9    -0.188744118138E+03    0.47002E-02   -0.10912E-02 12240   0.319E-01    0.207E-01
DAV:  10    -0.188744850359E+03   -0.73222E-03   -0.39042E-03 13000   0.316E-01    0.383E-01
DAV:  11    -0.188744005678E+03    0.84468E-03   -0.36425E-03 12640   0.351E-01    0.203E-01
DAV:  12    -0.188743660010E+03    0.34567E-03   -0.11722E-03 11640   0.149E-01    0.655E-02
DAV:  13    -0.188743725368E+03   -0.65358E-04   -0.20181E-04  7520   0.526E-02
   2 F= -.18874373E+03 E0= -.18860575E+03  d E =-.178587E+01
       N       E                     dE             d eps       ncg     rms          rms(c)
DAV:   1    -0.190658815790E+03   -0.19152E+01   -0.30986E+01  9080   0.142E+01    0.441E+00
DAV:   2    -0.190588111280E+03    0.70705E-01   -0.27091E+00 11160   0.924E+00    0.708E+00
DAV:   3    -0.190154180936E+03    0.43393E+00   -0.13273E+00 12200   0.853E+00    0.430E+00
DAV:   4    -0.189936855829E+03    0.21733E+00   -0.72130E-01 12760   0.428E+00    0.249E+00
DAV:   5    -0.189896362726E+03    0.40493E-01   -0.36113E-01 12240   0.273E+00    0.246E+00
DAV:   6    -0.189840779347E+03    0.55583E-01   -0.12468E-01 12640   0.215E+00    0.771E-01
DAV:   7    -0.189834119452E+03    0.66599E-02   -0.13803E-02 11440   0.549E-01    0.206E-01
DAV:   8    -0.189834088065E+03    0.31387E-04   -0.25716E-03 11280   0.151E-01    0.139E-01
DAV:   9    -0.189834285639E+03   -0.19757E-03   -0.93248E-04  9720   0.106E-01    0.128E-01
DAV:  10    -0.189834283167E+03    0.24722E-05   -0.63213E-04  9720   0.133E-01
   3 F= -.18983428E+03 E0= -.18971735E+03  d E =-.109056E+01
       N       E                     dE             d eps       ncg     rms          rms(c)
DAV:   1    -0.191431971946E+03   -0.15977E+01   -0.78356E+01  8160   0.202E+01    0.464E+00
DAV:   2    -0.191219975809E+03    0.21200E+00   -0.54189E+00 13320   0.746E+00    0.439E+00
DAV:   3    -0.191443299010E+03   -0.22332E+00   -0.16250E+00 11960   0.909E+00    0.758E+00
DAV:   4    -0.191047012742E+03    0.39629E+00   -0.19024E+00 11680   0.863E+00    0.415E+00
DAV:   5    -0.191032573091E+03    0.14440E-01   -0.87177E-01 11560   0.580E+00    0.367E+00
DAV:   6    -0.190843235644E+03    0.18934E+00   -0.22062E-01 11200   0.309E+00    0.679E-01
DAV:   7    -0.190839946709E+03    0.32889E-02   -0.37711E-02 11360   0.697E-01    0.472E-01
DAV:   8    -0.190837473546E+03    0.24732E-02   -0.80926E-03 10480   0.477E-01    0.338E-01
DAV:   9    -0.190836809996E+03    0.66355E-03   -0.27915E-03 11640   0.355E-01    0.183E-01
DAV:  10    -0.190836982889E+03   -0.17289E-03   -0.13277E-03 11480   0.160E-01    0.105E-01
DAV:  11    -0.190836830699E+03    0.15219E-03   -0.52853E-04  9480   0.910E-02    0.425E-02
DAV:  12    -0.190836833505E+03   -0.28066E-05   -0.10164E-04  7240   0.398E-02
   4 F= -.19083683E+03 E0= -.19073493E+03  d E =-.100255E+01
       N       E                     dE             d eps       ncg     rms          rms(c)
DAV:   1    -0.192192627395E+03   -0.13558E+01   -0.16729E+02  8160   0.288E+01    0.568E+00
DAV:   2    -0.191926424772E+03    0.26620E+00   -0.94890E+00 10840   0.779E+00    0.374E+00
DAV:   3    -0.192215382830E+03   -0.28896E+00   -0.24666E+00 12200   0.940E+00    0.721E+00
DAV:   4    -0.191738779536E+03    0.47660E+00   -0.16241E+00 12160   0.937E+00    0.382E+00
DAV:   5    -0.191545038859E+03    0.19374E+00   -0.45325E-01 11320   0.399E+00    0.159E+00
DAV:   6    -0.191541202069E+03    0.38368E-02   -0.20014E-01 12560   0.307E+00    0.173E+00
DAV:   7    -0.191511141331E+03    0.30061E-01   -0.68332E-02 12480   0.180E+00    0.508E-01
DAV:   8    -0.191510843733E+03    0.29760E-03   -0.18462E-02 11880   0.860E-01    0.654E-01
DAV:   9    -0.191506898767E+03    0.39450E-02   -0.90181E-03 11440   0.629E-01    0.169E-01
DAV:  10    -0.191507015818E+03   -0.11705E-03   -0.21492E-03 11120   0.148E-01    0.770E-02
DAV:  11    -0.191506961176E+03    0.54642E-04   -0.41807E-04 10400   0.796E-02
   5 F= -.19150696E+03 E0= -.19140510E+03  d E =-.670128E+00
       N       E                     dE             d eps       ncg     rms          rms(c)
DAV:   1    -0.191571519937E+03   -0.64504E-01   -0.63725E+00  8160   0.531E+00    0.695E-01
DAV:   2    -0.191641952783E+03   -0.70433E-01   -0.30584E-01 12840   0.310E+00    0.229E+00
DAV:   3    -0.191584624553E+03    0.57328E-01   -0.10627E-01 12640   0.243E+00    0.383E-01
DAV:   4    -0.191586232570E+03   -0.16080E-02   -0.13544E-02 11640   0.653E-01    0.640E-01
DAV:   5    -0.191582906313E+03    0.33263E-02   -0.10086E-02 11440   0.620E-01    0.236E-01
DAV:   6    -0.191582632903E+03    0.27341E-03   -0.22949E-03 10360   0.222E-01    0.128E-01
DAV:   7    -0.191582349930E+03    0.28297E-03   -0.94817E-04 10320   0.107E-01    0.334E-02
DAV:   8    -0.191582367784E+03   -0.17854E-04   -0.12399E-04  7160   0.391E-02
   6 F= -.19158237E+03 E0= -.19147765E+03  d E =-.754066E-01
       N       E                     dE             d eps       ncg     rms          rms(c)
DAV:   1    -0.191650101703E+03   -0.67752E-01   -0.72830E+00  8160   0.566E+00    0.747E-01
DAV:   2    -0.191733642799E+03   -0.83541E-01   -0.30640E-01 13400   0.338E+00    0.264E+00
DAV:   3    -0.191659369896E+03    0.74273E-01   -0.14145E-01 12440   0.272E+00    0.463E-01
DAV:   4    -0.191663402582E+03   -0.40327E-02   -0.24154E-02 11600   0.898E-01    0.872E-01
DAV:   5    -0.191656873201E+03    0.65294E-02   -0.15819E-02 11480   0.749E-01    0.205E-01
DAV:   6    -0.191656676246E+03    0.19696E-03   -0.24236E-03 10080   0.212E-01    0.141E-01
DAV:   7    -0.191657173380E+03   -0.49713E-03   -0.27557E-03 10480   0.324E-01    0.287E-01
DAV:   8    -0.191656358170E+03    0.81521E-03   -0.16121E-03  9680   0.260E-01    0.351E-02
DAV:   9    -0.191656380329E+03   -0.22160E-04   -0.76559E-05  5720   0.369E-02
   7 F= -.19165638E+03 E0= -.19154970E+03  d E =-.740125E-01
       N       E                     dE             d eps       ncg     rms          rms(c)
DAV:   1    -0.191705771720E+03   -0.49414E-01   -0.36554E+00  8160   0.403E+00    0.528E-01
DAV:   2    -0.191744443558E+03   -0.38672E-01   -0.14931E-01 13440   0.233E+00    0.180E+00
DAV:   3    -0.191710464032E+03    0.33980E-01   -0.66911E-02 12280   0.184E+00    0.372E-01
DAV:   4    -0.191712804842E+03   -0.23408E-02   -0.14831E-02 11400   0.706E-01    0.664E-01
DAV:   5    -0.191708910444E+03    0.38944E-02   -0.88995E-03 11000   0.560E-01    0.139E-01
DAV:   6    -0.191708831557E+03    0.78887E-04   -0.12489E-03 10040   0.139E-01    0.825E-02
DAV:   7    -0.191708752526E+03    0.79031E-04   -0.53395E-04 10440   0.106E-01
   8 F= -.19170875E+03 E0= -.19160151E+03  d E =-.523722E-01
       N       E                     dE             d eps       ncg     rms          rms(c)
DAV:   1    -0.191784705972E+03   -0.75874E-01   -0.10455E+01  8160   0.681E+00    0.814E-01
DAV:   2    -0.191867758088E+03   -0.83052E-01   -0.35951E-01 13160   0.333E+00    0.261E+00
DAV:   3    -0.191800359462E+03    0.67399E-01   -0.15994E-01 12280   0.276E+00    0.693E-01
DAV:   4    -0.191804818158E+03   -0.44587E-02   -0.40264E-02 11680   0.117E+00    0.105E+00
DAV:   5    -0.191794981691E+03    0.98365E-02   -0.22951E-02 11600   0.904E-01    0.235E-01
DAV:   6    -0.191794619304E+03    0.36239E-03   -0.34009E-03 10520   0.234E-01    0.141E-01
DAV:   7    -0.191794667402E+03   -0.48097E-04   -0.19592E-03 12160   0.242E-01    0.204E-01
DAV:   8    -0.191794275239E+03    0.39216E-03   -0.99335E-04  9040   0.208E-01    0.509E-02
DAV:   9    -0.191794265826E+03    0.94135E-05   -0.98025E-05  5800   0.496E-02
   9 F= -.19179427E+03 E0= -.19168758E+03  d E =-.855133E-01
       N       E                     dE             d eps       ncg     rms          rms(c)
DAV:   1    -0.191856605807E+03   -0.62331E-01   -0.69625E+00  8160   0.563E+00    0.754E-01
DAV:   2    -0.191920721639E+03   -0.64116E-01   -0.29035E-01 13280   0.302E+00    0.242E+00
DAV:   3    -0.191867410090E+03    0.53312E-01   -0.13506E-01 12240   0.245E+00    0.700E-01
DAV:   4    -0.191870859197E+03   -0.34491E-02   -0.38556E-02 10880   0.119E+00    0.997E-01
DAV:   5    -0.191861411373E+03    0.94478E-02   -0.20223E-02 11520   0.864E-01    0.215E-01
DAV:   6    -0.191861221464E+03    0.18991E-03   -0.42062E-03 10080   0.284E-01    0.201E-01
DAV:   7    -0.191861797580E+03   -0.57612E-03   -0.42003E-03 11240   0.435E-01    0.333E-01
DAV:   8    -0.191860654254E+03    0.11433E-02   -0.19436E-03  9720   0.294E-01    0.358E-02
DAV:   9    -0.191860665617E+03   -0.11363E-04   -0.10866E-04  5600   0.384E-02
  10 F= -.19186067E+03 E0= -.19175458E+03  d E =-.663998E-01
       N       E                     dE             d eps       ncg     rms          rms(c)
DAV:   1    -0.191909216561E+03   -0.48562E-01   -0.63151E+00  8160   0.532E+00    0.571E-01
DAV:   2    -0.191940268908E+03   -0.31052E-01   -0.20497E-01 12840   0.189E+00    0.147E+00
DAV:   3    -0.191922603103E+03    0.17666E-01   -0.66878E-02 12160   0.166E+00    0.663E-01
DAV:   4    -0.191923277878E+03   -0.67478E-03   -0.22197E-02 11320   0.927E-01    0.727E-01
DAV:   5    -0.191917951761E+03    0.53261E-02   -0.10222E-02 11920   0.695E-01    0.184E-01
DAV:   6    -0.191917836492E+03    0.11527E-03   -0.23062E-03 11720   0.196E-01    0.119E-01
DAV:   7    -0.191917766178E+03    0.70314E-04   -0.11699E-03 11200   0.182E-01    0.140E-01
DAV:   8    -0.191917588740E+03    0.17744E-03   -0.51795E-04  8880   0.153E-01    0.466E-02
DAV:   9    -0.191917574717E+03    0.14024E-04   -0.67048E-05  5880   0.457E-02
  11 F= -.19191757E+03 E0= -.19181301E+03  d E =-.569091E-01
       N       E                     dE             d eps       ncg     rms          rms(c)
DAV:   1    -0.191932029792E+03   -0.14441E-01   -0.33597E-01  8160   0.132E+00    0.262E-01
DAV:   2    -0.191934855126E+03   -0.28253E-02   -0.21626E-02 11840   0.778E-01    0.592E-01
DAV:   3    -0.191931646798E+03    0.32083E-02   -0.81576E-03 11480   0.680E-01    0.228E-01
DAV:   4    -0.191932485756E+03   -0.83896E-03   -0.51028E-03 10560   0.441E-01    0.423E-01
DAV:   5    -0.191930910940E+03    0.15748E-02   -0.37618E-03  9800   0.388E-01    0.109E-01
DAV:   6    -0.191930757672E+03    0.15327E-03   -0.65045E-04  9040   0.112E-01    0.314E-02
DAV:   7    -0.191930802594E+03   -0.44921E-04   -0.18618E-04  7440   0.921E-02
  12 F= -.19193080E+03 E0= -.19182613E+03  d E =-.132279E-01
       N       E                     dE             d eps       ncg     rms          rms(c)
DAV:   1    -0.191959786111E+03   -0.29028E-01   -0.23348E+00  8160   0.326E+00    0.361E-01
DAV:   2    -0.191970002324E+03   -0.10216E-01   -0.82257E-02 13120   0.115E+00    0.799E-01
DAV:   3    -0.191965221193E+03    0.47811E-02   -0.20574E-02 11880   0.963E-01    0.425E-01
DAV:   4    -0.191965527547E+03   -0.30635E-03   -0.85732E-03 10560   0.592E-01    0.471E-01
DAV:   5    -0.191963258205E+03    0.22693E-02   -0.41510E-03 10840   0.458E-01    0.114E-01
DAV:   6    -0.191963424227E+03   -0.16602E-03   -0.12857E-03 10280   0.181E-01    0.150E-01
DAV:   7    -0.191963393210E+03    0.31017E-04   -0.13033E-03 10080   0.248E-01    0.155E-01
DAV:   8    -0.191963129619E+03    0.26359E-03   -0.43392E-04  7920   0.139E-01    0.181E-02
DAV:   9    -0.191963139117E+03   -0.94976E-05   -0.40709E-05  5800   0.229E-02
  13 F= -.19196314E+03 E0= -.19185947E+03  d E =-.323365E-01
       N       E                     dE             d eps       ncg     rms          rms(c)
DAV:   1    -0.191992002464E+03   -0.28873E-01   -0.22254E+00  8160   0.324E+00    0.422E-01
DAV:   2    -0.192002044497E+03   -0.10042E-01   -0.93109E-02 13200   0.128E+00    0.836E-01
DAV:   3    -0.191996455821E+03    0.55887E-02   -0.20701E-02 12080   0.107E+00    0.427E-01
DAV:   4    -0.191997465775E+03   -0.10100E-02   -0.10958E-02 11240   0.685E-01    0.607E-01
DAV:   5    -0.191994058724E+03    0.34071E-02   -0.72581E-03 10600   0.577E-01    0.156E-01
DAV:   6    -0.191994102764E+03   -0.44040E-04   -0.19714E-03 10520   0.228E-01    0.170E-01
DAV:   7    -0.191993963207E+03    0.13956E-03   -0.13638E-03  9880   0.258E-01    0.136E-01
DAV:   8    -0.191993756277E+03    0.20693E-03   -0.34535E-04  7680   0.122E-01    0.195E-02
DAV:   9    -0.191993758221E+03   -0.19434E-05   -0.40994E-05  6600   0.222E-02
  14 F= -.19199376E+03 E0= -.19189088E+03  d E =-.306191E-01
       N       E                     dE             d eps       ncg     rms          rms(c)
DAV:   1    -0.192039826526E+03   -0.46070E-01   -0.14167E+01  8160   0.811E+00    0.888E-01
DAV:   2    -0.192077752191E+03   -0.37926E-01   -0.49880E-01 12400   0.228E+00    0.105E+00
DAV:   3    -0.192078618427E+03   -0.86624E-03   -0.65538E-02 12120   0.202E+00    0.109E+00
DAV:   4    -0.192066350312E+03    0.12268E-01   -0.26133E-02 11240   0.122E+00    0.702E-01
DAV:   5    -0.192064185709E+03    0.21646E-02   -0.18759E-02 12120   0.937E-01    0.528E-01
DAV:   6    -0.192062099237E+03    0.20865E-02   -0.91013E-03 12280   0.540E-01    0.218E-01
DAV:   7    -0.192061870296E+03    0.22894E-03   -0.33154E-03 11880   0.377E-01    0.249E-01
DAV:   8    -0.192061253099E+03    0.61720E-03   -0.13154E-03 10280   0.250E-01    0.525E-02
DAV:   9    -0.192061217401E+03    0.35698E-04   -0.15357E-04  5840   0.496E-02
  15 F= -.19206122E+03 E0= -.19196197E+03  d E =-.674592E-01
       N       E                     dE             d eps       ncg     rms          rms(c)
DAV:   1    -0.192071904804E+03   -0.10652E-01   -0.41775E-01  8160   0.139E+00    0.182E-01
DAV:   2    -0.192075367941E+03   -0.34631E-02   -0.20021E-02 11760   0.603E-01    0.523E-01
DAV:   3    -0.192072849787E+03    0.25182E-02   -0.61927E-03 12120   0.543E-01    0.165E-01
DAV:   4    -0.192072790288E+03    0.59499E-04   -0.95051E-04  9360   0.208E-01
  16 F= -.19207279E+03 E0= -.19197376E+03  d E =-.115729E-01
       N       E                     dE             d eps       ncg     rms          rms(c)
DAV:   1    -0.192057750021E+03    0.15100E-01   -0.92176E-01  8160   0.212E+00    0.292E-01
DAV:   2    -0.192066256204E+03   -0.85062E-02   -0.40775E-02 12120   0.958E-01    0.903E-01
DAV:   3    -0.192059239172E+03    0.70170E-02   -0.19677E-02 11720   0.932E-01    0.310E-01
DAV:   4    -0.192059336122E+03   -0.96950E-04   -0.41055E-03 10720   0.448E-01    0.315E-01
DAV:   5    -0.192058191196E+03    0.11449E-02   -0.19127E-03 10200   0.353E-01    0.874E-02
DAV:   6    -0.192058295029E+03   -0.10383E-03   -0.79128E-04  9960   0.168E-01    0.141E-01
DAV:   7    -0.192058144395E+03    0.15063E-03   -0.71045E-04  8920   0.192E-01    0.781E-02
DAV:   8    -0.192058083297E+03    0.61098E-04   -0.13561E-04  5840   0.788E-02
  17 F= -.19205808E+03 E0= -.19195842E+03  d E =0.147070E-01
       N       E                     dE             d eps       ncg     rms          rms(c)
DAV:   1    -0.192094939219E+03   -0.36795E-01   -0.43330E+00  8160   0.457E+00    0.624E-01
DAV:   2    -0.192115710614E+03   -0.20771E-01   -0.17261E-01 11560   0.161E+00    0.128E+00
DAV:   3    -0.192102007707E+03    0.13703E-01   -0.48401E-02 11880   0.160E+00    0.720E-01
DAV:   4    -0.192098163712E+03    0.38440E-02   -0.13890E-02 12240   0.737E-01    0.411E-01
DAV:   5    -0.192097009633E+03    0.11541E-02   -0.70564E-03 11240   0.700E-01    0.333E-01
DAV:   6    -0.192095820556E+03    0.11891E-02   -0.34670E-03 11480   0.418E-01    0.125E-01
DAV:   7    -0.192095681640E+03    0.13892E-03   -0.11994E-03 11600   0.192E-01    0.122E-01
DAV:   8    -0.192095554219E+03    0.12742E-03   -0.48917E-04  8760   0.159E-01    0.625E-02
DAV:   9    -0.192095507169E+03    0.47050E-04   -0.83333E-05  5920   0.611E-02
  18 F= -.19209551E+03 E0= -.19199884E+03  d E =-.374239E-01
       N       E                     dE             d eps       ncg     rms          rms(c)
DAV:   1    -0.192100229267E+03   -0.46750E-02   -0.15293E-01  8160   0.856E-01    0.129E-01
DAV:   2    -0.192100450929E+03   -0.22166E-03   -0.69886E-03 10440   0.277E-01    0.134E-01
DAV:   3    -0.192100563725E+03   -0.11280E-03   -0.14384E-03 10800   0.275E-01    0.186E-01
DAV:   4    -0.192100249880E+03    0.31384E-03   -0.94222E-04  8760   0.222E-01    0.979E-02
DAV:   5    -0.192100260557E+03   -0.10677E-04   -0.42985E-04  8440   0.154E-01
  19 F= -.19210026E+03 E0= -.19200440E+03  d E =-.475339E-02
       N       E                     dE             d eps       ncg     rms          rms(c)
DAV:   1    -0.192119021549E+03   -0.18772E-01   -0.12543E+00  8160   0.241E+00    0.324E-01
DAV:   2    -0.192129073522E+03   -0.10052E-01   -0.57288E-02 11160   0.110E+00    0.869E-01
DAV:   3    -0.192121539921E+03    0.75336E-02   -0.15557E-02 11960   0.949E-01    0.272E-01
DAV:   4    -0.192121736243E+03   -0.19632E-03   -0.31820E-03 10680   0.436E-01    0.304E-01
DAV:   5    -0.192120684261E+03    0.10520E-02   -0.17732E-03 10160   0.367E-01    0.961E-02
DAV:   6    -0.192120707619E+03   -0.23358E-04   -0.65761E-04 10600   0.131E-01
  20 F= -.19212071E+03 E0= -.19202633E+03  d E =-.204471E-01
       N       E                     dE             d eps       ncg     rms          rms(c)
DAV:   1    -0.192125475063E+03   -0.47908E-02   -0.71681E-02  8160   0.605E-01    0.126E-01
DAV:   2    -0.192127788338E+03   -0.23133E-02   -0.66451E-03 12400   0.530E-01    0.475E-01
DAV:   3    -0.192125392005E+03    0.23963E-02   -0.39951E-03 10840   0.481E-01    0.716E-02
DAV:   4    -0.192125491975E+03   -0.99970E-04   -0.33951E-04  8280   0.139E-01
  21 F= -.19212549E+03 E0= -.19203106E+03  d E =-.478436E-02
       N       E                     dE             d eps       ncg     rms          rms(c)
DAV:   1    -0.192130541388E+03   -0.51494E-02   -0.16073E-01  8160   0.867E-01    0.151E-01
DAV:   2    -0.192134708426E+03   -0.41670E-02   -0.13484E-02 12640   0.670E-01    0.622E-01
DAV:   3    -0.192130851452E+03    0.38570E-02   -0.59593E-03 10880   0.590E-01    0.721E-02
DAV:   4    -0.192130851079E+03    0.37340E-06   -0.25877E-04  7800   0.940E-02
  22 F= -.19213085E+03 E0= -.19203732E+03  d E =-.535910E-02
       N       E                     dE             d eps       ncg     rms          rms(c)
DAV:   1    -0.192148433739E+03   -0.17582E-01   -0.11343E+00  8160   0.230E+00    0.345E-01
DAV:   2    -0.192161452018E+03   -0.13018E-01   -0.53398E-02 10960   0.128E+00    0.102E+00
DAV:   3    -0.192149840298E+03    0.11612E-01   -0.18470E-02 11920   0.110E+00    0.251E-01
DAV:   4    -0.192150553076E+03   -0.71278E-03   -0.35754E-03 10600   0.492E-01    0.353E-01
DAV:   5    -0.192149087007E+03    0.14661E-02   -0.20986E-03 10280   0.396E-01    0.853E-02
DAV:   6    -0.192149343291E+03   -0.25628E-03   -0.88791E-04 10520   0.192E-01    0.165E-01
DAV:   7    -0.192149071335E+03    0.27196E-03   -0.68724E-04  8920   0.201E-01    0.603E-02
DAV:   8    -0.192149029336E+03    0.41999E-04   -0.77806E-05  5840   0.585E-02
  23 F= -.19214903E+03 E0= -.19205676E+03  d E =-.181783E-01
       N       E                     dE             d eps       ncg     rms          rms(c)
DAV:   1    -0.192160450014E+03   -0.11379E-01   -0.52972E-01  8160   0.158E+00    0.228E-01
DAV:   2    -0.192164299158E+03   -0.38491E-02   -0.23736E-02 11080   0.677E-01    0.556E-01
DAV:   3    -0.192161346969E+03    0.29522E-02   -0.70662E-03 12320   0.653E-01    0.216E-01
DAV:   4    -0.192161123800E+03    0.22317E-03   -0.13530E-03 10480   0.261E-01    0.167E-01
DAV:   5    -0.192160823805E+03    0.30000E-03   -0.74500E-04 11120   0.242E-01    0.855E-02
DAV:   6    -0.192160766711E+03    0.57094E-04   -0.32038E-04  7800   0.113E-01
  24 F= -.19216077E+03 E0= -.19206908E+03  d E =-.117374E-01
       N       E                     dE             d eps       ncg     rms          rms(c)
DAV:   1    -0.192174962420E+03   -0.14139E-01   -0.10063E+00  8160   0.216E+00    0.304E-01
DAV:   2    -0.192184327403E+03   -0.93650E-02   -0.46577E-02 10880   0.110E+00    0.832E-01
DAV:   3    -0.192176815321E+03    0.75121E-02   -0.13158E-02 12000   0.934E-01    0.232E-01
DAV:   4    -0.192177251927E+03   -0.43661E-03   -0.25874E-03 10560   0.431E-01    0.303E-01
DAV:   5    -0.192176183555E+03    0.10684E-02   -0.14931E-03 10080   0.348E-01    0.779E-02
DAV:   6    -0.192176309182E+03   -0.12563E-03   -0.58641E-04  9920   0.147E-01    0.120E-01
DAV:   7    -0.192176167306E+03    0.14188E-03   -0.41251E-04  9120   0.159E-01    0.521E-02
DAV:   8    -0.192176139391E+03    0.27915E-04   -0.56589E-05  5960   0.520E-02
  25 F= -.19217614E+03 E0= -.19208578E+03  d E =-.153727E-01
       N       E                     dE             d eps       ncg     rms          rms(c)
DAV:   1    -0.192192115081E+03   -0.15948E-01   -0.19180E+00  8160   0.299E+00    0.394E-01
DAV:   2    -0.192205526585E+03   -0.13412E-01   -0.83276E-02 11280   0.123E+00    0.937E-01
DAV:   3    -0.192196444850E+03    0.90817E-02   -0.19542E-02 11920   0.113E+00    0.355E-01
DAV:   4    -0.192196332898E+03    0.11195E-03   -0.40290E-03 11400   0.510E-01    0.342E-01
DAV:   5    -0.192194961799E+03    0.13711E-02   -0.21274E-03 11320   0.424E-01    0.110E-01
DAV:   6    -0.192194945579E+03    0.16220E-04   -0.82941E-04 10800   0.136E-01
  26 F= -.19219495E+03 E0= -.19210599E+03  d E =-.188062E-01
       N       E                     dE             d eps       ncg     rms          rms(c)
DAV:   1    -0.192202639865E+03   -0.76781E-02   -0.47875E-01  8160   0.150E+00    0.220E-01
DAV:   2    -0.192206034394E+03   -0.33945E-02   -0.24315E-02 10160   0.775E-01    0.481E-01
DAV:   3    -0.192203649707E+03    0.23847E-02   -0.55555E-03 12000   0.616E-01    0.181E-01
DAV:   4    -0.192203742285E+03   -0.92579E-04   -0.14266E-03  9960   0.315E-01    0.220E-01
DAV:   5    -0.192203256597E+03    0.48569E-03   -0.84908E-04  9720   0.265E-01    0.795E-02
DAV:   6    -0.192203237019E+03    0.19579E-04   -0.33840E-04  8280   0.109E-01
  27 F= -.19220324E+03 E0= -.19211534E+03  d E =-.829144E-02
       N       E                     dE             d eps       ncg     rms          rms(c)
DAV:   1    -0.192208174673E+03   -0.49181E-02   -0.21277E-01  8160   0.101E+00    0.154E-01
DAV:   2    -0.192210333758E+03   -0.21591E-02   -0.11380E-02 11920   0.505E-01    0.409E-01
DAV:   3    -0.192208586717E+03    0.17470E-02   -0.37809E-03 12160   0.491E-01    0.133E-01
DAV:   4    -0.192208538642E+03    0.48075E-04   -0.53294E-04  8840   0.175E-01
  28 F= -.19220854E+03 E0= -.19212065E+03  d E =-.530162E-02
       N       E                     dE             d eps       ncg     rms          rms(c)
DAV:   1    -0.192213311726E+03   -0.47250E-02   -0.23579E-01  8160   0.105E+00    0.168E-01
DAV:   2    -0.192214542827E+03   -0.12311E-02   -0.10189E-02 12200   0.416E-01    0.332E-01
DAV:   3    -0.192213648839E+03    0.89399E-03   -0.29463E-03 11960   0.443E-01    0.183E-01
DAV:   4    -0.192213296120E+03    0.35272E-03   -0.62139E-04  9120   0.169E-01    0.603E-02
DAV:   5    -0.192213273649E+03    0.22471E-04   -0.32105E-04  8080   0.919E-02
  29 F= -.19221327E+03 E0= -.19212610E+03  d E =-.473501E-02
       N       E                     dE             d eps       ncg     rms          rms(c)
DAV:   1    -0.192218336906E+03   -0.50408E-02   -0.29060E-01  8160   0.116E+00    0.175E-01
DAV:   2    -0.192221075275E+03   -0.27384E-02   -0.15406E-02 10480   0.664E-01    0.438E-01
DAV:   3    -0.192218922038E+03    0.21532E-02   -0.42076E-03 12160   0.543E-01    0.128E-01
DAV:   4    -0.192219007313E+03   -0.85275E-04   -0.83398E-04  9280   0.235E-01
  30 F= -.19221901E+03 E0= -.19213230E+03  d E =-.573366E-02
       N       E                     dE             d eps       ncg     rms          rms(c)
DAV:   1    -0.192223926949E+03   -0.50049E-02   -0.40874E-01  8160   0.138E+00    0.184E-01
DAV:   2    -0.192225572494E+03   -0.16455E-02   -0.15814E-02 12080   0.475E-01    0.304E-01
DAV:   3    -0.192224894589E+03    0.67790E-03   -0.29417E-03 11880   0.449E-01    0.196E-01
DAV:   4    -0.192224722259E+03    0.17233E-03   -0.94747E-04  9720   0.259E-01    0.160E-01
DAV:   5    -0.192224486810E+03    0.23545E-03   -0.56602E-04  9560   0.225E-01    0.768E-02
DAV:   6    -0.192224494155E+03   -0.73448E-05   -0.25673E-04  8360   0.108E-01
  31 F= -.19222449E+03 E0= -.19213873E+03  d E =-.548684E-02
       N       E                     dE             d eps       ncg     rms          rms(c)
DAV:   1    -0.192229624729E+03   -0.51379E-02   -0.76231E-01  8160   0.187E+00    0.234E-01
DAV:   2    -0.192234117216E+03   -0.44925E-02   -0.36392E-02 11160   0.689E-01    0.474E-01
DAV:   3    -0.192232206119E+03    0.19111E-02   -0.64544E-03 12080   0.650E-01    0.249E-01
DAV:   4    -0.192231696320E+03    0.50980E-03   -0.10718E-03  9600   0.264E-01    0.134E-01
DAV:   5    -0.192231562196E+03    0.13412E-03   -0.52161E-04  9320   0.209E-01    0.901E-02
DAV:   6    -0.192231590465E+03   -0.28268E-04   -0.45346E-04 10000   0.141E-01
  32 F= -.19223159E+03 E0= -.19214660E+03  d E =-.709631E-02
       N       E                     dE             d eps       ncg     rms          rms(c)
DAV:   1    -0.192236012891E+03   -0.44507E-02   -0.25213E+00  8160   0.339E+00    0.412E-01
DAV:   2    -0.192247546199E+03   -0.11533E-01   -0.10610E-01 11760   0.119E+00    0.687E-01
DAV:   3    -0.192243641487E+03    0.39047E-02   -0.15876E-02 11920   0.106E+00    0.432E-01
DAV:   4    -0.192242794601E+03    0.84689E-03   -0.47891E-03 11960   0.579E-01    0.367E-01
DAV:   5    -0.192241429544E+03    0.13651E-02   -0.23151E-03 10880   0.452E-01    0.129E-01
DAV:   6    -0.192241344170E+03    0.85374E-04   -0.91059E-04 11600   0.130E-01
  33 F= -.19224134E+03 E0= -.19215778E+03  d E =-.975370E-02
       N       E                     dE             d eps       ncg     rms          rms(c)
DAV:   1    -0.192242421193E+03   -0.99165E-03   -0.73062E-02  8160   0.587E-01    0.977E-02
DAV:   2    -0.192243266769E+03   -0.84558E-03   -0.44314E-03 12040   0.349E-01    0.259E-01
DAV:   3    -0.192242522729E+03    0.74404E-03   -0.15644E-03 10080   0.317E-01    0.676E-02
DAV:   4    -0.192242499667E+03    0.23062E-04   -0.13859E-04  5680   0.878E-02
  34 F= -.19224250E+03 E0= -.19215886E+03  d E =-.115550E-02
       N       E                     dE             d eps       ncg     rms          rms(c)
DAV:   1    -0.192243726928E+03   -0.12042E-02   -0.83751E-02  8160   0.621E-01    0.883E-02
DAV:   2    -0.192243923276E+03   -0.19635E-03   -0.32095E-03 10120   0.193E-01    0.101E-01
DAV:   3    -0.192243900395E+03    0.22881E-04   -0.46559E-04 10320   0.197E-01
  35 F= -.19224390E+03 E0= -.19216065E+03  d E =-.140073E-02
       N       E                     dE             d eps       ncg     rms          rms(c)
DAV:   1    -0.192244386799E+03   -0.46352E-03   -0.19694E-02  8160   0.322E-01    0.704E-02
DAV:   2    -0.192244919921E+03   -0.53312E-03   -0.15443E-03 12520   0.258E-01    0.231E-01
DAV:   3    -0.192244347706E+03    0.57221E-03   -0.77438E-04  9280   0.237E-01    0.412E-02
DAV:   4    -0.192244357264E+03   -0.95579E-05   -0.63144E-05  5600   0.453E-02
  36 F= -.19224436E+03 E0= -.19216114E+03  d E =-.456869E-03
       N       E                     dE             d eps       ncg     rms          rms(c)
DAV:   1    -0.192245195276E+03   -0.84757E-03   -0.48362E-02  8160   0.472E-01    0.848E-02
DAV:   2    -0.192245952847E+03   -0.75757E-03   -0.31577E-03 11240   0.353E-01    0.236E-01
DAV:   3    -0.192245249209E+03    0.70364E-03   -0.91180E-04 10040   0.279E-01    0.456E-02
DAV:   4    -0.192245296176E+03   -0.46967E-04   -0.15894E-04  6640   0.105E-01
  37 F= -.19224530E+03 E0= -.19216204E+03  d E =-.938912E-03
       N       E                     dE             d eps       ncg     rms          rms(c)
DAV:   1    -0.192245847721E+03   -0.59851E-03   -0.28264E-02  8160   0.367E-01    0.489E-02
DAV:   2    -0.192245914548E+03   -0.66827E-04   -0.10574E-03 11120   0.963E-02    0.454E-02
DAV:   3    -0.192245931407E+03   -0.16859E-04   -0.13523E-04  8080   0.103E-01
  38 F= -.19224593E+03 E0= -.19216304E+03  d E =-.635231E-03
