<?xml version="1.0" encoding="ISO-8859-1"?>
<modeling>
 <generator>
  <i name="program" type="string">vasp </i>
  <i name="version" type="string">5.4.1  </i>
  <i name="subversion" type="string">05Feb16 (build Jul 05 2020 17:13:04) complex                          parallel </i>
  <i name="platform" type="string">IFC91_ompi </i>
  <i name="date" type="string">2024 04 23 </i>
  <i name="time" type="string">16:00:39 </i>
 </generator>
 <incar>
  <i type="int" name="ISTART">     0</i>
  <i type="string" name="PREC">normal</i>
  <i type="string" name="ALGO"> Normal</i>
  <i type="int" name="ISPIN">     1</i>
  <i type="int" name="ICHARG">     2</i>
  <i type="int" name="IBRION">     1</i>
  <i type="int" name="NSW">   100</i>
  <i type="int" name="ISIF">     3</i>
  <i type="int" name="ISYM">     0</i>
  <i name="SYMPREC">      0.00000001</i>
  <i name="POTIM">      0.50000000</i>
  <i type="logical" name="LREAL"> F  </i>
  <i type="logical" name="LPLANE"> F  </i>
  <i type="int" name="ISMEAR">     0</i>
  <i type="logical" name="LWAVE"> F  </i>
  <i type="logical" name="LCHARG"> F  </i>
  <v type="int" name="KPOINT_BSE">    -1     0     0     0</v>
 </incar>
 <kpoints>
  <generation param="Gamma">
   <v type="int" name="divisions">       8        8        1 </v>
   <v name="usershift">      0.00000000       0.00000000       0.00000000 </v>
   <v name="genvec1">      0.12500000       0.00000000       0.00000000 </v>
   <v name="genvec2">     -0.00000000       0.12500000       0.00000000 </v>
   <v name="genvec3">      0.00000000       0.00000000       1.00000000 </v>
   <v name="shift">      0.00000000       0.00000000       0.00000000 </v>
  </generation>
  <varray name="kpointlist" >
   <v>       0.00000000       0.00000000       0.00000000 </v>
   <v>       0.12500000       0.00000000       0.00000000 </v>
   <v>       0.25000000       0.00000000       0.00000000 </v>
   <v>       0.37500000       0.00000000       0.00000000 </v>
   <v>       0.50000000       0.00000000       0.00000000 </v>
   <v>       0.00000000       0.12500000       0.00000000 </v>
   <v>       0.12500000       0.12500000       0.00000000 </v>
   <v>       0.25000000       0.12500000       0.00000000 </v>
   <v>       0.37500000       0.12500000       0.00000000 </v>
   <v>       0.50000000       0.12500000       0.00000000 </v>
   <v>      -0.37500000       0.12500000       0.00000000 </v>
   <v>      -0.25000000       0.12500000       0.00000000 </v>
   <v>      -0.12500000       0.12500000       0.00000000 </v>
   <v>       0.00000000       0.25000000       0.00000000 </v>
   <v>       0.12500000       0.25000000       0.00000000 </v>
   <v>       0.25000000       0.25000000       0.00000000 </v>
   <v>       0.37500000       0.25000000       0.00000000 </v>
   <v>       0.50000000       0.25000000       0.00000000 </v>
   <v>      -0.37500000       0.25000000       0.00000000 </v>
   <v>      -0.25000000       0.25000000       0.00000000 </v>
   <v>      -0.12500000       0.25000000       0.00000000 </v>
   <v>      -0.00000000       0.37500000       0.00000000 </v>
   <v>       0.12500000       0.37500000       0.00000000 </v>
   <v>       0.25000000       0.37500000       0.00000000 </v>
   <v>       0.37500000       0.37500000       0.00000000 </v>
   <v>       0.50000000       0.37500000       0.00000000 </v>
   <v>      -0.37500000       0.37500000       0.00000000 </v>
   <v>      -0.25000000       0.37500000       0.00000000 </v>
   <v>      -0.12500000       0.37500000       0.00000000 </v>
   <v>       0.00000000       0.50000000       0.00000000 </v>
   <v>       0.12500000       0.50000000       0.00000000 </v>
   <v>       0.25000000       0.50000000       0.00000000 </v>
   <v>       0.37500000       0.50000000       0.00000000 </v>
   <v>       0.50000000       0.50000000       0.00000000 </v>
  </varray>
  <varray name="weights" >
   <v>       0.01562500 </v>
   <v>       0.03125000 </v>
   <v>       0.03125000 </v>
   <v>       0.03125000 </v>
   <v>       0.01562500 </v>
   <v>       0.03125000 </v>
   <v>       0.03125000 </v>
   <v>       0.03125000 </v>
   <v>       0.03125000 </v>
   <v>       0.03125000 </v>
   <v>       0.03125000 </v>
   <v>       0.03125000 </v>
   <v>       0.03125000 </v>
   <v>       0.03125000 </v>
   <v>       0.03125000 </v>
   <v>       0.03125000 </v>
   <v>       0.03125000 </v>
   <v>       0.03125000 </v>
   <v>       0.03125000 </v>
   <v>       0.03125000 </v>
   <v>       0.03125000 </v>
   <v>       0.03125000 </v>
   <v>       0.03125000 </v>
   <v>       0.03125000 </v>
   <v>       0.03125000 </v>
   <v>       0.03125000 </v>
   <v>       0.03125000 </v>
   <v>       0.03125000 </v>
   <v>       0.03125000 </v>
   <v>       0.01562500 </v>
   <v>       0.03125000 </v>
   <v>       0.03125000 </v>
   <v>       0.03125000 </v>
   <v>       0.01562500 </v>
  </varray>
 </kpoints>
 <parameters>
  <separator name="general" >
   <i type="string" name="SYSTEM">unknown system</i>
   <i type="logical" name="LCOMPAT"> F  </i>
  </separator>
  <separator name="electronic" >
   <i type="string" name="PREC">normal</i>
   <i name="ENMAX">    280.00000000</i>
   <i name="ENAUG">    373.43800000</i>
   <i name="EDIFF">      0.00010000</i>
   <i type="int" name="IALGO">    38</i>
   <i type="int" name="IWAVPR">    11</i>
   <i type="int" name="NBANDS">   120</i>
   <i name="NELECT">    159.00000000</i>
   <i type="int" name="TURBO">     0</i>
   <i type="int" name="IRESTART">     0</i>
   <i type="int" name="NREBOOT">     0</i>
   <i type="int" name="NMIN">     0</i>
   <i name="EREF">      0.00000000</i>
   <separator name="electronic smearing" >
    <i type="int" name="ISMEAR">     0</i>
    <i name="SIGMA">      0.20000000</i>
    <i name="KSPACING">      0.50000000</i>
    <i type="logical" name="KGAMMA"> T  </i>
   </separator>
   <separator name="electronic projectors" >
    <i type="logical" name="LREAL"> F  </i>
    <v name="ROPT">      0.00000000      0.00000000      0.00000000      0.00000000</v>
    <i type="int" name="LMAXPAW">  -100</i>
    <i type="int" name="LMAXMIX">     2</i>
    <i type="logical" name="NLSPLINE"> F  </i>
   </separator>
   <separator name="electronic startup" >
    <i type="int" name="ISTART">     0</i>
    <i type="int" name="ICHARG">     2</i>
    <i type="int" name="INIWAV">     1</i>
   </separator>
   <separator name="electronic spin" >
    <i type="int" name="ISPIN">     1</i>
    <i type="logical" name="LNONCOLLINEAR"> F  </i>
    <v name="MAGMOM">      1.00000000      1.00000000      1.00000000      1.00000000      1.00000000      1.00000000      1.00000000      1.00000000      1.00000000      1.00000000      1.00000000      1.00000000      1.00000000      1.00000000      1.00000000      1.00000000      1.00000000      1.00000000      1.00000000      1.00000000
      1.00000000      1.00000000      1.00000000      1.00000000      1.00000000      1.00000000      1.00000000</v>
    <i name="NUPDOWN">     -1.00000000</i>
    <i type="logical" name="LSORBIT"> F  </i>
    <v name="SAXIS">      0.00000000      0.00000000      1.00000000</v>
    <i type="logical" name="LSPIRAL"> F  </i>
    <v name="QSPIRAL">      0.00000000      0.00000000      0.00000000</v>
    <i type="logical" name="LZEROZ"> F  </i>
   </separator>
   <separator name="electronic exchange-correlation" >
    <i type="logical" name="LASPH"> F  </i>
    <i type="logical" name="LMETAGGA"> F  </i>
   </separator>
   <separator name="electronic convergence" >
    <i type="int" name="NELM">    60</i>
    <i type="int" name="NELMDL">    -5</i>
    <i type="int" name="NELMIN">     2</i>
    <i name="ENINI">    280.00000000</i>
    <separator name="electronic convergence detail" >
     <i type="logical" name="LDIAG"> T  </i>
     <i type="logical" name="LSUBROT"> F  </i>
     <i name="WEIMIN">      0.00100000</i>
     <i name="EBREAK">      0.00000021</i>
     <i name="DEPER">      0.30000000</i>
     <i type="int" name="NRMM">     4</i>
     <i name="TIME">      0.40000000</i>
    </separator>
   </separator>
   <separator name="electronic mixer" >
    <i name="AMIX">      0.40000000</i>
    <i name="BMIX">      1.00000000</i>
    <i name="AMIN">      0.10000000</i>
    <i name="AMIX_MAG">      1.60000000</i>
    <i name="BMIX_MAG">      1.00000000</i>
    <separator name="electronic mixer details" >
     <i type="int" name="IMIX">     4</i>
     <i type="logical" name="MIXFIRST"> F  </i>
     <i type="int" name="MAXMIX">   -45</i>
     <i name="WC">    100.00000000</i>
     <i type="int" name="INIMIX">     1</i>
     <i type="int" name="MIXPRE">     1</i>
     <i type="int" name="MREMOVE">     5</i>
    </separator>
   </separator>
   <separator name="electronic dipolcorrection" >
    <i type="logical" name="LDIPOL"> F  </i>
    <i type="logical" name="LMONO"> F  </i>
    <i type="int" name="IDIPOL">     0</i>
    <i name="EPSILON">      1.00000000</i>
    <v name="DIPOL">   -100.00000000   -100.00000000   -100.00000000</v>
    <i name="EFIELD">      0.00000000</i>
   </separator>
  </separator>
  <separator name="grids" >
   <i type="int" name="NGX">    42</i>
   <i type="int" name="NGY">    42</i>
   <i type="int" name="NGZ">   126</i>
   <i type="int" name="NGXF">    84</i>
   <i type="int" name="NGYF">    84</i>
   <i type="int" name="NGZF">   252</i>
   <i type="logical" name="ADDGRID"> F  </i>
  </separator>
  <separator name="ionic" >
   <i type="int" name="NSW">   100</i>
   <i type="int" name="IBRION">     1</i>
   <i type="int" name="ISIF">     3</i>
   <i name="PSTRESS">      0.00000000</i>
   <i name="EDIFFG">      0.00100000</i>
   <i type="int" name="NFREE">     0</i>
   <i name="POTIM">      0.50000000</i>
   <i name="SMASS">     -3.00000000</i>
   <i name="SCALEE">      1.00000000</i>
  </separator>
  <separator name="ionic md" >
   <i name="TEBEG">      0.00010000</i>
   <i name="TEEND">      0.00010000</i>
   <i type="int" name="NBLOCK">     1</i>
   <i type="int" name="KBLOCK">   100</i>
   <i type="int" name="NPACO">   256</i>
   <i name="APACO">     16.00000000</i>
  </separator>
  <separator name="symmetry" >
   <i type="int" name="ISYM">     0</i>
   <i name="SYMPREC">      0.00000001</i>
  </separator>
  <separator name="dos" >
   <i type="logical" name="LORBIT"> F  </i>
   <v name="RWIGS">     -1.00000000     -1.00000000     -1.00000000     -1.00000000</v>
   <i type="int" name="NEDOS">   301</i>
   <i name="EMIN">     10.00000000</i>
   <i name="EMAX">    -10.00000000</i>
   <i name="EFERMI">      0.00000000</i>
  </separator>
  <separator name="writing" >
   <i type="int" name="NWRITE">     2</i>
   <i type="logical" name="LWAVE"> F  </i>
   <i type="logical" name="LCHARG"> F  </i>
   <i type="logical" name="LPARD"> F  </i>
   <i type="logical" name="LVTOT"> F  </i>
   <i type="logical" name="LVHAR"> F  </i>
   <i type="logical" name="LELF"> F  </i>
   <i type="logical" name="LOPTICS"> F  </i>
   <v name="STM">      0.00000000      0.00000000      0.00000000      0.00000000      0.00000000      0.00000000      0.00000000</v>
  </separator>
  <separator name="performance" >
   <i type="int" name="NPAR">    40</i>
   <i type="int" name="NSIM">     4</i>
   <i type="int" name="NBLK">    -1</i>
   <i type="logical" name="LPLANE"> F  </i>
   <i type="logical" name="LSCALAPACK"> T  </i>
   <i type="logical" name="LSCAAWARE"> F  </i>
   <i type="logical" name="LSCALU"> F  </i>
   <i type="logical" name="LASYNC"> F  </i>
   <i type="logical" name="LORBITALREAL"> F  </i>
  </separator>
  <separator name="miscellaneous" >
   <i type="int" name="IDIOT">     3</i>
   <i type="logical" name="LMUSIC"> F  </i>
   <v name="POMASS">     50.94100000     95.94000000    183.85000000     32.06600000</v>
   <v name="DARWINR">      0.00000000      0.00000000      0.00000000      0.00000000</v>
   <v name="DARWINV">      1.00000000      1.00000000      1.00000000      1.00000000</v>
   <i type="logical" name="LCORR"> T  </i>
  </separator>
  <i type="logical" name="GGA_COMPAT"> T  </i>
  <i type="logical" name="LBERRY"> F  </i>
  <i type="int" name="ICORELEVEL">     0</i>
  <i type="logical" name="LDAU"> F  </i>
  <i type="int" name="I_CONSTRAINED_M">     0</i>
  <separator name="electronic exchange-correlation" >
   <i type="string" name="GGA">--</i>
   <i type="int" name="VOSKOWN">     0</i>
   <i type="logical" name="LHFCALC"> F  </i>
   <i type="string" name="PRECFOCK"></i>
   <i type="logical" name="LSYMGRAD"> F  </i>
   <i type="logical" name="LHFONE"> F  </i>
   <i type="logical" name="LRHFCALC"> F  </i>
   <i type="logical" name="LTHOMAS"> F  </i>
   <i type="logical" name="LMODELHF"> F  </i>
   <i name="ENCUT4O">     -1.00000000</i>
   <i type="int" name="EXXOEP">     0</i>
   <i type="int" name="FOURORBIT">     0</i>
   <i name="AEXX">      0.00000000</i>
   <i name="HFALPHA">      0.00000000</i>
   <i name="MCALPHA">      0.00000000</i>
   <i name="ALDAX">      1.00000000</i>
   <i name="AGGAX">      1.00000000</i>
   <i name="ALDAC">      1.00000000</i>
   <i name="AGGAC">      1.00000000</i>
   <i type="int" name="NKREDX">     1</i>
   <i type="int" name="NKREDY">     1</i>
   <i type="int" name="NKREDZ">     1</i>
   <i type="logical" name="SHIFTRED"> F  </i>
   <i type="logical" name="ODDONLY"> F  </i>
   <i type="logical" name="EVENONLY"> F  </i>
   <i type="int" name="LMAXFOCK">     0</i>
   <i type="int" name="NMAXFOCKAE">     0</i>
   <i type="logical" name="LFOCKAEDFT"> F  </i>
   <i name="HFSCREEN">      0.00000000</i>
   <i name="HFSCREENC">      0.00000000</i>
   <i type="int" name="NBANDSGWLOW">     0</i>
  </separator>
  <separator name="vdW DFT" >
   <i type="logical" name="LUSE_VDW"> F  </i>
   <i name="Zab_VDW">     -0.84910000</i>
   <i name="PARAM1">      0.12340000</i>
   <i name="PARAM2">      1.00000000</i>
   <i name="PARAM3">      0.00000000</i>
  </separator>
  <separator name="model GW" >
   <i type="int" name="MODEL_GW">     0</i>
   <i name="MODEL_EPS0">     58.26239943</i>
   <i name="MODEL_ALPHA">      1.00000000</i>
  </separator>
  <separator name="linear response parameters" >
   <i type="logical" name="LEPSILON"> F  </i>
   <i type="logical" name="LRPA"> F  </i>
   <i type="logical" name="LNABLA"> F  </i>
   <i type="logical" name="LVEL"> F  </i>
   <i type="int" name="KINTER">     0</i>
   <i name="CSHIFT">      0.10000000</i>
   <i name="OMEGAMAX">     -1.00000000</i>
   <i name="DEG_THRESHOLD">      0.00200000</i>
  </separator>
  <separator name="orbital magnetization" >
   <i type="logical" name="NUCIND"> F  </i>
   <v name="MAGPOS">      0.00000000      0.00000000      0.00000000</v>
   <i type="logical" name="LNICSALL"> T  </i>
   <i type="logical" name="ORBITALMAG"> F  </i>
   <i type="logical" name="LMAGBLOCH"> F  </i>
   <i type="logical" name="LCHIMAG"> F  </i>
   <i type="logical" name="LGAUGE"> T  </i>
   <i type="int" name="MAGATOM">     0</i>
   <v name="MAGDIPOL">      0.00000000      0.00000000      0.00000000</v>
   <v name="AVECCONST">      0.00000000      0.00000000      0.00000000</v>
  </separator>
  <separator name="response functions" >
   <i type="logical" name="LADDER"> F  </i>
   <i type="logical" name="LFXC"> F  </i>
   <i type="logical" name="LHARTREE"> T  </i>
   <i type="int" name="IBSE">     0</i>
   <v type="int" name="KPOINT">    -1     0     0     0</v>
   <i type="logical" name="LTCTE"> F  </i>
   <i type="logical" name="LTETE"> F  </i>
   <i type="logical" name="LTRIPLET"> F  </i>
   <i type="logical" name="LFXCEPS"> F  </i>
   <i type="logical" name="LFXHEG"> F  </i>
   <i type="int" name="NATURALO">     0</i>
   <i type="logical" name="L2ORDER"> F  </i>
   <i type="logical" name="LUSEW"> F  </i>
   <i name="ENCUTGW">     -2.00000000</i>
   <i name="ENCUTGWSOFT">     -2.00000000</i>
   <i name="ENCUTLF">     -1.00000000</i>
   <i type="int" name="LMAXMP2">    -1</i>
   <i name="SCISSOR">      0.00000000</i>
   <i type="int" name="NOMEGA">     0</i>
   <i type="int" name="NOMEGAR">     0</i>
   <i type="int" name="NBANDSGW">    -1</i>
   <i type="int" name="NBANDSO">    -1</i>
   <i type="int" name="NBANDSV">    -1</i>
   <i type="int" name="NELM">     1</i>
   <i type="int" name="NELMHF">     1</i>
   <i type="int" name="DIM">     3</i>
   <i type="int" name="ANTIRES">     0</i>
   <i name="OMEGAMAX">    -30.00000000</i>
   <i name="OMEGAMIN">    -30.00000000</i>
   <i name="OMEGATL">   -200.00000000</i>
   <i type="int" name="OMEGAGRID">     0</i>
   <i name="CSHIFT">     -0.10000000</i>
   <i type="logical" name="SELFENERGY"> F  </i>
   <i type="logical" name="LSPECTRAL"> F  </i>
   <i type="logical" name="LSPECTRALGW"> F  </i>
   <i type="logical" name="LSINGLES"> F  </i>
   <i type="logical" name="LFERMIGW"> F  </i>
   <i type="logical" name="ODDONLYGW"> F  </i>
   <i type="logical" name="EVENONLYGW"> F  </i>
   <i type="int" name="NKREDLFX">     1</i>
   <i type="int" name="NKREDLFY">     1</i>
   <i type="int" name="NKREDLFZ">     1</i>
   <i type="int" name="MAXMEM">  1800</i>
   <i type="int" name="TELESCOPE">     0</i>
   <i type="int" name="TAUPAR">     1</i>
   <i type="int" name="OMEGAPAR">    -1</i>
   <i name="LAMBDA">      1.00000000</i>
  </separator>
  <separator name="External order field" >
   <i name="OFIELD_KAPPA">      0.00000000</i>
   <v name="OFIELD_K">      0.00000000      0.00000000      0.00000000</v>
   <i name="OFIELD_Q6_NEAR">      0.00000000</i>
   <i name="OFIELD_Q6_FAR">      0.00000000</i>
   <i name="OFIELD_A">      0.00000000</i>
  </separator>
 </parameters>
 <atominfo>
  <atoms>      27 </atoms>
  <types>       4 </types>
  <array name="atoms" >
   <dimension dim="1">ion</dimension>
   <field type="string">element</field>
   <field type="int">atomtype</field>
   <set>
    <rc><c>V </c><c>   1</c></rc>
    <rc><c>V </c><c>   1</c></rc>
    <rc><c>V </c><c>   1</c></rc>
    <rc><c>Mo</c><c>   2</c></rc>
    <rc><c>Mo</c><c>   2</c></rc>
    <rc><c>Mo</c><c>   2</c></rc>
    <rc><c>W </c><c>   3</c></rc>
    <rc><c>W </c><c>   3</c></rc>
    <rc><c>W </c><c>   3</c></rc>
    <rc><c>S </c><c>   4</c></rc>
    <rc><c>S </c><c>   4</c></rc>
    <rc><c>S </c><c>   4</c></rc>
    <rc><c>S </c><c>   4</c></rc>
    <rc><c>S </c><c>   4</c></rc>
    <rc><c>S </c><c>   4</c></rc>
    <rc><c>S </c><c>   4</c></rc>
    <rc><c>S </c><c>   4</c></rc>
    <rc><c>S </c><c>   4</c></rc>
    <rc><c>S </c><c>   4</c></rc>
    <rc><c>S </c><c>   4</c></rc>
    <rc><c>S </c><c>   4</c></rc>
    <rc><c>S </c><c>   4</c></rc>
    <rc><c>S </c><c>   4</c></rc>
    <rc><c>S </c><c>   4</c></rc>
    <rc><c>S </c><c>   4</c></rc>
    <rc><c>S </c><c>   4</c></rc>
    <rc><c>S </c><c>   4</c></rc>
   </set>
  </array>
  <array name="atomtypes" >
   <dimension dim="1">type</dimension>
   <field type="int">atomspertype</field>
   <field type="string">element</field>
   <field>mass</field>
   <field>valence</field>
   <field type="string">pseudopotential</field>
   <set>
    <rc><c>   3</c><c>V </c><c>     50.94100000</c><c>      5.00000000</c><c> PAW_PBE V 08Apr2002                    </c></rc>
    <rc><c>   3</c><c>Mo</c><c>     95.94000000</c><c>      6.00000000</c><c> PAW_PBE Mo 08Apr2002                   </c></rc>
    <rc><c>   3</c><c>W </c><c>    183.85000000</c><c>      6.00000000</c><c> PAW_PBE W 08Apr2002                    </c></rc>
    <rc><c>  18</c><c>S </c><c>     32.06600000</c><c>      6.00000000</c><c>  PAW_PBE S 17Jan2003                   </c></rc>
   </set>
  </array>
 </atominfo>
 <structure name="initialpos" >
  <crystal>
   <varray name="basis" >
    <v>       8.66999996       5.03999989       0.00000000 </v>
    <v>      -8.66999982       5.04000013       0.00000000 </v>
    <v>       0.00000000       0.00000000      30.00000000 </v>
   </varray>
   <i name="volume">   2621.80797419 </i>
   <varray name="rec_basis" >
    <v>       0.05767013       0.09920635       0.00000000 </v>
    <v>      -0.05767013       0.09920635       0.00000000 </v>
    <v>       0.00000000       0.00000000       0.03333333 </v>
   </varray>
  </crystal>
  <varray name="positions" >
   <v>       0.66666669       0.66666669       0.00000000 </v>
   <v>       0.00000000       0.66666669       0.00000000 </v>
   <v>       0.66666669       0.00000000       0.00000000 </v>
   <v>       1.00000000       0.33333334       0.00000000 </v>
   <v>       0.33333334       0.33333334       0.00000000 </v>
   <v>       0.33333334       0.00000000       0.00000000 </v>
   <v>       0.00000000       0.00000000       0.00000000 </v>
   <v>       0.33333334       0.66666669       0.00000000 </v>
   <v>       0.66666669       0.33333334       0.00000000 </v>
   <v>       0.11068511       0.22244981       0.95539999 </v>
   <v>       0.22244981       0.11068511       0.04460000 </v>
   <v>       0.11068511       0.55578315       0.95539999 </v>
   <v>       0.22244981       0.44401845       0.04460000 </v>
   <v>       0.11068511       0.88911647       0.95539999 </v>
   <v>       0.22244981       0.77735180       0.04460000 </v>
   <v>       0.44401845       0.22244981       0.95539999 </v>
   <v>       0.55578315       0.11068511       0.04460000 </v>
   <v>       0.44401845       0.55578315       0.95539999 </v>
   <v>       0.55578315       0.44401845       0.04460000 </v>
   <v>       0.44401845       0.88911647       0.95539999 </v>
   <v>       0.55578315       0.77735180       0.04460000 </v>
   <v>       0.77735180       0.22244981       0.95539999 </v>
   <v>       0.88911647       0.11068511       0.04460000 </v>
   <v>       0.77735180       0.55578315       0.95539999 </v>
   <v>       0.88911647       0.44401845       0.04460000 </v>
   <v>       0.77735180       0.88911647       0.95539999 </v>
   <v>       0.88911647       0.77735180       0.04460000 </v>
  </varray>
 </structure>
 <calculation>
  <scstep>
   <time name="dav">   21.45   21.51</time>
   <time name="total">   21.50   21.56</time>
   <energy>
    <i name="alphaZ">     81.65567618 </i>
    <i name="ewald">  41890.25208822 </i>
    <i name="hartreedc"> -47722.87084928 </i>
    <i name="XCdc">   -242.93151243 </i>
    <i name="pawpsdc">   3467.42045192 </i>
    <i name="pawaedc">  -2871.19716117 </i>
    <i name="eentropy">     -0.52853919 </i>
    <i name="bandstr">   -239.62947480 </i>
    <i name="atom">   6761.44252427 </i>
    <i name="e_fr_energy">   1123.61320372 </i>
    <i name="e_wo_entrp">   1124.14174291 </i>
    <i name="e_0_energy">   1123.87747331 </i>
   </energy>
  </scstep>
  <scstep>
   <time name="dav">   28.13   28.20</time>
   <time name="total">   28.13   28.21</time>
   <energy>
    <i name="e_fr_energy">     -4.41261883 </i>
    <i name="e_wo_entrp">     -4.21701234 </i>
    <i name="e_0_energy">     -4.31481558 </i>
   </energy>
  </scstep>
  <scstep>
   <time name="dav">   27.29   27.35</time>
   <time name="total">   27.29   27.36</time>
   <energy>
    <i name="e_fr_energy">   -199.93606340 </i>
    <i name="e_wo_entrp">   -199.66225275 </i>
    <i name="e_0_energy">   -199.79915807 </i>
   </energy>
  </scstep>
  <scstep>
   <time name="dav">   30.36   30.43</time>
   <time name="total">   30.36   30.44</time>
   <energy>
    <i name="e_fr_energy">   -208.99775812 </i>
    <i name="e_wo_entrp">   -208.69961606 </i>
    <i name="e_0_energy">   -208.84868709 </i>
   </energy>
  </scstep>
  <scstep>
   <time name="dav">   27.81   27.87</time>
   <time name="total">   28.27   28.35</time>
   <energy>
    <i name="e_fr_energy">   -209.26895659 </i>
    <i name="e_wo_entrp">   -208.97329503 </i>
    <i name="e_0_energy">   -209.12112581 </i>
   </energy>
  </scstep>
  <scstep>
   <time name="dav">   30.60   30.68</time>
   <time name="total">   31.10   31.18</time>
   <energy>
    <i name="e_fr_energy">   -237.34591837 </i>
    <i name="e_wo_entrp">   -237.06068997 </i>
    <i name="e_0_energy">   -237.20330417 </i>
   </energy>
  </scstep>
  <scstep>
   <time name="dav">   32.61   32.69</time>
   <time name="total">   33.12   33.20</time>
   <energy>
    <i name="e_fr_energy">   -196.73147785 </i>
    <i name="e_wo_entrp">   -196.40302519 </i>
    <i name="e_0_energy">   -196.56725152 </i>
   </energy>
  </scstep>
  <scstep>
   <time name="dav">   28.41   28.47</time>
   <time name="total">   28.91   28.99</time>
   <energy>
    <i name="e_fr_energy">   -190.34797780 </i>
    <i name="e_wo_entrp">   -190.08244038 </i>
    <i name="e_0_energy">   -190.21520909 </i>
   </energy>
  </scstep>
  <scstep>
   <time name="dav">   29.52   29.59</time>
   <time name="total">   30.03   30.11</time>
   <energy>
    <i name="e_fr_energy">   -188.34923503 </i>
    <i name="e_wo_entrp">   -188.02542744 </i>
    <i name="e_0_energy">   -188.18733124 </i>
   </energy>
  </scstep>
  <scstep>
   <time name="dav">   31.86   31.93</time>
   <time name="total">   32.39   32.47</time>
   <energy>
    <i name="e_fr_energy">   -187.12487782 </i>
    <i name="e_wo_entrp">   -186.77724507 </i>
    <i name="e_0_energy">   -186.95106144 </i>
   </energy>
  </scstep>
  <scstep>
   <time name="dav">   29.97   30.04</time>
   <time name="total">   30.50   30.58</time>
   <energy>
    <i name="e_fr_energy">   -187.11480302 </i>
    <i name="e_wo_entrp">   -186.77426341 </i>
    <i name="e_0_energy">   -186.94453322 </i>
   </energy>
  </scstep>
  <scstep>
   <time name="dav">   29.42   29.49</time>
   <time name="total">   29.95   30.03</time>
   <energy>
    <i name="e_fr_energy">   -187.10949447 </i>
    <i name="e_wo_entrp">   -186.77633239 </i>
    <i name="e_0_energy">   -186.94291343 </i>
   </energy>
  </scstep>
  <scstep>
   <time name="dav">   31.49   31.56</time>
   <time name="total">   32.02   32.11</time>
   <energy>
    <i name="e_fr_energy">   -186.99433838 </i>
    <i name="e_wo_entrp">   -186.65914660 </i>
    <i name="e_0_energy">   -186.82674249 </i>
   </energy>
  </scstep>
  <scstep>
   <time name="dav">   31.06   31.13</time>
   <time name="total">   31.59   31.68</time>
   <energy>
    <i name="e_fr_energy">   -186.95947937 </i>
    <i name="e_wo_entrp">   -186.61646590 </i>
    <i name="e_0_energy">   -186.78797263 </i>
   </energy>
  </scstep>
  <scstep>
   <time name="dav">   28.43   28.50</time>
   <time name="total">   28.96   29.04</time>
   <energy>
    <i name="e_fr_energy">   -186.95542393 </i>
    <i name="e_wo_entrp">   -186.61235014 </i>
    <i name="e_0_energy">   -186.78388704 </i>
   </energy>
  </scstep>
  <scstep>
   <time name="dav">   31.18   31.25</time>
   <time name="total">   31.71   31.79</time>
   <energy>
    <i name="e_fr_energy">   -186.95352728 </i>
    <i name="e_wo_entrp">   -186.61239572 </i>
    <i name="e_0_energy">   -186.78296150 </i>
   </energy>
  </scstep>
  <scstep>
   <time name="dav">   29.64   29.72</time>
   <time name="total">   30.18   30.26</time>
   <energy>
    <i name="e_fr_energy">   -186.95352952 </i>
    <i name="e_wo_entrp">   -186.61226181 </i>
    <i name="e_0_energy">   -186.78289567 </i>
   </energy>
  </scstep>
  <scstep>
   <time name="dav">   26.03   26.10</time>
   <time name="total">   26.57   26.64</time>
   <energy>
    <i name="e_fr_energy">   -186.95279276 </i>
    <i name="e_wo_entrp">   -186.61112699 </i>
    <i name="e_0_energy">   -186.78195988 </i>
   </energy>
  </scstep>
  <scstep>
   <time name="dav">   23.98   24.03</time>
   <time name="total">   24.51   24.58</time>
   <energy>
    <i name="e_fr_energy">   -186.95360732 </i>
    <i name="e_wo_entrp">   -186.61235039 </i>
    <i name="e_0_energy">   -186.78297885 </i>
   </energy>
  </scstep>
  <scstep>
   <time name="dav">   21.20   21.25</time>
   <time name="total">   21.74   21.80</time>
   <energy>
    <i name="e_fr_energy">   -186.95467590 </i>
    <i name="e_wo_entrp">   -186.61318399 </i>
    <i name="e_0_energy">   -186.78392994 </i>
   </energy>
  </scstep>
  <scstep>
   <time name="dav">   17.75   17.80</time>
   <time name="total">   18.29   18.34</time>
   <energy>
    <i name="e_fr_energy">   -186.95557087 </i>
    <i name="e_wo_entrp">   -186.61418505 </i>
    <i name="e_0_energy">   -186.78487796 </i>
   </energy>
  </scstep>
  <scstep>
   <time name="dav">   21.29   21.34</time>
   <time name="total">   21.83   21.89</time>
   <energy>
    <i name="e_fr_energy">   -186.95636335 </i>
    <i name="e_wo_entrp">   -186.61508283 </i>
    <i name="e_0_energy">   -186.78572309 </i>
   </energy>
  </scstep>
  <scstep>
   <time name="dav">   17.75   17.80</time>
   <time name="total">   18.29   18.34</time>
   <energy>
    <i name="e_fr_energy">   -186.95686697 </i>
    <i name="e_wo_entrp">   -186.61552340 </i>
    <i name="e_0_energy">   -186.78619518 </i>
   </energy>
  </scstep>
  <scstep>
   <time name="dav">   16.93   16.97</time>
   <time name="total">   17.46   17.51</time>
   <energy>
    <i name="e_fr_energy">   -186.95717763 </i>
    <i name="e_wo_entrp">   -186.61579168 </i>
    <i name="e_0_energy">   -186.78648466 </i>
   </energy>
  </scstep>
  <scstep>
   <time name="dav">   16.13   16.17</time>
   <time name="total">   16.66   16.71</time>
   <energy>
    <i name="e_fr_energy">   -186.95754102 </i>
    <i name="e_wo_entrp">   -186.61614411 </i>
    <i name="e_0_energy">   -186.78684257 </i>
   </energy>
  </scstep>
  <scstep>
   <time name="dav">   18.92   18.96</time>
   <time name="total">   19.45   19.50</time>
   <energy>
    <i name="e_fr_energy">   -186.95776500 </i>
    <i name="e_wo_entrp">   -186.61638712 </i>
    <i name="e_0_energy">   -186.78707606 </i>
   </energy>
  </scstep>
  <scstep>
   <time name="dav">   19.72   19.77</time>
   <time name="total">   19.75   19.81</time>
   <energy>
    <i name="alphaZ">     81.65567618 </i>
    <i name="ewald">  41890.25208822 </i>
    <i name="hartreedc"> -47833.37827019 </i>
    <i name="XCdc">   -231.58392540 </i>
    <i name="pawpsdc">   4192.27235963 </i>
    <i name="pawaedc">  -3610.31918441 </i>
    <i name="eentropy">     -0.34137347 </i>
    <i name="bandstr">  -1436.95775063 </i>
    <i name="atom">   6761.44252427 </i>
    <i name="e_fr_energy">   -186.95785578 </i>
    <i name="e_wo_entrp">   -186.61648232 </i>
    <i name="e_0_energy">   -186.78716905 </i>
   </energy>
  </scstep>
  <structure>
   <crystal>
    <varray name="basis" >
     <v>       8.66999996       5.03999989       0.00000000 </v>
     <v>      -8.66999982       5.04000013       0.00000000 </v>
     <v>       0.00000000       0.00000000      30.00000000 </v>
    </varray>
    <i name="volume">   2621.80797419 </i>
    <varray name="rec_basis" >
     <v>       0.05767013       0.09920635       0.00000000 </v>
     <v>      -0.05767013       0.09920635       0.00000000 </v>
     <v>       0.00000000       0.00000000       0.03333333 </v>
    </varray>
   </crystal>
   <varray name="positions" >
    <v>       0.66666669       0.66666669       0.00000000 </v>
    <v>       0.00000000       0.66666669       0.00000000 </v>
    <v>       0.66666669       0.00000000       0.00000000 </v>
    <v>       1.00000000       0.33333334       0.00000000 </v>
    <v>       0.33333334       0.33333334       0.00000000 </v>
    <v>       0.33333334       0.00000000       0.00000000 </v>
    <v>       0.00000000       0.00000000       0.00000000 </v>
    <v>       0.33333334       0.66666669       0.00000000 </v>
    <v>       0.66666669       0.33333334       0.00000000 </v>
    <v>       0.11068511       0.22244981       0.95539999 </v>
    <v>       0.22244981       0.11068511       0.04460000 </v>
    <v>       0.11068511       0.55578315       0.95539999 </v>
    <v>       0.22244981       0.44401845       0.04460000 </v>
    <v>       0.11068511       0.88911647       0.95539999 </v>
    <v>       0.22244981       0.77735180       0.04460000 </v>
    <v>       0.44401845       0.22244981       0.95539999 </v>
    <v>       0.55578315       0.11068511       0.04460000 </v>
    <v>       0.44401845       0.55578315       0.95539999 </v>
    <v>       0.55578315       0.44401845       0.04460000 </v>
    <v>       0.44401845       0.88911647       0.95539999 </v>
    <v>       0.55578315       0.77735180       0.04460000 </v>
    <v>       0.77735180       0.22244981       0.95539999 </v>
    <v>       0.88911647       0.11068511       0.04460000 </v>
    <v>       0.77735180       0.55578315       0.95539999 </v>
    <v>       0.88911647       0.44401845       0.04460000 </v>
    <v>       0.77735180       0.88911647       0.95539999 </v>
    <v>       0.88911647       0.77735180       0.04460000 </v>
   </varray>
  </structure>
  <varray name="forces" >
   <v>      -0.00002376      -0.15453552      -0.00000284 </v>
   <v>       0.15188917       0.07698994      -0.07163590 </v>
   <v>      -0.15193658       0.07698758       0.07162911 </v>
   <v>       0.26820613       0.15505006      -0.07216883 </v>
   <v>       0.00002030      -0.32754674      -0.00000307 </v>
   <v>      -0.26816407       0.15512322       0.07216266 </v>
   <v>      -0.00001810       0.45920146      -0.00000808 </v>
   <v>       0.01002231      -0.23557853      -0.00032539 </v>
   <v>      -0.01000528      -0.23568311       0.00031910 </v>
   <v>       0.18699712      -0.13771215      -2.94135193 </v>
   <v>      -0.18695439      -0.13772300       2.94133130 </v>
   <v>      -0.68573073       0.14183192      -2.16227053 </v>
   <v>      -0.18697635       0.16894446       2.88534599 </v>
   <v>       0.37729157      -0.73253717      -2.15894329 </v>
   <v>      -0.37079872      -0.67680601       2.14548477 </v>
   <v>       0.18699109       0.16891348      -2.88535247 </v>
   <v>       0.68574741       0.14179270       2.16227655 </v>
   <v>       0.36744466       0.68497733      -2.14469042 </v>
   <v>      -0.36744758       0.68496989       2.14467150 </v>
   <v>       0.61680136       0.54688215      -2.10251765 </v>
   <v>       0.23114469       0.54707913       1.43070509 </v>
   <v>       0.37078221      -0.67685219      -2.14548794 </v>
   <v>      -0.37728552      -0.73260040       2.15897624 </v>
   <v>      -0.23117892       0.54708073      -1.43069135 </v>
   <v>      -0.61682025       0.54685403       2.10255330 </v>
   <v>      -0.23907124      -0.52755259      -1.38317564 </v>
   <v>       0.23907351      -0.52755065       1.38316974 </v>
  </varray>
  <varray name="stress" >
   <v>       7.26698234      -0.00008688      -1.55101008 </v>
   <v>      -0.00008702       4.53240017      -0.00004159 </v>
   <v>      -1.55101010      -0.00004151      30.23645135 </v>
  </varray>
  <energy>
   <i name="e_fr_energy">   -186.95785578 </i>
   <i name="e_wo_entrp">   -186.78716905 </i>
   <i name="e_0_energy">     -0.34137347 </i>
  </energy>
  <time name="totalsc">  752.27  754.30</time>
 </calculation>
 <calculation>
  <scstep>
   <time name="dav">   21.42   21.47</time>
   <time name="total">   21.96   22.02</time>
   <energy>
    <i name="alphaZ">     78.91103877 </i>
    <i name="ewald">  39376.05433960 </i>
    <i name="hartreedc"> -45333.67104946 </i>
    <i name="XCdc">   -239.03936017 </i>
    <i name="pawpsdc">   4192.26105771 </i>
    <i name="pawaedc">  -3610.30795574 </i>
    <i name="eentropy">     -0.27792729 </i>
    <i name="bandstr">  -1412.96422142 </i>
    <i name="atom">   6761.44252427 </i>
    <i name="e_fr_energy">   -187.59155372 </i>
    <i name="e_wo_entrp">   -187.31362644 </i>
    <i name="e_0_energy">   -187.45259008 </i>
   </energy>
  </scstep>
  <scstep>
   <time name="dav">   30.14   30.21</time>
   <time name="total">   30.67   30.76</time>
   <energy>
    <i name="e_fr_energy">   -189.62090690 </i>
    <i name="e_wo_entrp">   -189.28166450 </i>
    <i name="e_0_energy">   -189.45128570 </i>
   </energy>
  </scstep>
  <scstep>
   <time name="dav">   29.80   29.87</time>
   <time name="total">   30.35   30.43</time>
   <energy>
    <i name="e_fr_energy">   -189.37693060 </i>
    <i name="e_wo_entrp">   -189.11325085 </i>
    <i name="e_0_energy">   -189.24509072 </i>
   </energy>
  </scstep>
  <scstep>
   <time name="dav">   30.39   30.46</time>
   <time name="total">   30.94   31.02</time>
   <energy>
    <i name="e_fr_energy">   -188.84429505 </i>
    <i name="e_wo_entrp">   -188.56498507 </i>
    <i name="e_0_energy">   -188.70464006 </i>
   </energy>
  </scstep>
  <scstep>
   <time name="dav">   28.07   28.14</time>
   <time name="total">   28.61   28.69</time>
   <energy>
    <i name="e_fr_energy">   -188.84890237 </i>
    <i name="e_wo_entrp">   -188.57036674 </i>
    <i name="e_0_energy">   -188.70963455 </i>
   </energy>
  </scstep>
  <scstep>
   <time name="dav">   30.12   30.19</time>
   <time name="total">   30.66   30.74</time>
   <energy>
    <i name="e_fr_energy">   -188.90112759 </i>
    <i name="e_wo_entrp">   -188.61096274 </i>
    <i name="e_0_energy">   -188.75604517 </i>
   </energy>
  </scstep>
  <scstep>
   <time name="dav">   30.33   30.41</time>
   <time name="total">   30.88   30.96</time>
   <energy>
    <i name="e_fr_energy">   -188.76390513 </i>
    <i name="e_wo_entrp">   -188.48824391 </i>
    <i name="e_0_energy">   -188.62607452 </i>
   </energy>
  </scstep>
  <scstep>
   <time name="dav">   25.73   25.79</time>
   <time name="total">   26.27   26.34</time>
   <energy>
    <i name="e_fr_energy">   -188.74881832 </i>
    <i name="e_wo_entrp">   -188.47130195 </i>
    <i name="e_0_energy">   -188.61006014 </i>
   </energy>
  </scstep>
  <scstep>
   <time name="dav">   29.97   30.04</time>
   <time name="total">   30.51   30.59</time>
   <energy>
    <i name="e_fr_energy">   -188.74411814 </i>
    <i name="e_wo_entrp">   -188.46730955 </i>
    <i name="e_0_energy">   -188.60571384 </i>
   </energy>
  </scstep>
  <scstep>
   <time name="dav">   31.45   31.52</time>
   <time name="total">   31.99   32.08</time>
   <energy>
    <i name="e_fr_energy">   -188.74485036 </i>
    <i name="e_wo_entrp">   -188.46866625 </i>
    <i name="e_0_energy">   -188.60675831 </i>
   </energy>
  </scstep>
  <scstep>
   <time name="dav">   30.71   30.78</time>
   <time name="total">   31.26   31.34</time>
   <energy>
    <i name="e_fr_energy">   -188.74400568 </i>
    <i name="e_wo_entrp">   -188.46812298 </i>
    <i name="e_0_energy">   -188.60606433 </i>
   </energy>
  </scstep>
  <scstep>
   <time name="dav">   28.62   28.69</time>
   <time name="total">   29.17   29.25</time>
   <energy>
    <i name="e_fr_energy">   -188.74366001 </i>
    <i name="e_wo_entrp">   -188.46783407 </i>
    <i name="e_0_energy">   -188.60574704 </i>
   </energy>
  </scstep>
  <scstep>
   <time name="dav">   20.39   20.44</time>
   <time name="total">   20.42   20.48</time>
   <energy>
    <i name="alphaZ">     78.91103877 </i>
    <i name="ewald">  39376.05433960 </i>
    <i name="hartreedc"> -45344.24777039 </i>
    <i name="XCdc">   -237.96100606 </i>
    <i name="pawpsdc">   3950.35715287 </i>
    <i name="pawaedc">  -3364.88452687 </i>
    <i name="eentropy">     -0.27594577 </i>
    <i name="bandstr">  -1408.13953179 </i>
    <i name="atom">   6761.44252427 </i>
    <i name="e_fr_energy">   -188.74372537 </i>
    <i name="e_wo_entrp">   -188.46777960 </i>
    <i name="e_0_energy">   -188.60575248 </i>
   </energy>
  </scstep>
  <structure>
   <crystal>
    <varray name="basis" >
     <v>       8.85421620       5.10678847       0.00000000 </v>
     <v>      -8.85421863       5.10679312       0.00000000 </v>
     <v>       0.00000000       0.00000000      30.00000000 </v>
    </varray>
    <i name="volume">   2712.99815922 </i>
    <varray name="rec_basis" >
     <v>       0.05647029       0.09790886       0.00000000 </v>
     <v>      -0.05647024       0.09790883       0.00000000 </v>
     <v>       0.00000000       0.00000000       0.03333333 </v>
    </varray>
   </crystal>
   <varray name="positions" >
    <v>       0.66592702       0.66592715      -0.00000000 </v>
    <v>       0.00079105       0.66661258      -0.00011520 </v>
    <v>       0.66661244       0.00079117       0.00011519 </v>
    <v>       1.00148826       0.33332922      -0.00011605 </v>
    <v>       0.33176577       0.33176566      -0.00000000 </v>
    <v>       0.33332968       0.00148849       0.00011604 </v>
    <v>       0.00219768       0.00219778      -0.00000001 </v>
    <v>       0.33223375       0.66551133      -0.00000052 </v>
    <v>       0.66551088       0.33223321       0.00000051 </v>
    <v>       0.11054628       0.22127047       0.95067004 </v>
    <v>       0.22127053       0.11054611       0.04932992 </v>
    <v>       0.10945610       0.55836977       0.95192287 </v>
    <v>       0.22273818       0.44534722       0.04923989 </v>
    <v>       0.10822889       0.88456087       0.95192822 </v>
    <v>       0.21817901       0.77514424       0.04805013 </v>
    <v>       0.44534711       0.22273799       0.95076009 </v>
    <v>       0.55836963       0.10945587       0.04807713 </v>
    <v>       0.44831903       0.55803915       0.95195114 </v>
    <v>       0.55803911       0.44831900       0.04804882 </v>
    <v>       0.44835186       0.89001779       0.95201896 </v>
    <v>       0.55904454       0.77932702       0.04690070 </v>
    <v>       0.77514397       0.21817883       0.95194986 </v>
    <v>       0.88456059       0.10822857       0.04807182 </v>
    <v>       0.77932694       0.55904465       0.95309931 </v>
    <v>       0.89001760       0.44835178       0.04798109 </v>
    <v>       0.77416181       0.88725675       0.95317572 </v>
    <v>       0.88725676       0.77416181       0.04682426 </v>
   </varray>
  </structure>
  <varray name="forces" >
   <v>       0.00032647      -0.15571976       0.00001957 </v>
   <v>       0.18200295       0.06951887       0.05831948 </v>
   <v>      -0.18165913       0.06939733      -0.05845001 </v>
   <v>       0.37701602       0.25933828       0.04503320 </v>
   <v>       0.00009632      -0.49653921       0.00003143 </v>
   <v>      -0.37770464       0.25863452      -0.04501706 </v>
   <v>       0.00042791       0.66526787      -0.00000390 </v>
   <v>       0.01743487      -0.34314996      -0.01652699 </v>
   <v>      -0.01839379      -0.34199731       0.01658552 </v>
   <v>       0.05940121      -0.10690191      -0.26706105 </v>
   <v>      -0.05937035      -0.10697176       0.26719820 </v>
   <v>       0.01581081       0.10442948      -0.10449523 </v>
   <v>      -0.04749434       0.11719057       0.13413551 </v>
   <v>      -0.11968455      -0.05699388       0.03632828 </v>
   <v>       0.10648684      -0.04416498      -0.06245860 </v>
   <v>       0.04735968       0.11715636      -0.13425644 </v>
   <v>      -0.01656550       0.10427294       0.10580643 </v>
   <v>      -0.11322288       0.04160535       0.05823150 </v>
   <v>       0.11339580       0.04158295      -0.05822086 </v>
   <v>       0.08070785      -0.05703593       0.16509740 </v>
   <v>      -0.06348948      -0.07038351      -0.12316469 </v>
   <v>      -0.10673393      -0.04339095       0.06130507 </v>
   <v>       0.12013062      -0.05614407      -0.03561735 </v>
   <v>       0.06407107      -0.06980188       0.12434851 </v>
   <v>      -0.08117857      -0.05641528      -0.16658954 </v>
   <v>       0.06357736       0.07851447       0.23990875 </v>
   <v>      -0.06274861       0.07870140      -0.24048711 </v>
  </varray>
  <varray name="stress" >
   <v>     -19.90849709       0.00039408       0.00643175 </v>
   <v>       0.00039402     -19.50149584       0.00039561 </v>
   <v>       0.00643184       0.00039537      -1.73057371 </v>
  </varray>
  <energy>
   <i name="e_fr_energy">   -188.74372537 </i>
   <i name="e_wo_entrp">   -188.60575248 </i>
   <i name="e_0_energy">     -0.27594577 </i>
  </energy>
  <time name="totalsc">  415.18  416.28</time>
 </calculation>
 <calculation>
  <scstep>
   <time name="dav">   23.30   23.36</time>
   <time name="total">   23.83   23.89</time>
   <energy>
    <i name="alphaZ">     82.31872433 </i>
    <i name="ewald">  41290.04262262 </i>
    <i name="hartreedc"> -47288.46598812 </i>
    <i name="XCdc">   -233.85881825 </i>
    <i name="pawpsdc">   3949.32722984 </i>
    <i name="pawaedc">  -3363.84644722 </i>
    <i name="eentropy">     -0.23264835 </i>
    <i name="bandstr">  -1387.38601490 </i>
    <i name="atom">   6761.44252427 </i>
    <i name="e_fr_energy">   -190.65881579 </i>
    <i name="e_wo_entrp">   -190.42616744 </i>
    <i name="e_0_energy">   -190.54249161 </i>
   </energy>
  </scstep>
  <scstep>
   <time name="dav">   27.63   27.70</time>
   <time name="total">   28.15   28.23</time>
   <energy>
    <i name="e_fr_energy">   -190.58811128 </i>
    <i name="e_wo_entrp">   -190.36094191 </i>
    <i name="e_0_energy">   -190.47452660 </i>
   </energy>
  </scstep>
  <scstep>
   <time name="dav">   29.70   29.77</time>
   <time name="total">   30.23   30.31</time>
   <energy>
    <i name="e_fr_energy">   -190.15418094 </i>
    <i name="e_wo_entrp">   -189.90206123 </i>
    <i name="e_0_energy">   -190.02812108 </i>
   </energy>
  </scstep>
  <scstep>
   <time name="dav">   30.94   31.02</time>
   <time name="total">   31.48   31.56</time>
   <energy>
    <i name="e_fr_energy">   -189.93685583 </i>
    <i name="e_wo_entrp">   -189.70725666 </i>
    <i name="e_0_energy">   -189.82205624 </i>
   </energy>
  </scstep>
  <scstep>
   <time name="dav">   29.78   29.85</time>
   <time name="total">   30.31   30.39</time>
   <energy>
    <i name="e_fr_energy">   -189.89636273 </i>
    <i name="e_wo_entrp">   -189.66651247 </i>
    <i name="e_0_energy">   -189.78143760 </i>
   </energy>
  </scstep>
  <scstep>
   <time name="dav">   30.69   30.77</time>
   <time name="total">   31.23   31.31</time>
   <energy>
    <i name="e_fr_energy">   -189.84077935 </i>
    <i name="e_wo_entrp">   -189.60593329 </i>
    <i name="e_0_energy">   -189.72335632 </i>
   </energy>
  </scstep>
  <scstep>
   <time name="dav">   28.13   28.20</time>
   <time name="total">   28.66   28.74</time>
   <energy>
    <i name="e_fr_energy">   -189.83411945 </i>
    <i name="e_wo_entrp">   -189.60049758 </i>
    <i name="e_0_energy">   -189.71730852 </i>
   </energy>
  </scstep>
  <scstep>
   <time name="dav">   27.89   27.96</time>
   <time name="total">   28.42   28.50</time>
   <energy>
    <i name="e_fr_energy">   -189.83408807 </i>
    <i name="e_wo_entrp">   -189.60033487 </i>
    <i name="e_0_energy">   -189.71721147 </i>
   </energy>
  </scstep>
  <scstep>
   <time name="dav">   24.63   24.68</time>
   <time name="total">   25.15   25.22</time>
   <energy>
    <i name="e_fr_energy">   -189.83428564 </i>
    <i name="e_wo_entrp">   -189.60054894 </i>
    <i name="e_0_energy">   -189.71741729 </i>
   </energy>
  </scstep>
  <scstep>
   <time name="dav">   24.66   24.72</time>
   <time name="total">   24.70   24.77</time>
   <energy>
    <i name="alphaZ">     82.31872433 </i>
    <i name="ewald">  41290.04262262 </i>
    <i name="hartreedc"> -47261.79269011 </i>
    <i name="XCdc">   -235.24533452 </i>
    <i name="pawpsdc">   4037.44827681 </i>
    <i name="pawaedc">  -3453.15919054 </i>
    <i name="eentropy">     -0.23386174 </i>
    <i name="bandstr">  -1410.65535428 </i>
    <i name="atom">   6761.44252427 </i>
    <i name="e_fr_energy">   -189.83428317 </i>
    <i name="e_wo_entrp">   -189.60042143 </i>
    <i name="e_0_energy">   -189.71735230 </i>
   </energy>
  </scstep>
  <structure>
   <crystal>
    <varray name="basis" >
     <v>       8.66710335       5.00107738       0.00000000 </v>
     <v>      -8.66710145       5.00107452       0.00000000 </v>
     <v>       0.00000000       0.00000000      30.00000000 </v>
    </varray>
    <i name="volume">   2600.69024013 </i>
    <varray name="rec_basis" >
     <v>       0.05768939       0.09997847       0.00000000 </v>
     <v>      -0.05768942       0.09997850       0.00000000 </v>
     <v>       0.00000000       0.00000000       0.03333333 </v>
    </varray>
   </crystal>
   <varray name="positions" >
    <v>       0.66566928       0.66566878       0.00000001 </v>
    <v>       0.00108021       0.66655383      -0.00008229 </v>
    <v>       0.66655381       0.00107980       0.00008221 </v>
    <v>       1.00227838       0.33339863      -0.00009065 </v>
    <v>       0.33094301       0.33094271       0.00000001 </v>
    <v>       0.33339728       0.00227810       0.00009065 </v>
    <v>       0.00330055       0.00329983      -0.00000002 </v>
    <v>       0.33168176       0.66492601      -0.00000985 </v>
    <v>       0.66492655       0.33168404       0.00000987 </v>
    <v>       0.11042590       0.22103654       0.95051936 </v>
    <v>       0.22103652       0.11042558       0.04948067 </v>
    <v>       0.10964427       0.55852771       0.95186391 </v>
    <v>       0.22288699       0.44558682       0.04931557 </v>
    <v>       0.10802005       0.88458082       0.95194871 </v>
    <v>       0.21820760       0.77496927       0.04801489 </v>
    <v>       0.44558652       0.22288687       0.95068434 </v>
    <v>       0.55852659       0.10964450       0.04813683 </v>
    <v>       0.44827976       0.55821631       0.95198399 </v>
    <v>       0.55821640       0.44827953       0.04801597 </v>
    <v>       0.44833448       0.88984613       0.95211210 </v>
    <v>       0.55886722       0.77927107       0.04683121 </v>
    <v>       0.77497005       0.21820894       0.95198444 </v>
    <v>       0.88458237       0.10802071       0.04805173 </v>
    <v>       0.77927250       0.55886773       0.95316947 </v>
    <v>       0.88984652       0.44833588       0.04788710 </v>
    <v>       0.77435269       0.88732609       0.95331107 </v>
    <v>       0.88732721       0.77435221       0.04668858 </v>
   </varray>
  </structure>
  <varray name="forces" >
   <v>       0.00846001      -0.16424937       0.00008274 </v>
   <v>       0.21808150       0.06795887       0.07669768 </v>
   <v>      -0.21135462       0.06585648      -0.07494963 </v>
   <v>       0.39957960       0.30613098       0.05480467 </v>
   <v>       0.00101325      -0.55019698      -0.00128789 </v>
   <v>      -0.41194963       0.28753841      -0.05507183 </v>
   <v>       0.00912964       0.71371976       0.00008902 </v>
   <v>       0.01255684      -0.38667739      -0.01989996 </v>
   <v>      -0.02402084      -0.36933633       0.01963033 </v>
   <v>       0.02065007      -0.03731653      -0.84803598 </v>
   <v>      -0.02107226      -0.03671445       0.85061994 </v>
   <v>      -0.09693741       0.02949423      -0.62057131 </v>
   <v>      -0.00002077       0.05787680       0.69319810 </v>
   <v>      -0.00814542      -0.11732654      -0.45836548 </v>
   <v>      -0.01251378      -0.09255322       0.41864896 </v>
   <v>       0.00011217       0.05823345      -0.69108292 </v>
   <v>       0.08825886       0.03005292       0.62207504 </v>
   <v>       0.00580607       0.08780691      -0.43098580 </v>
   <v>      -0.00611233       0.08727282       0.43341777 </v>
   <v>       0.07093055       0.05511933      -0.30889915 </v>
   <v>       0.00581516       0.04966969       0.33102380 </v>
   <v>       0.00854557      -0.08550259      -0.42264156 </v>
   <v>       0.01195953      -0.10997391       0.46084561 </v>
   <v>      -0.00146716       0.05706607      -0.32780552 </v>
   <v>      -0.07516220       0.06168273       0.30433120 </v>
   <v>       0.00253523      -0.03276555      -0.20001278 </v>
   <v>       0.00532237      -0.03286660       0.19414498 </v>
  </varray>
  <varray name="stress" >
   <v>     -10.22522508       0.00521016      -0.01015149 </v>
   <v>       0.00521014      -9.90244016       0.00245235 </v>
   <v>      -0.01015141       0.00245257       6.54319425 </v>
  </varray>
  <energy>
   <i name="e_fr_energy">   -189.83428317 </i>
   <i name="e_wo_entrp">   -189.71735230 </i>
   <i name="e_0_energy">     -0.23386174 </i>
  </energy>
  <time name="totalsc">  323.75  324.71</time>
 </calculation>
 <calculation>
  <scstep>
   <time name="dav">   21.51   21.56</time>
   <time name="total">   22.03   22.08</time>
   <energy>
    <i name="alphaZ">     85.82631485 </i>
    <i name="ewald">  42836.66818277 </i>
    <i name="hartreedc"> -48853.07049725 </i>
    <i name="XCdc">   -232.93094172 </i>
    <i name="pawpsdc">   4037.90785511 </i>
    <i name="pawaedc">  -3453.62260148 </i>
    <i name="eentropy">     -0.19799739 </i>
    <i name="bandstr">  -1373.45481111 </i>
    <i name="atom">   6761.44252427 </i>
    <i name="e_fr_energy">   -191.43197195 </i>
    <i name="e_wo_entrp">   -191.23397455 </i>
    <i name="e_0_energy">   -191.33297325 </i>
   </energy>
  </scstep>
  <scstep>
   <time name="dav">   32.15   32.23</time>
   <time name="total">   32.66   32.75</time>
   <energy>
    <i name="e_fr_energy">   -191.21997581 </i>
    <i name="e_wo_entrp">   -191.01893830 </i>
    <i name="e_0_energy">   -191.11945705 </i>
   </energy>
  </scstep>
  <scstep>
   <time name="dav">   29.21   29.28</time>
   <time name="total">   29.71   29.79</time>
   <energy>
    <i name="e_fr_energy">   -191.44329901 </i>
    <i name="e_wo_entrp">   -191.21520896 </i>
    <i name="e_0_energy">   -191.32925399 </i>
   </energy>
  </scstep>
  <scstep>
   <time name="dav">   28.66   28.73</time>
   <time name="total">   29.18   29.25</time>
   <energy>
    <i name="e_fr_energy">   -191.04701274 </i>
    <i name="e_wo_entrp">   -190.83051635 </i>
    <i name="e_0_energy">   -190.93876454 </i>
   </energy>
  </scstep>
  <scstep>
   <time name="dav">   28.36   28.42</time>
   <time name="total">   28.87   28.95</time>
   <energy>
    <i name="e_fr_energy">   -191.03257309 </i>
    <i name="e_wo_entrp">   -190.84179999 </i>
    <i name="e_0_energy">   -190.93718654 </i>
   </energy>
  </scstep>
  <scstep>
   <time name="dav">   27.67   27.73</time>
   <time name="total">   28.18   28.26</time>
   <energy>
    <i name="e_fr_energy">   -190.84323564 </i>
    <i name="e_wo_entrp">   -190.63972183 </i>
    <i name="e_0_energy">   -190.74147874 </i>
   </energy>
  </scstep>
  <scstep>
   <time name="dav">   28.01   28.08</time>
   <time name="total">   28.52   28.60</time>
   <energy>
    <i name="e_fr_energy">   -190.83994671 </i>
    <i name="e_wo_entrp">   -190.63651030 </i>
    <i name="e_0_energy">   -190.73822851 </i>
   </energy>
  </scstep>
  <scstep>
   <time name="dav">   26.19   26.25</time>
   <time name="total">   26.70   26.78</time>
   <energy>
    <i name="e_fr_energy">   -190.83747355 </i>
    <i name="e_wo_entrp">   -190.63375382 </i>
    <i name="e_0_energy">   -190.73561368 </i>
   </energy>
  </scstep>
  <scstep>
   <time name="dav">   28.60   28.67</time>
   <time name="total">   29.12   29.20</time>
   <energy>
    <i name="e_fr_energy">   -190.83681000 </i>
    <i name="e_wo_entrp">   -190.63313364 </i>
    <i name="e_0_energy">   -190.73497182 </i>
   </energy>
  </scstep>
  <scstep>
   <time name="dav">   28.27   28.34</time>
   <time name="total">   28.78   28.86</time>
   <energy>
    <i name="e_fr_energy">   -190.83698289 </i>
    <i name="e_wo_entrp">   -190.63341714 </i>
    <i name="e_0_energy">   -190.73520001 </i>
   </energy>
  </scstep>
  <scstep>
   <time name="dav">   24.13   24.19</time>
   <time name="total">   24.64   24.71</time>
   <energy>
    <i name="e_fr_energy">   -190.83683070 </i>
    <i name="e_wo_entrp">   -190.63316312 </i>
    <i name="e_0_energy">   -190.73499691 </i>
   </energy>
  </scstep>
  <scstep>
   <time name="dav">   19.78   19.83</time>
   <time name="total">   19.81   19.87</time>
   <energy>
    <i name="alphaZ">     85.82631485 </i>
    <i name="ewald">  42836.66818277 </i>
    <i name="hartreedc"> -48824.62321624 </i>
    <i name="XCdc">   -234.27804342 </i>
    <i name="pawpsdc">   4064.14430148 </i>
    <i name="pawaedc">  -3480.04289948 </i>
    <i name="eentropy">     -0.20379744 </i>
    <i name="bandstr">  -1399.77020031 </i>
    <i name="atom">   6761.44252427 </i>
    <i name="e_fr_energy">   -190.83683351 </i>
    <i name="e_wo_entrp">   -190.63303607 </i>
    <i name="e_0_energy">   -190.73493479 </i>
   </energy>
  </scstep>
  <structure>
   <crystal>
    <varray name="basis" >
     <v>       8.48386297       4.90060440       0.00000000 </v>
     <v>      -8.48359179       4.90013486       0.00000000 </v>
     <v>       0.00000000       0.00000000      30.00000000 </v>
    </varray>
    <i name="volume">   2494.40399835 </i>
    <varray name="rec_basis" >
     <v>       0.05893354       0.10203149       0.00000000 </v>
     <v>      -0.05893918       0.10203475       0.00000000 </v>
     <v>       0.00000000       0.00000000       0.03333333 </v>
    </varray>
   </crystal>
   <varray name="positions" >
    <v>       0.66465961       0.66457408       0.00000023 </v>
    <v>       0.00234507       0.66613388       0.00009263 </v>
    <v>       0.66614934       0.00229277      -0.00008747 </v>
    <v>       1.00579759       0.33395807       0.00003145 </v>
    <v>       0.32735992       0.32734960      -0.00000380 </v>
    <v>       0.33373289       0.00569721      -0.00003225 </v>
    <v>       0.00794726       0.00785500       0.00000025 </v>
    <v>       0.32918366       0.66235122      -0.00005403 </v>
    <v>       0.66244471       0.32939260       0.00005321 </v>
    <v>       0.11038616       0.22096046       0.94825951 </v>
    <v>       0.22096373       0.11039352       0.05174799 </v>
    <v>       0.10912383       0.55903871       0.95013180 </v>
    <v>       0.22316918       0.44573047       0.05123538 </v>
    <v>       0.10726452       0.88355842       0.95057147 </v>
    <v>       0.21728518       0.77448514       0.04929804 </v>
    <v>       0.44573407       0.22317163       0.94877085 </v>
    <v>       0.55899991       0.10917238       0.04987222 </v>
    <v>       0.44914261       0.55868938       0.95066826 </v>
    <v>       0.55868300       0.44913954       0.04933884 </v>
    <v>       0.44920694       0.89023346       0.95106271 </v>
    <v>       0.55960522       0.77976448       0.04790941 </v>
    <v>       0.77452625       0.21736647       0.95069056 </v>
    <v>       0.88364130       0.10730905       0.04943564 </v>
    <v>       0.77985083       0.55964815       0.95209970 </v>
    <v>       0.89026927       0.44928539       0.04892436 </v>
    <v>       0.77378528       0.88691866       0.95251691 </v>
    <v>       0.88695713       0.77374472       0.04746601 </v>
   </varray>
  </structure>
  <varray name="forces" >
   <v>      -0.00511273      -0.11515600      -0.00007614 </v>
   <v>       0.22544224       0.02136934       0.07710445 </v>
   <v>      -0.22408417       0.02217331      -0.07762109 </v>
   <v>       0.43125980       0.35268623       0.02846818 </v>
   <v>       0.00169823      -0.55771341      -0.00088447 </v>
   <v>      -0.43064678       0.35911488      -0.02797694 </v>
   <v>      -0.00398077       0.65767875       0.00059861 </v>
   <v>       0.06567004      -0.39659985      -0.02493119 </v>
   <v>      -0.05861338      -0.40496327       0.02450138 </v>
   <v>      -0.00203807       0.01856753      -0.67256101 </v>
   <v>       0.00146953       0.01931780       0.67585026 </v>
   <v>      -0.01176391      -0.03200519      -0.47930592 </v>
   <v>       0.06456940       0.01795496       0.52563549 </v>
   <v>      -0.02979286       0.01190825      -0.30551047 </v>
   <v>      -0.02110177       0.03365827       0.24511838 </v>
   <v>      -0.06336154       0.01736786      -0.52345815 </v>
   <v>       0.01555189      -0.03249917       0.46375561 </v>
   <v>       0.02268454      -0.05013139      -0.28169144 </v>
   <v>      -0.02452887      -0.05040473       0.28419588 </v>
   <v>      -0.02593649      -0.01977928      -0.14464577 </v>
   <v>      -0.02829403      -0.00534124       0.22748719 </v>
   <v>       0.02354320       0.02848487      -0.23310616 </v>
   <v>       0.02786422       0.00839757       0.29235935 </v>
   <v>       0.02535571      -0.00789883      -0.23828508 </v>
   <v>       0.02877858      -0.02422076       0.15596839 </v>
   <v>       0.02784815       0.06387607      -0.09150225 </v>
   <v>      -0.03248016       0.06415743       0.10051291 </v>
  </varray>
  <varray name="stress" >
   <v>      -5.82675996      -0.00517531       0.07507107 </v>
   <v>      -0.00517559      -5.63968091       0.00055807 </v>
   <v>       0.07507110       0.00055809       4.53387570 </v>
  </varray>
  <energy>
   <i name="e_fr_energy">   -190.83683351 </i>
   <i name="e_wo_entrp">   -190.73493479 </i>
   <i name="e_0_energy">     -0.20379744 </i>
  </energy>
  <time name="totalsc">  369.64  370.62</time>
 </calculation>
 <calculation>
  <scstep>
   <time name="dav">   21.44   21.49</time>
   <time name="total">   21.94   22.00</time>
   <energy>
    <i name="alphaZ">     90.15048822 </i>
    <i name="ewald">  44651.17370503 </i>
    <i name="hartreedc"> -50694.11715783 </i>
    <i name="XCdc">   -231.86097191 </i>
    <i name="pawpsdc">   4064.05913726 </i>
    <i name="pawaedc">  -3479.95351774 </i>
    <i name="eentropy">     -0.19268163 </i>
    <i name="bandstr">  -1352.89415307 </i>
    <i name="atom">   6761.44252427 </i>
    <i name="e_fr_energy">   -192.19262739 </i>
    <i name="e_wo_entrp">   -191.99994576 </i>
    <i name="e_0_energy">   -192.09628658 </i>
   </energy>
  </scstep>
  <scstep>
   <time name="dav">   26.91   26.98</time>
   <time name="total">   27.42   27.49</time>
   <energy>
    <i name="e_fr_energy">   -191.92642477 </i>
    <i name="e_wo_entrp">   -191.71419002 </i>
    <i name="e_0_energy">   -191.82030739 </i>
   </energy>
  </scstep>
  <scstep>
   <time name="dav">   29.72   29.79</time>
   <time name="total">   30.23   30.31</time>
   <energy>
    <i name="e_fr_energy">   -192.21538283 </i>
    <i name="e_wo_entrp">   -192.01269364 </i>
    <i name="e_0_energy">   -192.11403824 </i>
   </energy>
  </scstep>
  <scstep>
   <time name="dav">   29.64   29.71</time>
   <time name="total">   30.14   30.22</time>
   <energy>
    <i name="e_fr_energy">   -191.73877954 </i>
    <i name="e_wo_entrp">   -191.52925243 </i>
    <i name="e_0_energy">   -191.63401598 </i>
   </energy>
  </scstep>
  <scstep>
   <time name="dav">   27.91   27.98</time>
   <time name="total">   28.41   28.49</time>
   <energy>
    <i name="e_fr_energy">   -191.54503886 </i>
    <i name="e_wo_entrp">   -191.33871262 </i>
    <i name="e_0_energy">   -191.44187574 </i>
   </energy>
  </scstep>
  <scstep>
   <time name="dav">   30.47   30.54</time>
   <time name="total">   30.97   31.05</time>
   <energy>
    <i name="e_fr_energy">   -191.54120207 </i>
    <i name="e_wo_entrp">   -191.34544689 </i>
    <i name="e_0_energy">   -191.44332448 </i>
   </energy>
  </scstep>
  <scstep>
   <time name="dav">   30.31   30.39</time>
   <time name="total">   30.82   30.90</time>
   <energy>
    <i name="e_fr_energy">   -191.51114133 </i>
    <i name="e_wo_entrp">   -191.30639733 </i>
    <i name="e_0_energy">   -191.40876933 </i>
   </energy>
  </scstep>
  <scstep>
   <time name="dav">   29.05   29.12</time>
   <time name="total">   29.55   29.62</time>
   <energy>
    <i name="e_fr_energy">   -191.51084373 </i>
    <i name="e_wo_entrp">   -191.30665769 </i>
    <i name="e_0_energy">   -191.40875071 </i>
   </energy>
  </scstep>
  <scstep>
   <time name="dav">   28.19   28.26</time>
   <time name="total">   28.70   28.77</time>
   <energy>
    <i name="e_fr_energy">   -191.50689877 </i>
    <i name="e_wo_entrp">   -191.30345743 </i>
    <i name="e_0_energy">   -191.40517810 </i>
   </energy>
  </scstep>
  <scstep>
   <time name="dav">   27.52   27.59</time>
   <time name="total">   28.03   28.10</time>
   <energy>
    <i name="e_fr_energy">   -191.50701582 </i>
    <i name="e_wo_entrp">   -191.30347724 </i>
    <i name="e_0_energy">   -191.40524653 </i>
   </energy>
  </scstep>
  <scstep>
   <time name="dav">   26.05   26.11</time>
   <time name="total">   26.08   26.15</time>
   <energy>
    <i name="alphaZ">     90.15048822 </i>
    <i name="ewald">  44651.17370503 </i>
    <i name="hartreedc"> -50660.37198957 </i>
    <i name="XCdc">   -233.36799038 </i>
    <i name="pawpsdc">   4085.79273566 </i>
    <i name="pawaedc">  -3501.78578479 </i>
    <i name="eentropy">     -0.20371327 </i>
    <i name="bandstr">  -1384.33693636 </i>
    <i name="atom">   6761.44252427 </i>
    <i name="e_fr_energy">   -191.50696118 </i>
    <i name="e_wo_entrp">   -191.30324791 </i>
    <i name="e_0_energy">   -191.40510454 </i>
   </energy>
  </scstep>
  <structure>
   <crystal>
    <varray name="basis" >
     <v>       8.27268117       4.78444485       0.00000000 </v>
     <v>      -8.27258697       4.78428091       0.00000000 </v>
     <v>       0.00000000       0.00000000      30.00000000 </v>
    </varray>
    <i name="volume">   2374.75699991 </i>
    <varray name="rec_basis" >
     <v>       0.06043921       0.10450653       0.00000000 </v>
     <v>      -0.06044128       0.10450772       0.00000000 </v>
     <v>       0.00000000       0.00000000       0.03333333 </v>
    </varray>
   </crystal>
   <varray name="positions" >
    <v>       0.66313054       0.66306383       0.00000008 </v>
    <v>       0.00433153       0.66481831       0.00041896 </v>
    <v>       0.66485867       0.00425304      -0.00041278 </v>
    <v>       1.01324575       0.33528011       0.00016913 </v>
    <v>       0.32038724       0.32035090      -0.00000886 </v>
    <v>       0.33501201       0.01315841      -0.00016865 </v>
    <v>       0.01624935       0.01615911       0.00000246 </v>
    <v>       0.32461385       0.65696966      -0.00015436 </v>
    <v>       0.65706539       0.32479590       0.00015158 </v>
    <v>       0.11066580       0.22135563       0.94489889 </v>
    <v>       0.22136516       0.11068873       0.05512381 </v>
    <v>       0.10825996       0.55888565       0.94762674 </v>
    <v>       0.22375812       0.44536932       0.05398252 </v>
    <v>       0.10701595       0.88331472       0.94877631 </v>
    <v>       0.21700423       0.77488728       0.05084934 </v>
    <v>       0.44537632       0.22374827       0.94603460 </v>
    <v>       0.55884609       0.10830481       0.05232446 </v>
    <v>       0.44923797       0.55809512       0.94897569 </v>
    <v>       0.55807111       0.44924201       0.05104379 </v>
    <v>       0.44931023       0.89055011       0.94992518 </v>
    <v>       0.55993122       0.78019223       0.04932588 </v>
    <v>       0.77490852       0.21705596       0.94917588 </v>
    <v>       0.88338922       0.10705700       0.05118837 </v>
    <v>       0.78027628       0.55998674       0.95064961 </v>
    <v>       0.89057415       0.44936295       0.05009558 </v>
    <v>       0.77415256       0.88714572       0.95165565 </v>
    <v>       0.88717723       0.77412293       0.04835005 </v>
   </varray>
  </structure>
  <varray name="forces" >
   <v>      -0.00150201      -0.02313091       0.00035284 </v>
   <v>       0.21694732      -0.06605270      -0.00766100 </v>
   <v>      -0.21458515      -0.06617963       0.00209411 </v>
   <v>       0.18107349       0.30006873      -0.08550396 </v>
   <v>       0.00031439      -0.06108245       0.00769470 </v>
   <v>      -0.18180107       0.30180694       0.08428725 </v>
   <v>      -0.00083385       0.22577601      -0.00239426 </v>
   <v>       0.18564206      -0.34127183       0.01918969 </v>
   <v>      -0.18598038      -0.34137611      -0.01661998 </v>
   <v>      -0.03773230       0.03814038      -0.26862586 </v>
   <v>       0.03644534       0.03925090       0.26517316 </v>
   <v>       0.06337622      -0.06713681      -0.14874814 </v>
   <v>       0.17315343       0.01146254       0.20576872 </v>
   <v>      -0.07236645       0.14754073       0.03146796 </v>
   <v>       0.01522498       0.16356751      -0.11810917 </v>
   <v>      -0.17300106       0.00999009      -0.21164543 </v>
   <v>      -0.05999695      -0.06884240       0.15499458 </v>
   <v>       0.00701238      -0.19529784      -0.01843014 </v>
   <v>      -0.00579004      -0.19299002       0.01307190 </v>
   <v>      -0.16057962      -0.16842051       0.12802738 </v>
   <v>      -0.07301947      -0.07257873      -0.04014484 </v>
   <v>      -0.01260624       0.16134067       0.11472845 </v>
   <v>       0.06960826       0.14526929      -0.02615517 </v>
   <v>       0.07126567      -0.07569639       0.04513799 </v>
   <v>       0.16053629      -0.16940551      -0.12781238 </v>
   <v>       0.05085753       0.18255955       0.13075039 </v>
   <v>      -0.05166278       0.18268848      -0.13088878 </v>
  </varray>
  <varray name="stress" >
   <v>      -0.29479149       0.00353819       0.58412659 </v>
   <v>       0.00353810       0.39210449       0.00556074 </v>
   <v>       0.58412665       0.00556051      -0.68075811 </v>
  </varray>
  <energy>
   <i name="e_fr_energy">   -191.50696118 </i>
   <i name="e_wo_entrp">   -191.40510454 </i>
   <i name="e_0_energy">     -0.20371327 </i>
  </energy>
  <time name="totalsc">  353.55  354.48</time>
 </calculation>
 <calculation>
  <scstep>
   <time name="dav">   21.45   21.50</time>
   <time name="total">   21.95   22.00</time>
   <energy>
    <i name="alphaZ">     90.15337831 </i>
    <i name="ewald">  44633.41893385 </i>
    <i name="hartreedc"> -50643.37775303 </i>
    <i name="XCdc">   -233.44651203 </i>
    <i name="pawpsdc">   4085.96252950 </i>
    <i name="pawaedc">  -3501.94958079 </i>
    <i name="eentropy">     -0.20655192 </i>
    <i name="bandstr">  -1383.56848810 </i>
    <i name="atom">   6761.44252427 </i>
    <i name="e_fr_energy">   -191.57151994 </i>
    <i name="e_wo_entrp">   -191.36496801 </i>
    <i name="e_0_energy">   -191.46824398 </i>
   </energy>
  </scstep>
  <scstep>
   <time name="dav">   31.08   31.16</time>
   <time name="total">   31.58   31.67</time>
   <energy>
    <i name="e_fr_energy">   -191.64195278 </i>
    <i name="e_wo_entrp">   -191.42213764 </i>
    <i name="e_0_energy">   -191.53204521 </i>
   </energy>
  </scstep>
  <scstep>
   <time name="dav">   30.64   30.71</time>
   <time name="total">   31.14   31.22</time>
   <energy>
    <i name="e_fr_energy">   -191.58462455 </i>
    <i name="e_wo_entrp">   -191.37716870 </i>
    <i name="e_0_energy">   -191.48089663 </i>
   </energy>
  </scstep>
  <scstep>
   <time name="dav">   28.59   28.65</time>
   <time name="total">   29.09   29.17</time>
   <energy>
    <i name="e_fr_energy">   -191.58623257 </i>
    <i name="e_wo_entrp">   -191.37451553 </i>
    <i name="e_0_energy">   -191.48037405 </i>
   </energy>
  </scstep>
  <scstep>
   <time name="dav">   28.17   28.24</time>
   <time name="total">   28.68   28.75</time>
   <energy>
    <i name="e_fr_energy">   -191.58290631 </i>
    <i name="e_wo_entrp">   -191.37405661 </i>
    <i name="e_0_energy">   -191.47848146 </i>
   </energy>
  </scstep>
  <scstep>
   <time name="dav">   25.93   25.99</time>
   <time name="total">   26.44   26.51</time>
   <energy>
    <i name="e_fr_energy">   -191.58263290 </i>
    <i name="e_wo_entrp">   -191.37285086 </i>
    <i name="e_0_energy">   -191.47774188 </i>
   </energy>
  </scstep>
  <scstep>
   <time name="dav">   25.91   25.97</time>
   <time name="total">   26.41   26.48</time>
   <energy>
    <i name="e_fr_energy">   -191.58234993 </i>
    <i name="e_wo_entrp">   -191.37286087 </i>
    <i name="e_0_energy">   -191.47760540 </i>
   </energy>
  </scstep>
  <scstep>
   <time name="dav">   19.63   19.68</time>
   <time name="total">   19.66   19.72</time>
   <energy>
    <i name="alphaZ">     90.15337831 </i>
    <i name="ewald">  44633.41893385 </i>
    <i name="hartreedc"> -50644.46731888 </i>
    <i name="XCdc">   -233.42264640 </i>
    <i name="pawpsdc">   4083.69686904 </i>
    <i name="pawaedc">  -3499.64715735 </i>
    <i name="eentropy">     -0.20943730 </i>
    <i name="bandstr">  -1382.54751332 </i>
    <i name="atom">   6761.44252427 </i>
    <i name="e_fr_energy">   -191.58236778 </i>
    <i name="e_wo_entrp">   -191.37293048 </i>
    <i name="e_0_energy">   -191.47764913 </i>
   </energy>
  </scstep>
  <structure>
   <crystal>
    <varray name="basis" >
     <v>       8.26489270       4.78890464       0.00000000 </v>
     <v>      -8.26470791       4.78858376       0.00000000 </v>
     <v>       0.00000000       0.00000000      30.00000000 </v>
    </varray>
    <i name="volume">   2374.68087100 </i>
    <varray name="rec_basis" >
     <v>       0.06049550       0.10441034       0.00000000 </v>
     <v>      -0.06049956       0.10441267       0.00000000 </v>
     <v>       0.00000000       0.00000000       0.03333333 </v>
    </varray>
   </crystal>
   <varray name="positions" >
    <v>       0.66299118       0.66293321       0.00000065 </v>
    <v>       0.00465754       0.66382272       0.00040991 </v>
    <v>       0.66386975       0.00457095      -0.00041280 </v>
    <v>       1.01539871       0.33629587       0.00003084 </v>
    <v>       0.32000220       0.31996372       0.00000366 </v>
    <v>       0.33603321       0.01532218      -0.00003235 </v>
    <v>       0.01749194       0.01740630      -0.00000143 </v>
    <v>       0.32336611       0.65461318      -0.00012401 </v>
    <v>       0.65470781       0.32354922       0.00012541 </v>
    <v>       0.11075283       0.22166826       0.94442034 </v>
    <v>       0.22167973       0.11078544       0.05559689 </v>
    <v>       0.10809206       0.55835288       0.94735363 </v>
    <v>       0.22433590       0.44490997       0.05435178 </v>
    <v>       0.10755413       0.88427935       0.94880538 </v>
    <v>       0.21788156       0.77568399       0.05067603 </v>
    <v>       0.44490994       0.22431796       0.94565586 </v>
    <v>       0.55831445       0.10811831       0.05260731 </v>
    <v>       0.44826199       0.55706790       0.94892424 </v>
    <v>       0.55705917       0.44827428       0.05108661 </v>
    <v>       0.44797498       0.89016851       0.95011905 </v>
    <v>       0.55934989       0.78004301       0.04927826 </v>
    <v>       0.77570154       0.21791417       0.94934396 </v>
    <v>       0.88433424       0.10759185       0.05116763 </v>
    <v>       0.78010619       0.55939490       0.95070511 </v>
    <v>       0.89018739       0.44802282       0.04990233 </v>
    <v>       0.77523916       0.88793097       0.95185725 </v>
    <v>       0.88796083       0.77521254       0.04814836 </v>
   </varray>
  </structure>
  <varray name="forces" >
   <v>      -0.00208034       0.00062957      -0.00005968 </v>
   <v>       0.22144374      -0.08312651       0.01827602 </v>
   <v>      -0.22022903      -0.08286266      -0.01856922 </v>
   <v>       0.18453460       0.34076542      -0.02483161 </v>
   <v>      -0.00017203      -0.08868066      -0.00306694 </v>
   <v>      -0.18341123       0.34504510       0.02509380 </v>
   <v>      -0.00225563       0.27492549       0.00106540 </v>
   <v>       0.21962496      -0.37110596       0.02976495 </v>
   <v>      -0.21770299      -0.37449727      -0.03060255 </v>
   <v>      -0.00968598       0.02934570      -0.15484721 </v>
   <v>       0.00964152       0.02671961       0.15620180 </v>
   <v>       0.04347730      -0.03073451      -0.14424803 </v>
   <v>       0.11783035      -0.00212464       0.16603971 </v>
   <v>      -0.01416588       0.10931861       0.07447802 </v>
   <v>       0.01726259       0.10882275      -0.15148874 </v>
   <v>      -0.11877317      -0.00195500      -0.16457866 </v>
   <v>      -0.04165789      -0.03201095       0.14504206 </v>
   <v>       0.01042684      -0.10467255      -0.03157114 </v>
   <v>      -0.01015612      -0.10339544       0.03214677 </v>
   <v>      -0.10191528      -0.14103917       0.16083830 </v>
   <v>      -0.04915430      -0.05225853      -0.06106301 </v>
   <v>      -0.01644014       0.10820934       0.14950259 </v>
   <v>       0.01321136       0.10830212      -0.07348198 </v>
   <v>       0.04831054      -0.05400346       0.06344126 </v>
   <v>       0.10189715      -0.14123708      -0.16152573 </v>
   <v>       0.01379019       0.10573503       0.14937197 </v>
   <v>      -0.01365114       0.10588564      -0.15132815 </v>
  </varray>
  <varray name="stress" >
   <v>       0.10469734      -0.00458768       0.31024513 </v>
   <v>      -0.00458758       0.17207253      -0.00214304 </v>
   <v>       0.31024540      -0.00214303      -1.33772270 </v>
  </varray>
  <energy>
   <i name="e_fr_energy">   -191.58236778 </i>
   <i name="e_wo_entrp">   -191.47764913 </i>
   <i name="e_0_energy">     -0.20943730 </i>
  </energy>
  <time name="totalsc">  256.31  256.99</time>
 </calculation>
 <calculation>
  <scstep>
   <time name="dav">   21.45   21.50</time>
   <time name="total">   21.95   22.01</time>
   <energy>
    <i name="alphaZ">     90.04529056 </i>
    <i name="ewald">  44589.21255308 </i>
    <i name="hartreedc"> -50598.80852318 </i>
    <i name="XCdc">   -233.48281428 </i>
    <i name="pawpsdc">   4083.66613260 </i>
    <i name="pawaedc">  -3499.61668264 </i>
    <i name="eentropy">     -0.20889300 </i>
    <i name="bandstr">  -1383.89968912 </i>
    <i name="atom">   6761.44252427 </i>
    <i name="e_fr_energy">   -191.65010170 </i>
    <i name="e_wo_entrp">   -191.44120871 </i>
    <i name="e_0_energy">   -191.54565520 </i>
   </energy>
  </scstep>
  <scstep>
   <time name="dav">   32.32   32.40</time>
   <time name="total">   32.82   32.91</time>
   <energy>
    <i name="e_fr_energy">   -191.73364280 </i>
    <i name="e_wo_entrp">   -191.50316624 </i>
    <i name="e_0_energy">   -191.61840452 </i>
   </energy>
  </scstep>
  <scstep>
   <time name="dav">   30.23   30.31</time>
   <time name="total">   30.74   30.82</time>
   <energy>
    <i name="e_fr_energy">   -191.65936990 </i>
    <i name="e_wo_entrp">   -191.44891926 </i>
    <i name="e_0_energy">   -191.55414458 </i>
   </energy>
  </scstep>
  <scstep>
   <time name="dav">   28.48   28.54</time>
   <time name="total">   28.98   29.06</time>
   <energy>
    <i name="e_fr_energy">   -191.66340258 </i>
    <i name="e_wo_entrp">   -191.44684687 </i>
    <i name="e_0_energy">   -191.55512473 </i>
   </energy>
  </scstep>
  <scstep>
   <time name="dav">   28.26   28.32</time>
   <time name="total">   28.76   28.84</time>
   <energy>
    <i name="e_fr_energy">   -191.65687320 </i>
    <i name="e_wo_entrp">   -191.44407150 </i>
    <i name="e_0_energy">   -191.55047235 </i>
   </energy>
  </scstep>
  <scstep>
   <time name="dav">   25.36   25.42</time>
   <time name="total">   25.87   25.94</time>
   <energy>
    <i name="e_fr_energy">   -191.65667625 </i>
    <i name="e_wo_entrp">   -191.44296776 </i>
    <i name="e_0_energy">   -191.54982200 </i>
   </energy>
  </scstep>
  <scstep>
   <time name="dav">   26.20   26.26</time>
   <time name="total">   26.70   26.78</time>
   <energy>
    <i name="e_fr_energy">   -191.65717338 </i>
    <i name="e_wo_entrp">   -191.44385232 </i>
    <i name="e_0_energy">   -191.55051285 </i>
   </energy>
  </scstep>
  <scstep>
   <time name="dav">   24.54   24.60</time>
   <time name="total">   25.05   25.12</time>
   <energy>
    <i name="e_fr_energy">   -191.65635817 </i>
    <i name="e_wo_entrp">   -191.44295706 </i>
    <i name="e_0_energy">   -191.54965761 </i>
   </energy>
  </scstep>
  <scstep>
   <time name="dav">   16.64   16.68</time>
   <time name="total">   16.68   16.72</time>
   <energy>
    <i name="alphaZ">     90.04529056 </i>
    <i name="ewald">  44589.21255308 </i>
    <i name="hartreedc"> -50600.43580714 </i>
    <i name="XCdc">   -233.41838386 </i>
    <i name="pawpsdc">   4085.66382491 </i>
    <i name="pawaedc">  -3501.64414535 </i>
    <i name="eentropy">     -0.21336613 </i>
    <i name="bandstr">  -1382.30887066 </i>
    <i name="atom">   6761.44252427 </i>
    <i name="e_fr_energy">   -191.65638033 </i>
    <i name="e_wo_entrp">   -191.44301420 </i>
    <i name="e_0_energy">   -191.54969726 </i>
   </energy>
  </scstep>
  <structure>
   <crystal>
    <varray name="basis" >
     <v>       8.26913947       4.79203285       0.00000000 </v>
     <v>      -8.26909154       4.79194812       0.00000000 </v>
[...]
      <set comment="kpoint 31">
       <r>  -17.5222    1.0000 </r>
       <r>  -17.2659    1.0000 </r>
       <r>  -16.9191    1.0000 </r>
       <r>  -16.6912    1.0000 </r>
       <r>  -16.5087    1.0000 </r>
       <r>  -16.4356    1.0000 </r>
       <r>  -16.3379    1.0000 </r>
       <r>  -16.1824    1.0000 </r>
       <r>  -16.0661    1.0000 </r>
       <r>  -16.0181    1.0000 </r>
       <r>  -15.9545    1.0000 </r>
       <r>  -15.9082    1.0000 </r>
       <r>  -15.8036    1.0000 </r>
       <r>  -15.7034    1.0000 </r>
       <r>  -15.6407    1.0000 </r>
       <r>  -15.4274    1.0000 </r>
       <r>  -15.3962    1.0000 </r>
       <r>  -15.2552    1.0000 </r>
       <r>   -9.7231    1.0000 </r>
       <r>   -9.4564    1.0000 </r>
       <r>   -9.3314    1.0000 </r>
       <r>   -9.0047    1.0000 </r>
       <r>   -8.8714    1.0000 </r>
       <r>   -8.7395    1.0000 </r>
       <r>   -8.5289    1.0000 </r>
       <r>   -8.5037    1.0000 </r>
       <r>   -8.4384    1.0000 </r>
       <r>   -8.3325    1.0000 </r>
       <r>   -8.2515    1.0000 </r>
       <r>   -8.1880    1.0000 </r>
       <r>   -8.1540    1.0000 </r>
       <r>   -8.0985    1.0000 </r>
       <r>   -8.0277    1.0000 </r>
       <r>   -7.8683    1.0000 </r>
       <r>   -7.8410    1.0000 </r>
       <r>   -7.7465    1.0000 </r>
       <r>   -7.6169    1.0000 </r>
       <r>   -7.4186    1.0000 </r>
       <r>   -7.3150    1.0000 </r>
       <r>   -7.1894    1.0000 </r>
       <r>   -7.1618    1.0000 </r>
       <r>   -7.0758    1.0000 </r>
       <r>   -6.9932    1.0000 </r>
       <r>   -6.9435    1.0000 </r>
       <r>   -6.8335    1.0000 </r>
       <r>   -6.7935    1.0000 </r>
       <r>   -6.7192    1.0000 </r>
       <r>   -6.6315    1.0000 </r>
       <r>   -6.5220    1.0000 </r>
       <r>   -6.4904    1.0000 </r>
       <r>   -6.4369    1.0000 </r>
       <r>   -6.3675    1.0000 </r>
       <r>   -6.2869    1.0000 </r>
       <r>   -6.2664    1.0000 </r>
       <r>   -6.1479    1.0000 </r>
       <r>   -6.0710    1.0000 </r>
       <r>   -5.9672    1.0000 </r>
       <r>   -5.8976    1.0000 </r>
       <r>   -5.8634    1.0000 </r>
       <r>   -5.8137    1.0000 </r>
       <r>   -5.6993    1.0000 </r>
       <r>   -5.6418    1.0000 </r>
       <r>   -5.4592    1.0000 </r>
       <r>   -5.3419    1.0000 </r>
       <r>   -5.2750    1.0000 </r>
       <r>   -5.1172    1.0000 </r>
       <r>   -5.0676    1.0000 </r>
       <r>   -4.9103    1.0000 </r>
       <r>   -4.8253    1.0000 </r>
       <r>   -4.6633    1.0000 </r>
       <r>   -4.6340    1.0000 </r>
       <r>   -4.5176    1.0000 </r>
       <r>   -4.3614    1.0000 </r>
       <r>   -4.2732    1.0000 </r>
       <r>   -4.1376    1.0000 </r>
       <r>   -4.0263    1.0000 </r>
       <r>   -3.8318    0.9998 </r>
       <r>   -3.6963    0.9945 </r>
       <r>   -3.5219    0.9050 </r>
       <r>   -3.4019    0.6781 </r>
       <r>   -2.9845    0.0064 </r>
       <r>   -2.8714    0.0005 </r>
       <r>   -2.7145    0.0000 </r>
       <r>   -2.6027    0.0000 </r>
       <r>   -2.5547    0.0000 </r>
       <r>   -2.4547    0.0000 </r>
       <r>   -2.2748    0.0000 </r>
       <r>   -2.1870    0.0000 </r>
       <r>   -2.1105    0.0000 </r>
       <r>   -1.9174    0.0000 </r>
       <r>   -1.6492    0.0000 </r>
       <r>   -1.5353    0.0000 </r>
       <r>   -1.5034    0.0000 </r>
       <r>   -1.3337    0.0000 </r>
       <r>   -1.2551    0.0000 </r>
       <r>   -1.1779    0.0000 </r>
       <r>   -1.0487    0.0000 </r>
       <r>   -1.0215    0.0000 </r>
       <r>   -0.9724    0.0000 </r>
       <r>   -0.9144    0.0000 </r>
       <r>   -0.8120    0.0000 </r>
       <r>   -0.7561    0.0000 </r>
       <r>   -0.6894    0.0000 </r>
       <r>   -0.6279    0.0000 </r>
       <r>   -0.4906    0.0000 </r>
       <r>   -0.3891    0.0000 </r>
       <r>   -0.2680    0.0000 </r>
       <r>   -0.1609    0.0000 </r>
       <r>   -0.0719    0.0000 </r>
       <r>    0.1695    0.0000 </r>
       <r>    0.2497    0.0000 </r>
       <r>    0.6833    0.0000 </r>
       <r>    0.9109    0.0000 </r>
       <r>    0.9484    0.0000 </r>
       <r>    1.0548    0.0000 </r>
       <r>    1.2843    0.0000 </r>
       <r>    1.3855    0.0000 </r>
       <r>    2.1251    0.0000 </r>
       <r>    2.2941    0.0000 </r>
       <r>    2.3790    0.0000 </r>
      </set>
      <set comment="kpoint 32">
       <r>  -17.5247    1.0000 </r>
       <r>  -17.2059    1.0000 </r>
       <r>  -17.0303    1.0000 </r>
       <r>  -16.6880    1.0000 </r>
       <r>  -16.4721    1.0000 </r>
       <r>  -16.3622    1.0000 </r>
       <r>  -16.3116    1.0000 </r>
       <r>  -16.2342    1.0000 </r>
       <r>  -16.1208    1.0000 </r>
       <r>  -16.0469    1.0000 </r>
       <r>  -15.9412    1.0000 </r>
       <r>  -15.8909    1.0000 </r>
       <r>  -15.8107    1.0000 </r>
       <r>  -15.6848    1.0000 </r>
       <r>  -15.6285    1.0000 </r>
       <r>  -15.4312    1.0000 </r>
       <r>  -15.3903    1.0000 </r>
       <r>  -15.2583    1.0000 </r>
       <r>   -9.6659    1.0000 </r>
       <r>   -9.5728    1.0000 </r>
       <r>   -9.4229    1.0000 </r>
       <r>   -8.9724    1.0000 </r>
       <r>   -8.7139    1.0000 </r>
       <r>   -8.6510    1.0000 </r>
       <r>   -8.5438    1.0000 </r>
       <r>   -8.4731    1.0000 </r>
       <r>   -8.4190    1.0000 </r>
       <r>   -8.3502    1.0000 </r>
       <r>   -8.2693    1.0000 </r>
       <r>   -8.2589    1.0000 </r>
       <r>   -8.1460    1.0000 </r>
       <r>   -8.1187    1.0000 </r>
       <r>   -8.0422    1.0000 </r>
       <r>   -7.9387    1.0000 </r>
       <r>   -7.8049    1.0000 </r>
       <r>   -7.7879    1.0000 </r>
       <r>   -7.5862    1.0000 </r>
       <r>   -7.4371    1.0000 </r>
       <r>   -7.3303    1.0000 </r>
       <r>   -7.2546    1.0000 </r>
       <r>   -7.1877    1.0000 </r>
       <r>   -7.0870    1.0000 </r>
       <r>   -6.9724    1.0000 </r>
       <r>   -6.9072    1.0000 </r>
       <r>   -6.8538    1.0000 </r>
       <r>   -6.7662    1.0000 </r>
       <r>   -6.6925    1.0000 </r>
       <r>   -6.5907    1.0000 </r>
       <r>   -6.5533    1.0000 </r>
       <r>   -6.4845    1.0000 </r>
       <r>   -6.4445    1.0000 </r>
       <r>   -6.3391    1.0000 </r>
       <r>   -6.2861    1.0000 </r>
       <r>   -6.2617    1.0000 </r>
       <r>   -6.1299    1.0000 </r>
       <r>   -6.0384    1.0000 </r>
       <r>   -5.9744    1.0000 </r>
       <r>   -5.9027    1.0000 </r>
       <r>   -5.8301    1.0000 </r>
       <r>   -5.7329    1.0000 </r>
       <r>   -5.7122    1.0000 </r>
       <r>   -5.5543    1.0000 </r>
       <r>   -5.4843    1.0000 </r>
       <r>   -5.4080    1.0000 </r>
       <r>   -5.2599    1.0000 </r>
       <r>   -5.1876    1.0000 </r>
       <r>   -5.0555    1.0000 </r>
       <r>   -4.9719    1.0000 </r>
       <r>   -4.8200    1.0000 </r>
       <r>   -4.6982    1.0000 </r>
       <r>   -4.6350    1.0000 </r>
       <r>   -4.4818    1.0000 </r>
       <r>   -4.3680    1.0000 </r>
       <r>   -4.3464    1.0000 </r>
       <r>   -4.1319    1.0000 </r>
       <r>   -4.0370    1.0000 </r>
       <r>   -3.8413    0.9998 </r>
       <r>   -3.6202    0.9776 </r>
       <r>   -3.5028    0.8802 </r>
       <r>   -3.3104    0.4265 </r>
       <r>   -3.0498    0.0213 </r>
       <r>   -2.9056    0.0012 </r>
       <r>   -2.7623    0.0000 </r>
       <r>   -2.6273    0.0000 </r>
       <r>   -2.5704    0.0000 </r>
       <r>   -2.4844    0.0000 </r>
       <r>   -2.2505    0.0000 </r>
       <r>   -2.1542    0.0000 </r>
       <r>   -2.0936    0.0000 </r>
       <r>   -1.9507    0.0000 </r>
       <r>   -1.6766    0.0000 </r>
       <r>   -1.5481    0.0000 </r>
       <r>   -1.5077    0.0000 </r>
       <r>   -1.2991    0.0000 </r>
       <r>   -1.2177    0.0000 </r>
       <r>   -1.1865    0.0000 </r>
       <r>   -1.0172    0.0000 </r>
       <r>   -1.0037    0.0000 </r>
       <r>   -0.9552    0.0000 </r>
       <r>   -0.9289    0.0000 </r>
       <r>   -0.8103    0.0000 </r>
       <r>   -0.7686    0.0000 </r>
       <r>   -0.6825    0.0000 </r>
       <r>   -0.6003    0.0000 </r>
       <r>   -0.5550    0.0000 </r>
       <r>   -0.4060    0.0000 </r>
       <r>   -0.3187    0.0000 </r>
       <r>   -0.0782    0.0000 </r>
       <r>   -0.0069    0.0000 </r>
       <r>    0.2051    0.0000 </r>
       <r>    0.2495    0.0000 </r>
       <r>    0.6686    0.0000 </r>
       <r>    0.8847    0.0000 </r>
       <r>    0.9444    0.0000 </r>
       <r>    1.0937    0.0000 </r>
       <r>    1.2201    0.0000 </r>
       <r>    1.3694    0.0000 </r>
       <r>    2.1032    0.0000 </r>
       <r>    2.2594    0.0000 </r>
       <r>    2.5602    0.0000 </r>
      </set>
      <set comment="kpoint 33">
       <r>  -17.4942    1.0000 </r>
       <r>  -17.2988    1.0000 </r>
       <r>  -16.9212    1.0000 </r>
       <r>  -16.6841    1.0000 </r>
       <r>  -16.5015    1.0000 </r>
       <r>  -16.4544    1.0000 </r>
       <r>  -16.3292    1.0000 </r>
       <r>  -16.1871    1.0000 </r>
       <r>  -16.1509    1.0000 </r>
       <r>  -16.0164    1.0000 </r>
       <r>  -15.9069    1.0000 </r>
       <r>  -15.8522    1.0000 </r>
       <r>  -15.8156    1.0000 </r>
       <r>  -15.6845    1.0000 </r>
       <r>  -15.6377    1.0000 </r>
       <r>  -15.4345    1.0000 </r>
       <r>  -15.3942    1.0000 </r>
       <r>  -15.2665    1.0000 </r>
       <r>   -9.7628    1.0000 </r>
       <r>   -9.4502    1.0000 </r>
       <r>   -9.3956    1.0000 </r>
       <r>   -8.9545    1.0000 </r>
       <r>   -8.8203    1.0000 </r>
       <r>   -8.7133    1.0000 </r>
       <r>   -8.6287    1.0000 </r>
       <r>   -8.5853    1.0000 </r>
       <r>   -8.3669    1.0000 </r>
       <r>   -8.2893    1.0000 </r>
       <r>   -8.2549    1.0000 </r>
       <r>   -8.1502    1.0000 </r>
       <r>   -8.1034    1.0000 </r>
       <r>   -8.0851    1.0000 </r>
       <r>   -8.0084    1.0000 </r>
       <r>   -7.9207    1.0000 </r>
       <r>   -7.8082    1.0000 </r>
       <r>   -7.7672    1.0000 </r>
       <r>   -7.5722    1.0000 </r>
       <r>   -7.4601    1.0000 </r>
       <r>   -7.4025    1.0000 </r>
       <r>   -7.3507    1.0000 </r>
       <r>   -7.1359    1.0000 </r>
       <r>   -7.0618    1.0000 </r>
       <r>   -6.9728    1.0000 </r>
       <r>   -6.8650    1.0000 </r>
       <r>   -6.8416    1.0000 </r>
       <r>   -6.7916    1.0000 </r>
       <r>   -6.7219    1.0000 </r>
       <r>   -6.5848    1.0000 </r>
       <r>   -6.5284    1.0000 </r>
       <r>   -6.4971    1.0000 </r>
       <r>   -6.4471    1.0000 </r>
       <r>   -6.3570    1.0000 </r>
       <r>   -6.2702    1.0000 </r>
       <r>   -6.1474    1.0000 </r>
       <r>   -6.1231    1.0000 </r>
       <r>   -6.0377    1.0000 </r>
       <r>   -6.0021    1.0000 </r>
       <r>   -5.9371    1.0000 </r>
       <r>   -5.8526    1.0000 </r>
       <r>   -5.7645    1.0000 </r>
       <r>   -5.6505    1.0000 </r>
       <r>   -5.6177    1.0000 </r>
       <r>   -5.5300    1.0000 </r>
       <r>   -5.4227    1.0000 </r>
       <r>   -5.3089    1.0000 </r>
       <r>   -5.1735    1.0000 </r>
       <r>   -5.0745    1.0000 </r>
       <r>   -4.8429    1.0000 </r>
       <r>   -4.7638    1.0000 </r>
       <r>   -4.7357    1.0000 </r>
       <r>   -4.6114    1.0000 </r>
       <r>   -4.4503    1.0000 </r>
       <r>   -4.3913    1.0000 </r>
       <r>   -4.3391    1.0000 </r>
       <r>   -4.1577    1.0000 </r>
       <r>   -4.0594    1.0000 </r>
       <r>   -3.9105    1.0000 </r>
       <r>   -3.5749    0.9541 </r>
       <r>   -3.4415    0.7710 </r>
       <r>   -3.2726    0.3256 </r>
       <r>   -3.0957    0.0443 </r>
       <r>   -2.9403    0.0025 </r>
       <r>   -2.8367    0.0002 </r>
       <r>   -2.6428    0.0000 </r>
       <r>   -2.5946    0.0000 </r>
       <r>   -2.5087    0.0000 </r>
       <r>   -2.2211    0.0000 </r>
       <r>   -2.1163    0.0000 </r>
       <r>   -2.0865    0.0000 </r>
       <r>   -1.9338    0.0000 </r>
       <r>   -1.7192    0.0000 </r>
       <r>   -1.5597    0.0000 </r>
       <r>   -1.4845    0.0000 </r>
       <r>   -1.2852    0.0000 </r>
       <r>   -1.1962    0.0000 </r>
       <r>   -1.1851    0.0000 </r>
       <r>   -1.0041    0.0000 </r>
       <r>   -0.9802    0.0000 </r>
       <r>   -0.9409    0.0000 </r>
       <r>   -0.9092    0.0000 </r>
       <r>   -0.8343    0.0000 </r>
       <r>   -0.7836    0.0000 </r>
       <r>   -0.6750    0.0000 </r>
       <r>   -0.5849    0.0000 </r>
       <r>   -0.5494    0.0000 </r>
       <r>   -0.4902    0.0000 </r>
       <r>   -0.4181    0.0000 </r>
       <r>   -0.0457    0.0000 </r>
       <r>    0.0852    0.0000 </r>
       <r>    0.2408    0.0000 </r>
       <r>    0.2811    0.0000 </r>
       <r>    0.6751    0.0000 </r>
       <r>    0.8772    0.0000 </r>
       <r>    0.9578    0.0000 </r>
       <r>    1.1306    0.0000 </r>
       <r>    1.1615    0.0000 </r>
       <r>    1.3752    0.0000 </r>
       <r>    2.1415    0.0000 </r>
       <r>    2.2893    0.0000 </r>
       <r>    2.4043    0.0000 </r>
      </set>
      <set comment="kpoint 34">
       <r>  -17.4489    1.0000 </r>
       <r>  -17.3793    1.0000 </r>
       <r>  -16.7957    1.0000 </r>
       <r>  -16.6820    1.0000 </r>
       <r>  -16.6256    1.0000 </r>
       <r>  -16.4746    1.0000 </r>
       <r>  -16.3209    1.0000 </r>
       <r>  -16.1808    1.0000 </r>
       <r>  -16.1566    1.0000 </r>
       <r>  -15.9967    1.0000 </r>
       <r>  -15.8781    1.0000 </r>
       <r>  -15.8362    1.0000 </r>
       <r>  -15.8067    1.0000 </r>
       <r>  -15.6862    1.0000 </r>
       <r>  -15.6530    1.0000 </r>
       <r>  -15.4369    1.0000 </r>
       <r>  -15.4004    1.0000 </r>
       <r>  -15.2703    1.0000 </r>
       <r>   -9.8047    1.0000 </r>
       <r>   -9.3811    1.0000 </r>
       <r>   -9.3161    1.0000 </r>
       <r>   -8.9984    1.0000 </r>
       <r>   -8.9184    1.0000 </r>
       <r>   -8.7462    1.0000 </r>
       <r>   -8.6815    1.0000 </r>
       <r>   -8.6244    1.0000 </r>
       <r>   -8.3354    1.0000 </r>
       <r>   -8.3052    1.0000 </r>
       <r>   -8.2318    1.0000 </r>
       <r>   -8.1244    1.0000 </r>
       <r>   -8.0805    1.0000 </r>
       <r>   -8.0728    1.0000 </r>
       <r>   -7.9266    1.0000 </r>
       <r>   -7.8739    1.0000 </r>
       <r>   -7.7695    1.0000 </r>
       <r>   -7.7522    1.0000 </r>
       <r>   -7.6109    1.0000 </r>
       <r>   -7.5214    1.0000 </r>
       <r>   -7.4385    1.0000 </r>
       <r>   -7.3596    1.0000 </r>
       <r>   -7.1046    1.0000 </r>
       <r>   -7.0433    1.0000 </r>
       <r>   -6.9877    1.0000 </r>
       <r>   -6.8560    1.0000 </r>
       <r>   -6.8554    1.0000 </r>
       <r>   -6.7402    1.0000 </r>
       <r>   -6.6423    1.0000 </r>
       <r>   -6.6383    1.0000 </r>
       <r>   -6.5444    1.0000 </r>
       <r>   -6.5153    1.0000 </r>
       <r>   -6.4829    1.0000 </r>
       <r>   -6.3299    1.0000 </r>
       <r>   -6.2699    1.0000 </r>
       <r>   -6.2085    1.0000 </r>
       <r>   -6.1443    1.0000 </r>
       <r>   -6.0242    1.0000 </r>
       <r>   -5.9839    1.0000 </r>
       <r>   -5.9416    1.0000 </r>
       <r>   -5.7999    1.0000 </r>
       <r>   -5.7312    1.0000 </r>
       <r>   -5.7169    1.0000 </r>
       <r>   -5.5829    1.0000 </r>
       <r>   -5.5728    1.0000 </r>
       <r>   -5.5204    1.0000 </r>
       <r>   -5.3104    1.0000 </r>
       <r>   -5.1329    1.0000 </r>
       <r>   -5.0854    1.0000 </r>
       <r>   -4.8096    1.0000 </r>
       <r>   -4.7578    1.0000 </r>
       <r>   -4.7127    1.0000 </r>
       <r>   -4.4744    1.0000 </r>
       <r>   -4.4685    1.0000 </r>
       <r>   -4.3990    1.0000 </r>
       <r>   -4.3389    1.0000 </r>
       <r>   -4.2196    1.0000 </r>
       <r>   -4.0703    1.0000 </r>
       <r>   -3.9536    1.0000 </r>
       <r>   -3.5584    0.9417 </r>
       <r>   -3.3878    0.6415 </r>
       <r>   -3.3055    0.4133 </r>
       <r>   -3.0921    0.0419 </r>
       <r>   -2.9377    0.0024 </r>
       <r>   -2.8934    0.0009 </r>
       <r>   -2.6429    0.0000 </r>
       <r>   -2.6098    0.0000 </r>
       <r>   -2.5180    0.0000 </r>
       <r>   -2.2052    0.0000 </r>
       <r>   -2.1008    0.0000 </r>
       <r>   -2.0876    0.0000 </r>
       <r>   -1.9126    0.0000 </r>
       <r>   -1.7416    0.0000 </r>
       <r>   -1.5635    0.0000 </r>
       <r>   -1.4660    0.0000 </r>
       <r>   -1.2750    0.0000 </r>
       <r>   -1.1962    0.0000 </r>
       <r>   -1.1869    0.0000 </r>
       <r>   -1.0133    0.0000 </r>
       <r>   -0.9987    0.0000 </r>
       <r>   -0.8969    0.0000 </r>
       <r>   -0.8920    0.0000 </r>
       <r>   -0.8654    0.0000 </r>
       <r>   -0.7404    0.0000 </r>
       <r>   -0.6847    0.0000 </r>
       <r>   -0.5863    0.0000 </r>
       <r>   -0.5811    0.0000 </r>
       <r>   -0.5117    0.0000 </r>
       <r>   -0.4589    0.0000 </r>
       <r>   -0.0691    0.0000 </r>
       <r>    0.1582    0.0000 </r>
       <r>    0.2654    0.0000 </r>
       <r>    0.2721    0.0000 </r>
       <r>    0.6906    0.0000 </r>
       <r>    0.8827    0.0000 </r>
       <r>    0.9619    0.0000 </r>
       <r>    1.1360    0.0000 </r>
       <r>    1.1491    0.0000 </r>
       <r>    1.3839    0.0000 </r>
       <r>    2.2239    0.0000 </r>
       <r>    2.2613    0.0000 </r>
       <r>    2.3827    0.0000 </r>
      </set>
     </set>
    </set>
   </array>
  </eigenvalues>
  <separator name="orbital magnetization" >
   <v name="MAGDIPOLOUT">      0.00000000      0.00000000      0.00000000</v>
  </separator>
 </calculation>
 <structure name="finalpos" >
  <crystal>
   <varray name="basis" >
    <v>       8.32493726       4.83898245       0.00000000 </v>
    <v>      -8.32468590       4.83854841       0.00000000 </v>
    <v>       0.00000000       0.00000000      30.00000000 </v>
   </varray>
   <i name="volume">   2416.90862533 </i>
   <varray name="rec_basis" >
    <v>       0.06005873       0.10333058       0.00000000 </v>
    <v>      -0.06006411       0.10333370       0.00000000 </v>
    <v>       0.00000000       0.00000000       0.03333333 </v>
   </varray>
  </crystal>
  <varray name="positions" >
   <v>       0.64581582       0.64590076       0.00000495 </v>
   <v>      -0.01068156       0.63128801      -0.00133124 </v>
   <v>       0.63121590      -0.01081089       0.00132937 </v>
   <v>       1.03544909       0.34945495      -0.00026982 </v>
   <v>       0.33158423       0.33158771      -0.00000108 </v>
   <v>       0.34949962       0.03545606       0.00027100 </v>
   <v>       0.03523482       0.03524366       0.00000176 </v>
   <v>       0.32169335       0.64152933      -0.00011813 </v>
   <v>       0.64150719       0.32164808       0.00011419 </v>
   <v>       0.11915029       0.22958362       0.94324426 </v>
   <v>       0.22958352       0.11915896       0.05675652 </v>
   <v>       0.11136410       0.55600366       0.94477273 </v>
   <v>       0.23060204       0.44563130       0.05656660 </v>
   <v>       0.10974844       0.88535521       0.95234821 </v>
   <v>       0.21727964       0.77920929       0.04395407 </v>
   <v>       0.44564325       0.23061791       0.94342874 </v>
   <v>       0.55604525       0.11134072       0.05521061 </v>
   <v>       0.44956293       0.56078645       0.94624909 </v>
   <v>       0.56079129       0.44957286       0.05374446 </v>
   <v>       0.43686031       0.88802949       0.95031530 </v>
   <v>       0.55379678       0.77491308       0.05009762 </v>
   <v>       0.77918270       0.21723306       0.95605803 </v>
   <v>       0.88531751       0.10973689       0.04765155 </v>
   <v>       0.77490648       0.55383484       0.94992211 </v>
   <v>       0.88801973       0.43685098       0.04968895 </v>
   <v>       0.77754715       0.89150945       0.95816582 </v>
   <v>       0.89149457       0.77754901       0.04182423 </v>
  </varray>
 </structure>
</modeling>
