unknown system                          
           1
     8.854216    5.106788    0.000000
    -8.854219    5.106793    0.000000
     0.000000    0.000000   30.000000
   V    Mo   W    S 
   3   3   3  18
Direct configuration=     1
   0.66666669  0.66666669  0.00000000
   0.00000000  0.66666669  0.00000000
   0.66666669  0.00000000  0.00000000
   1.00000000  0.33333334  0.00000000
   0.33333334  0.33333334  0.00000000
   0.33333334  0.00000000  0.00000000
   0.00000000  0.00000000  0.00000000
   0.33333334  0.66666669  0.00000000
   0.66666669  0.33333334  0.00000000
   0.11068511  0.22244981  0.95539999
   0.22244981  0.11068511  0.04460000
   0.11068511  0.55578315  0.95539999
   0.22244981  0.44401845  0.04460000
   0.11068511  0.88911647  0.95539999
   0.22244981  0.77735180  0.04460000
   0.44401845  0.22244981  0.95539999
   0.55578315  0.11068511  0.04460000
   0.44401845  0.55578315  0.95539999
   0.55578315  0.44401845  0.04460000
   0.44401845  0.88911647  0.95539999
   0.55578315  0.77735180  0.04460000
   0.77735180  0.22244981  0.95539999
   0.88911647  0.11068511  0.04460000
   0.77735180  0.55578315  0.95539999
   0.88911647  0.44401845  0.04460000
   0.77735180  0.88911647  0.95539999
   0.88911647  0.77735180  0.04460000
unknown system                          
           1
     8.667103    5.001077    0.000000
    -8.667101    5.001075    0.000000
     0.000000    0.000000   30.000000
   V    Mo   W    S 
   3   3   3  18
Direct configuration=     2
   0.66592702  0.66592715 -0.00000000
   0.00079105  0.66661258 -0.00011520
   0.66661244  0.00079117  0.00011519
   1.00148826  0.33332922 -0.00011605
   0.33176577  0.33176566 -0.00000000
   0.33332968  0.00148849  0.00011604
   0.00219768  0.00219778 -0.00000001
   0.33223375  0.66551133 -0.00000052
   0.66551088  0.33223321  0.00000051
   0.11054628  0.22127047  0.95067004
   0.22127053  0.11054611  0.04932992
   0.10945610  0.55836977  0.95192287
   0.22273818  0.44534722  0.04923989
   0.10822889  0.88456087  0.95192822
   0.21817901  0.77514424  0.04805013
   0.44534711  0.22273799  0.95076009
   0.55836963  0.10945587  0.04807713
   0.44831903  0.55803915  0.95195114
   0.55803911  0.44831900  0.04804882
   0.44835186  0.89001779  0.95201896
   0.55904454  0.77932702  0.04690070
   0.77514397  0.21817883  0.95194986
   0.88456059  0.10822857  0.04807182
   0.77932694  0.55904465  0.95309931
   0.89001760  0.44835178  0.04798109
   0.77416181  0.88725675  0.95317572
   0.88725676  0.77416181  0.04682426
unknown system                          
           1
     8.483863    4.900604    0.000000
    -8.483592    4.900135    0.000000
     0.000000    0.000000   30.000000
   V    Mo   W    S 
   3   3   3  18
Direct configuration=     3
   0.66566928  0.66566878  0.00000001
   0.00108021  0.66655383 -0.00008229
   0.66655381  0.00107980  0.00008221
   1.00227838  0.33339863 -0.00009065
   0.33094301  0.33094271  0.00000001
   0.33339728  0.00227810  0.00009065
   0.00330055  0.00329983 -0.00000002
   0.33168176  0.66492601 -0.00000985
   0.66492655  0.33168404  0.00000987
   0.11042590  0.22103654  0.95051936
   0.22103652  0.11042558  0.04948067
   0.10964427  0.55852771  0.95186391
   0.22288699  0.44558682  0.04931557
   0.10802005  0.88458082  0.95194871
   0.21820760  0.77496927  0.04801489
   0.44558652  0.22288687  0.95068434
   0.55852659  0.10964450  0.04813683
   0.44827976  0.55821631  0.95198399
   0.55821640  0.44827953  0.04801597
   0.44833448  0.88984613  0.95211210
   0.55886722  0.77927107  0.04683121
   0.77497005  0.21820894  0.95198444
   0.88458237  0.10802071  0.04805173
   0.77927250  0.55886773  0.95316947
   0.88984652  0.44833588  0.04788710
   0.77435269  0.88732609  0.95331107
   0.88732721  0.77435221  0.04668858
unknown system                          
           1
     8.272681    4.784445    0.000000
    -8.272587    4.784281    0.000000
     0.000000    0.000000   30.000000
   V    Mo   W    S 
   3   3   3  18
Direct configuration=     4
   0.66465961  0.66457408  0.00000023
   0.00234507  0.66613388  0.00009263
   0.66614934  0.00229277 -0.00008747
   1.00579759  0.33395807  0.00003145
   0.32735992  0.32734960 -0.00000380
   0.33373289  0.00569721 -0.00003225
   0.00794726  0.00785500  0.00000025
   0.32918366  0.66235122 -0.00005403
   0.66244471  0.32939260  0.00005321
   0.11038616  0.22096046  0.94825951
   0.22096373  0.11039352  0.05174799
   0.10912383  0.55903871  0.95013180
   0.22316918  0.44573047  0.05123538
   0.10726452  0.88355842  0.95057147
   0.21728518  0.77448514  0.04929804
   0.44573407  0.22317163  0.94877085
   0.55899991  0.10917238  0.04987222
   0.44914261  0.55868938  0.95066826
   0.55868300  0.44913954  0.04933884
   0.44920694  0.89023346  0.95106271
   0.55960522  0.77976448  0.04790941
   0.77452625  0.21736647  0.95069056
   0.88364130  0.10730905  0.04943564
   0.77985083  0.55964815  0.95209970
   0.89026927  0.44928539  0.04892436
   0.77378528  0.88691866  0.95251691
   0.88695713  0.77374472  0.04746601
unknown system                          
           1
     8.264893    4.788905    0.000000
    -8.264708    4.788584    0.000000
     0.000000    0.000000   30.000000
   V    Mo   W    S 
   3   3   3  18
Direct configuration=     5
   0.66313054  0.66306383  0.00000008
   0.00433153  0.66481831  0.00041896
   0.66485867  0.00425304 -0.00041278
   1.01324575  0.33528011  0.00016913
   0.32038724  0.32035090 -0.00000886
   0.33501201  0.01315841 -0.00016865
   0.01624935  0.01615911  0.00000246
   0.32461385  0.65696966 -0.00015436
   0.65706539  0.32479590  0.00015158
   0.11066580  0.22135563  0.94489889
   0.22136516  0.11068873  0.05512381
   0.10825996  0.55888565  0.94762674
   0.22375812  0.44536932  0.05398252
   0.10701595  0.88331472  0.94877631
   0.21700423  0.77488728  0.05084934
   0.44537632  0.22374827  0.94603460
   0.55884609  0.10830481  0.05232446
   0.44923797  0.55809512  0.94897569
   0.55807111  0.44924201  0.05104379
   0.44931023  0.89055011  0.94992518
   0.55993122  0.78019223  0.04932588
   0.77490852  0.21705596  0.94917588
   0.88338922  0.10705700  0.05118837
   0.78027628  0.55998674  0.95064961
   0.89057415  0.44936295  0.05009558
   0.77415256  0.88714572  0.95165565
   0.88717723  0.77412293  0.04835005
unknown system                          
           1
     8.269139    4.792033    0.000000
    -8.269092    4.791948    0.000000
     0.000000    0.000000   30.000000
   V    Mo   W    S 
   3   3   3  18
Direct configuration=     6
   0.66299118  0.66293321  0.00000065
   0.00465754  0.66382272  0.00040991
   0.66386975  0.00457095 -0.00041280
   1.01539871  0.33629587  0.00003084
   0.32000220  0.31996372  0.00000366
   0.33603321  0.01532218 -0.00003235
   0.01749194  0.01740630 -0.00000143
   0.32336611  0.65461318 -0.00012401
   0.65470781  0.32354922  0.00012541
   0.11075283  0.22166826  0.94442034
   0.22167973  0.11078544  0.05559689
   0.10809206  0.55835288  0.94735363
   0.22433590  0.44490997  0.05435178
   0.10755413  0.88427935  0.94880538
   0.21788156  0.77568399  0.05067603
   0.44490994  0.22431796  0.94565586
   0.55831445  0.10811831  0.05260731
   0.44826199  0.55706790  0.94892424
   0.55705917  0.44827428  0.05108661
   0.44797498  0.89016851  0.95011905
   0.55934989  0.78004301  0.04927826
   0.77570154  0.21791417  0.94934396
   0.88433424  0.10759185  0.05116763
   0.78010619  0.55939490  0.95070511
   0.89018739  0.44802282  0.04990233
   0.77523916  0.88793097  0.95185725
   0.88796083  0.77521254  0.04814836
unknown system                          
           1
     8.270425    4.797222    0.000000
    -8.270342    4.797078    0.000000
     0.000000    0.000000   30.000000
   V    Mo   W    S 
   3   3   3  18
Direct configuration=     7
   0.66300973  0.66296595  0.00000053
   0.00489138  0.66261622  0.00044029
   0.66266851  0.00480295 -0.00044359
   1.01789513  0.33763294 -0.00001480
   0.31957372  0.31953676 -0.00000227
   0.33740069  0.01784014  0.00001381
   0.01897211  0.01890219  0.00000062
   0.32201509  0.65179796 -0.00006757
   0.65187886  0.32217102  0.00006735
   0.11088660  0.22186134  0.94418551
   0.22185710  0.11090354  0.05583417
   0.10807645  0.55803561  0.94712355
   0.22470649  0.44451097  0.05461742
   0.10814183  0.88495823  0.94897080
   0.21856981  0.77624499  0.05037203
   0.44450884  0.22469307  0.94539300
   0.55799605  0.10808920  0.05283925
   0.44769658  0.55644382  0.94889107
   0.55644345  0.44771521  0.05112088
   0.44682078  0.88968762  0.95043508
   0.55887851  0.77989878  0.04914349
   0.77626182  0.21859636  0.94964399
   0.88500399  0.10817674  0.05100434
   0.77994888  0.55891600  0.95084451
   0.88970534  0.44686748  0.04958468
   0.77588596  0.88848960  0.95214778
   0.88852075  0.77585977  0.04785401
unknown system                          
           1
     8.270198    4.802842    0.000000
    -8.270284    4.802986    0.000000
     0.000000    0.000000   30.000000
   V    Mo   W    S 
   3   3   3  18
Direct configuration=     8
   0.66304566  0.66300866  0.00000117
   0.00501940  0.66163044  0.00047054
   0.66168471  0.00492638 -0.00047527
   1.01964159  0.33869645 -0.00006892
   0.31939628  0.31935877  0.00000162
   0.33847697  0.01959317  0.00006933
   0.01996115  0.01989913  0.00000040
   0.32112833  0.64978921 -0.00005566
   0.64986277  0.32127260  0.00005759
   0.11095051  0.22201544  0.94399196
   0.22201099  0.11096997  0.05602550
   0.10808438  0.55789323  0.94693087
   0.22497223  0.44420342  0.05489935
   0.10846936  0.88527681  0.94907847
   0.21899785  0.77653469  0.05015173
   0.44420160  0.22495943  0.94510781
   0.55785238  0.10809646  0.05303470
   0.44748727  0.55621332  0.94881682
   0.55621595  0.44750664  0.05119255
   0.44610093  0.88930984  0.95063401
   0.55863179  0.77980363  0.04908143
   0.77655199  0.21902515  0.94986099
   0.88531887  0.10850402  0.05090030
   0.77985175  0.55866711  0.95090974
   0.88933002  0.44615214  0.04938393
   0.77614350  0.88879187  0.95233541
   0.88882623  0.77611648  0.04766351
unknown system                          
           1
     8.278421    4.814308    0.000000
    -8.278485    4.814415    0.000000
     0.000000    0.000000   30.000000
   V    Mo   W    S 
   3   3   3  18
Direct configuration=     9
   0.66309383  0.66313486 -0.00000009
   0.00507307  0.65978769  0.00050981
   0.65976350  0.00505479 -0.00052213
   1.02249913  0.34048898 -0.00011858
   0.31922461  0.31920907 -0.00000020
   0.34047988  0.02250428  0.00011899
   0.02157808  0.02158620  0.00000058
   0.31993341  0.64641983 -0.00000093
   0.64644441  0.31987058 -0.00000191
   0.11107501  0.22226401  0.94376764
   0.22224154  0.11108800  0.05624936
   0.10820988  0.55767921  0.94662671
   0.22537633  0.44367369  0.05531410
   0.10904749  0.88579165  0.94934933
   0.21979268  0.77700540  0.04969880
   0.44367882  0.22536964  0.94469417
   0.55767205  0.10818901  0.05333216
   0.44727273  0.55595603  0.94868873
   0.55596115  0.44729959  0.05131790
   0.44490104  0.88857484  0.95100992
   0.55817491  0.77961678  0.04893481
   0.77698045  0.21974339  0.95032751
   0.88577939  0.10906014  0.05062122
   0.77960110  0.55818157  0.95104888
   0.88855771  0.44487123  0.04902195
   0.77649950  0.88929459  0.95271537
   0.88930275  0.77649940  0.04729581
unknown system                          
           1
     8.274799    4.818131    0.000000
    -8.274792    4.818118    0.000000
     0.000000    0.000000   30.000000
   V    Mo   W    S 
   3   3   3  18
Direct configuration=    10
   0.66305638  0.66308418  0.00000178
   0.00506831  0.65793461  0.00053079
   0.65792684  0.00503139 -0.00053563
   1.02465893  0.34217508 -0.00018502
   0.31942439  0.31942217  0.00000826
   0.34210679  0.02463992  0.00018954
   0.02290245  0.02288336  0.00000146
   0.31902096  0.64379357  0.00002589
   0.64383437  0.31904750 -0.00002317
   0.11117354  0.22252894  0.94359069
   0.22251777  0.11117810  0.05641143
   0.10837567  0.55753214  0.94639933
   0.22572837  0.44316280  0.05569426
   0.10950382  0.88607388  0.94960283
   0.22042138  0.77739011  0.04926587
   0.44316591  0.22572712  0.94430430
   0.55752284  0.10834557  0.05359520
   0.44720756  0.55581630  0.94854463
   0.55583817  0.44721261  0.05144841
   0.44380452  0.88786458  0.95127288
   0.55777510  0.77940803  0.04885129
   0.77739636  0.22040537  0.95073702
   0.88605132  0.10950698  0.05038445
   0.77939369  0.55777699  0.95114742
   0.88787644  0.44381874  0.04873613
   0.77675379  0.88970811  0.95302018
   0.88970878  0.77674630  0.04697970
unknown system                          
           1
     8.282112    4.824089    0.000000
    -8.282111    4.824086    0.000000
     0.000000    0.000000   30.000000
   V    Mo   W    S 
   3   3   3  18
Direct configuration=    11
   0.66285352  0.66289040 -0.00000079
   0.00488931  0.65587841  0.00054193
   0.65585766  0.00485409 -0.00054712
   1.02663834  0.34368278 -0.00020069
   0.31958453  0.31957833 -0.00000466
   0.34365159  0.02663946  0.00019746
   0.02432909  0.02432026 -0.00000147
   0.31842486  0.64152874  0.00008271
   0.64154445  0.31841165 -0.00008748
   0.11132735  0.22284104  0.94352765
   0.22282993  0.11132534  0.05648414
   0.10865189  0.55741383  0.94619290
   0.22602614  0.44269469  0.05596857
   0.10994639  0.88632560  0.94994093
   0.22104382  0.77773669  0.04876181
   0.44269633  0.22602422  0.94404387
   0.55741076  0.10863110  0.05379734
   0.44719122  0.55578342  0.94843033
   0.55580105  0.44720116  0.05157058
   0.44275236  0.88714992  0.95155198
   0.55729664  0.77913238  0.04873146
   0.77773749  0.22102180  0.95124383
   0.88630536  0.10994460  0.05004756
   0.77911858  0.55729653  0.95126983
   0.88715697  0.44275966  0.04845645
   0.77701060  0.89014158  0.95340454
   0.89013822  0.77700677  0.04659626
unknown system                          
           1
     8.282346    4.827750    0.000000
    -8.282354    4.827761    0.000000
     0.000000    0.000000   30.000000
   V    Mo   W    S 
   3   3   3  18
Direct configuration=    12
   0.66266650  0.66270054  0.00000049
   0.00476482  0.65527218  0.00052994
   0.65525575  0.00472454 -0.00053309
   1.02692177  0.34395627 -0.00020870
   0.31974551  0.31974123  0.00000260
   0.34391237  0.02691351  0.00021210
   0.02465469  0.02464240  0.00000118
   0.31843012  0.64123436  0.00008680
   0.64125663  0.31843422 -0.00008550
   0.11138697  0.22297258  0.94348262
   0.22296441  0.11138802  0.05652237
   0.10873656  0.55739757  0.94612863
   0.22611213  0.44257113  0.05605926
   0.11001889  0.88630965  0.95000628
   0.22116352  0.77784246  0.04864737
   0.44257244  0.22611111  0.94394424
   0.55739123  0.10871764  0.05386283
   0.44723884  0.55579837  0.94836828
   0.55581567  0.44724380  0.05162869
   0.44249470  0.88698285  0.95156788
   0.55719597  0.77907024  0.04873788
   0.77784592  0.22114713  0.95135552
   0.88629277  0.11001759  0.04998238
   0.77906178  0.55719821  0.95126407
   0.88699385  0.44250920  0.04843724
   0.77707204  0.89025160  0.95349399
   0.89024862  0.77706606  0.04650451
unknown system                          
           1
     8.289295    4.835132    0.000000
    -8.289257    4.835066    0.000000
     0.000000    0.000000   30.000000
   V    Mo   W    S 
   3   3   3  18
Direct configuration=    13
   0.66219389  0.66225621 -0.00000106
   0.00442861  0.65371785  0.00051128
   0.65361713  0.00442386 -0.00051777
   1.02802097  0.34478028 -0.00021357
   0.31996827  0.31997505  0.00000149
   0.34482633  0.02800786  0.00021376
   0.02564303  0.02564661 -0.00000075
   0.31830112  0.64013374  0.00011642
   0.64014495  0.31821492 -0.00011866
   0.11155327  0.22327217  0.94344731
   0.22325724  0.11155175  0.05655812
   0.10899476  0.55731942  0.94601121
   0.22631032  0.44231154  0.05620621
   0.11024152  0.88639753  0.95023821
   0.22150799  0.77807302  0.04829989
   0.44231696  0.22631146  0.94379888
   0.55733160  0.10896269  0.05397683
   0.44729058  0.55583988  0.94827334
   0.55585840  0.44730357  0.05172288
   0.44186386  0.88658337  0.95169034
   0.55689969  0.77889752  0.04868945
   0.77805778  0.22145541  0.95171257
   0.88635901  0.11023320  0.04974555
   0.77886093  0.55689029  0.95130898
   0.88656691  0.44183024  0.04832212
   0.77725653  0.89056135  0.95379076
   0.89054282  0.77726365  0.04621612
unknown system                          
           1
     8.294902    4.845224    0.000000
    -8.294814    4.845071    0.000000
     0.000000    0.000000   30.000000
   V    Mo   W    S 
   3   3   3  18
Direct configuration=    14
   0.66147531  0.66152298 -0.00000098
   0.00398042  0.65195874  0.00048257
   0.65189080  0.00395922 -0.00048097
   1.02894759  0.34558099 -0.00021815
   0.32037670  0.32038801  0.00000488
   0.34556969  0.02892993  0.00022020
   0.02664169  0.02662552  0.00000107
   0.31825126  0.63928491  0.00014550
   0.63929996  0.31822934 -0.00014340
   0.11177253  0.22363136  0.94337725
   0.22362829  0.11176526  0.05662070
   0.10926459  0.55726338  0.94588338
   0.22653950  0.44208874  0.05637123
   0.11042130  0.88640156  0.95045772
   0.22175585  0.77829610  0.04794685
   0.44209057  0.22653729  0.94362996
   0.55726837  0.10923739  0.05412419
   0.44740199  0.55591391  0.94813884
   0.55593985  0.44740217  0.05185155
   0.44118586  0.88619503  0.95173737
   0.55661141  0.77871123  0.04868693
   0.77830692  0.22173570  0.95205387
   0.88637336  0.11041141  0.04953129
   0.77869198  0.55660763  0.95132002
   0.88621162  0.44119980  0.04825639
   0.77746326  0.89087196  0.95409330
   0.89085378  0.77746489  0.04590834
unknown system                          
           1
     8.297432    4.845581    0.000000
    -8.297376    4.845483    0.000000
     0.000000    0.000000   30.000000
   V    Mo   W    S 
   3   3   3  18
Direct configuration=    15
   0.65919138  0.65922388 -0.00000310
   0.00263976  0.64734906  0.00038901
   0.64730881  0.00258329 -0.00037927
   1.03128120  0.34746173 -0.00021421
   0.32148765  0.32149448 -0.00000019
   0.34740156  0.03126546  0.00021114
   0.02928325  0.02924562 -0.00000095
   0.31825375  0.63736901  0.00022163
   0.63736581  0.31828214 -0.00022176
   0.11242375  0.22459940  0.94327685
   0.22461619  0.11241177  0.05672206
   0.11001788  0.55712289  0.94560485
   0.22711346  0.44165981  0.05669045
   0.11081881  0.88642165  0.95105161
   0.22227436  0.77882343  0.04701693
   0.44165759  0.22710649  0.94331592
   0.55711098  0.11000892  0.05442077
   0.44769354  0.55620295  0.94782957
   0.55622994  0.44768700  0.05216251
   0.43957334  0.88536546  0.95183994
   0.55588192  0.77822286  0.04867067
   0.77885757  0.22229401  0.95297404
   0.88641455  0.11080572  0.04894347
   0.77823789  0.55588776  0.95134791
   0.88541249  0.43964069  0.04813387
   0.77802238  0.89166234  0.95493922
   0.89164464  0.77801667  0.04505695
unknown system                          
           1
     8.288214    4.844153    0.000000
    -8.288197    4.844122    0.000000
     0.000000    0.000000   30.000000
   V    Mo   W    S 
   3   3   3  18
Direct configuration=    16
   0.65826190  0.65830636 -0.00000232
   0.00223013  0.64673891  0.00033108
   0.64665864  0.00217144 -0.00032760
   1.03121183  0.34731360 -0.00019934
   0.32200954  0.32200969  0.00000063
   0.34730989  0.03119637  0.00019990
   0.02946565  0.02944324 -0.00000057
   0.31850671  0.63770363  0.00022271
   0.63769207  0.31847518 -0.00022215
   0.11267933  0.22486875  0.94326795
   0.22487605  0.11267630  0.05673478
   0.11017333  0.55713837  0.94557161
   0.22722096  0.44176857  0.05668323
   0.11075357  0.88634079  0.95110873
   0.22211520  0.77886659  0.04690352
   0.44176744  0.22721795  0.94332035
   0.55712687  0.11016445  0.05442922
   0.44779919  0.55636847  0.94775948
   0.55638351  0.44780548  0.05223767
   0.43944858  0.88545383  0.95174392
   0.55584649  0.77818350  0.04871424
   0.77887049  0.22210476  0.95309983
   0.88633173  0.11074263  0.04887891
   0.77818817  0.55584879  0.95129654
   0.88546158  0.43946453  0.04824762
   0.77810149  0.89174199  0.95510923
   0.89172411  0.77810028  0.04489072
unknown system                          
           1
     8.305440    4.848620    0.000000
    -8.305358    4.848477    0.000000
     0.000000    0.000000   30.000000
   V    Mo   W    S 
   3   3   3  18
Direct configuration=    17
   0.65982596  0.65986451 -0.00000262
   0.00289768  0.64749296  0.00039975
   0.64745204  0.00283205 -0.00039322
   1.03132886  0.34738961 -0.00021957
   0.32125145  0.32125221 -0.00000220
   0.34736433  0.03132188  0.00022554
   0.02931184  0.02929101  0.00000019
   0.31820435  0.63701034  0.00021789
   0.63700050  0.31820289 -0.00021707
   0.11230448  0.22463836  0.94324576
   0.22465203  0.11229949  0.05675831
   0.11008035  0.55717484  0.94554488
   0.22711688  0.44146987  0.05675755
   0.11093496  0.88649728  0.95107766
   0.22250530  0.77892356  0.04698817
   0.44147028  0.22711696  0.94324824
   0.55714643  0.11008451  0.05445472
   0.44761036  0.55606859  0.94784138
   0.55608232  0.44761095  0.05215839
   0.43933307  0.88511009  0.95187981
   0.55578011  0.77815738  0.04865063
   0.77894272  0.22251989  0.95300737
   0.88650740  0.11092646  0.04891237
   0.77818709  0.55578960  0.95136292
   0.88513577  0.43937579  0.04810767
   0.77808099  0.89171941  0.95490954
   0.89170688  0.77807395  0.04508587
unknown system                          
           1
     8.300319    4.846672    0.000000
    -8.300233    4.846522    0.000000
     0.000000    0.000000   30.000000
   V    Mo   W    S 
   3   3   3  18
Direct configuration=    18
   0.65649810  0.65654617 -0.00000222
   0.00141682  0.64521978  0.00025237
   0.64510693  0.00135731 -0.00024980
   1.03154640  0.34758152 -0.00018204
   0.32288703  0.32288620  0.00000254
   0.34759490  0.03152410  0.00018056
   0.03009198  0.03006671 -0.00000080
   0.31877422  0.63791710  0.00024197
   0.63789946  0.31871964 -0.00024066
   0.11312451  0.22526924  0.94326207
   0.22527424  0.11312277  0.05673933
   0.11040752  0.55709093  0.94552936
   0.22742938  0.44192806  0.05669083
   0.11068604  0.88622068  0.95125218
   0.22189594  0.77893235  0.04664878
   0.44192550  0.22742479  0.94331042
   0.55708775  0.11039178  0.05447110
   0.44800848  0.55667578  0.94762631
   0.55669062  0.44801916  0.05236949
   0.43920546  0.88556704  0.95164235
   0.55575558  0.77810479  0.04876659
   0.77892557  0.22187048  0.95335982
   0.88620179  0.11067319  0.04873297
   0.77809531  0.55575324  0.95124305
   0.88556167  0.43920372  0.04835047
   0.77823134  0.89191424  0.95544492
   0.89189192  0.77823370  0.04455796
unknown system                          
           1
     8.299237    4.845004    0.000000
    -8.299147    4.844848    0.000000
     0.000000    0.000000   30.000000
   V    Mo   W    S 
   3   3   3  18
Direct configuration=    19
   0.65642566  0.65646618 -0.00000222
   0.00130173  0.64484909  0.00023968
   0.64477884  0.00122819 -0.00023559
   1.03179709  0.34770044 -0.00018317
   0.32291740  0.32291582  0.00000202
   0.34768275  0.03178048  0.00017992
   0.03035446  0.03032773 -0.00000078
   0.31875559  0.63766234  0.00024405
   0.63765136  0.31873872 -0.00024349
   0.11319851  0.22539845  0.94325259
   0.22540683  0.11319693  0.05674953
   0.11050828  0.55707684  0.94549094
   0.22748686  0.44188002  0.05672256
   0.11074600  0.88624728  0.95130201
   0.22198960  0.77901256  0.04656487
   0.44187496  0.22748035  0.94327915
   0.55706635  0.11049957  0.05451242
   0.44801295  0.55668771  0.94759151
   0.55670128  0.44802017  0.05240496
   0.43896950  0.88542917  0.95163982
   0.55565405  0.77801276  0.04877205
   0.77901177  0.22197532  0.95344159
   0.88623599  0.11073311  0.04868509
   0.77801700  0.55565781  0.95123971
   0.88543514  0.43898626  0.04835052
   0.77828484  0.89196764  0.95551713
   0.89194966  0.77828353  0.04448304
unknown system                          
           1
     8.301540    4.845883    0.000000
    -8.301476    4.845771    0.000000
     0.000000    0.000000   30.000000
   V    Mo   W    S 
   3   3   3  18
Direct configuration=    20
   0.65485002  0.65489094 -0.00000207
   0.00052868  0.64356194  0.00015680
   0.64346946  0.00044668 -0.00015226
   1.03216079  0.34782878 -0.00017406
   0.32372061  0.32371886  0.00000136
   0.34782594  0.03213913  0.00017295
   0.03095514  0.03092858 -0.00000069
   0.31903887  0.63776296  0.00024947
   0.63774556  0.31900595 -0.00024881
   0.11365660  0.22583408  0.94322683
   0.22583899  0.11365547  0.05677482
   0.11075569  0.55699842  0.94541212
   0.22770682  0.44202946  0.05675965
   0.11072400  0.88618139  0.95140956
   0.22185185  0.77913672  0.04634394
   0.44202534  0.22770525  0.94324079
   0.55698859  0.11074327  0.05458523
   0.44819658  0.55698405  0.94743431
   0.55699586  0.44820932  0.05256262
   0.43860257  0.88546294  0.95151538
   0.55551694  0.77784085  0.04885310
   0.77913013  0.22182870  0.95366748
   0.88616506  0.11071300  0.04857406
   0.77783997  0.55552111  0.95115772
   0.88546039  0.43860387  0.04847828
   0.77841220  0.89207089  0.95581902
   0.89205179  0.77841182  0.04418231
unknown system                          
           1
     8.301646    4.846154    0.000000
    -8.301793    4.846403    0.000000
     0.000000    0.000000   30.000000
   V    Mo   W    S 
   3   3   3  18
Direct configuration=    21
   0.65443826  0.65447692 -0.00000185
   0.00032255  0.64323989  0.00013961
   0.64317495  0.00023339 -0.00013384
   1.03220023  0.34788955 -0.00017158
   0.32392596  0.32392397  0.00000122
   0.34786532  0.03218383  0.00016936
   0.03103991  0.03101350 -0.00000039
   0.31907690  0.63787925  0.00025312
   0.63786780  0.31906834 -0.00025239
   0.11377679  0.22591223  0.94323403
   0.22591910  0.11377422  0.05676755
   0.11077555  0.55698600  0.94541272
   0.22774844  0.44209450  0.05675012
   0.11069699  0.88615020  0.95142971
   0.22175530  0.77913281  0.04630338
   0.44208880  0.22774519  0.94325044
   0.55697327  0.11076780  0.05458922
   0.44823882  0.55706346  0.94740318
   0.55707636  0.44824937  0.05259358
   0.43859858  0.88554182  0.95148401
   0.55552647  0.77783344  0.04887095
   0.77913332  0.22174393  0.95370522
   0.88614017  0.11068644  0.04855599
   0.77784096  0.55553422  0.95114198
   0.88555136  0.43861819  0.04850543
   0.77840666  0.89207003  0.95588195
   0.89205564  0.77840196  0.04411720
unknown system                          
           1
     8.302271    4.844576    0.000000
    -8.302579    4.845101    0.000000
     0.000000    0.000000   30.000000
   V    Mo   W    S 
   3   3   3  18
Direct configuration=    22
   0.65408611  0.65410657  0.00000013
   0.00012754  0.64276217  0.00011855
   0.64291170 -0.00001054 -0.00010831
   1.03229149  0.34791205 -0.00017088
   0.32404901  0.32403527  0.00000001
   0.34773388  0.03232215  0.00016583
   0.03130902  0.03128726  0.00000373
   0.31908165  0.63777774  0.00025029
   0.63781147  0.31925452 -0.00025004
   0.11393866  0.22609925  0.94320009
   0.22611710  0.11393176  0.05680163
   0.11083197  0.55692142  0.94536800
   0.22780407  0.44206156  0.05679618
   0.11073230  0.88610741  0.95145437
   0.22175094  0.77924469  0.04622896
   0.44204787  0.22779599  0.94320461
   0.55688487  0.11086247  0.05465232
   0.44836598  0.55712978  0.94731990
   0.55714203  0.44836054  0.05267877
   0.43834168  0.88548676  0.95142930
   0.55545526  0.77770131  0.04892982
   0.77928774  0.22181679  0.95376464
   0.88614669  0.11072710  0.04854292
   0.77778162  0.55549433  0.95109330
   0.88557507  0.43847245  0.04854130
   0.77849884  0.89208952  0.95595516
   0.89210992  0.77846413  0.04402932
unknown system                          
           1
     8.307550    4.846657    0.000000
    -8.307610    4.846758    0.000000
     0.000000    0.000000   30.000000
   V    Mo   W    S 
   3   3   3  18
Direct configuration=    23
   0.65259132  0.65263178  0.00000430
  -0.00068623  0.64146821  0.00002668
   0.64158582 -0.00085703 -0.00003228
   1.03264054  0.34812562 -0.00015978
   0.32492210  0.32489864 -0.00000366
   0.34802496  0.03267023  0.00016154
   0.03171927  0.03172883  0.00000083
   0.31931884  0.63805122  0.00024341
   0.63807059  0.31943845 -0.00024693
   0.11441504  0.22645664  0.94320929
   0.22645767  0.11442929  0.05680320
   0.11100460  0.55685010  0.94533217
   0.22799964  0.44229722  0.05678187
   0.11063543  0.88603225  0.95155245
   0.22148992  0.77924374  0.04602344
   0.44229848  0.22801573  0.94322141
   0.55681709  0.11104041  0.05464394
   0.44845255  0.55743331  0.94720223
   0.55742674  0.44846367  0.05280601
   0.43821365  0.88567489  0.95135054
   0.55536647  0.77759246  0.04898958
   0.77925432  0.22153463  0.95398087
   0.88607302  0.11065191  0.04844792
   0.77768243  0.55541570  0.95102521
   0.88570382  0.43826149  0.04865692
   0.77854238  0.89215748  0.95623081
   0.89219400  0.77850760  0.04374794
unknown system                          
           1
     8.308160    4.845164    0.000000
    -8.308059    4.844989    0.000000
     0.000000    0.000000   30.000000
   V    Mo   W    S 
   3   3   3  18
Direct configuration=    24
   0.65161842  0.65166591  0.00000520
  -0.00128976  0.64068828 -0.00003880
   0.64075386 -0.00143912  0.00003139
   1.03278823  0.34820342 -0.00015824
   0.32555888  0.32553280  0.00000129
   0.34814342  0.03281297  0.00016023
   0.03195051  0.03195930  0.00000275
   0.31954654  0.63831218  0.00025149
   0.63832411  0.31961729 -0.00025197
   0.11474391  0.22669869  0.94321152
   0.22669238  0.11476290  0.05679564
   0.11110083  0.55680995  0.94528759
   0.22816102  0.44248874  0.05678157
   0.11058242  0.88597959  0.95161029
   0.22127396  0.77926475  0.04590020
   0.44248893  0.22817384  0.94321757
   0.55679786  0.11112298  0.05468390
   0.44854103  0.55765516  0.94710624
   0.55764832  0.44855618  0.05289831
   0.43810373  0.88581492  0.95125563