   27   27  100    1
  0.9710400E+02  0.1002848E-08  0.1002848E-08  0.3000000E-08  0.5000000E-15
  1.000000000000000E-004
  CAR 
 unknown system                          
    159     34    120
 
  0.0000000E+00  0.0000000E+00  0.0000000E+00  0.1562500E-01
    1      -17.803719   1.000000
    2      -16.743186   1.000000
    3      -16.624703   1.000000
    4      -16.575518   1.000000
    5      -16.551290   1.000000
    6      -16.439820   1.000000
    7      -16.423960   1.000000
    8      -16.312056   1.000000
    9      -16.211863   1.000000
   10      -16.157276   1.000000
   11      -16.062092   1.000000
   12      -15.987022   1.000000
   13      -15.894683   1.000000
   14      -15.598314   1.000000
   15      -15.552257   1.000000
   16      -15.500352   1.000000
   17      -15.353752   1.000000
   18      -15.232560   1.000000
   19       -9.310186   1.000000
   20       -9.043126   1.000000
   21       -8.969850   1.000000
   22       -8.871405   1.000000
   23       -8.795031   1.000000
   24       -8.778355   1.000000
   25       -8.680142   1.000000
   26       -8.602529   1.000000
   27       -8.521055   1.000000
   28       -8.370241   1.000000
   29       -8.355722   1.000000
   30       -8.267832   1.000000
   31       -8.195553   1.000000
   32       -8.180804   1.000000
   33       -8.031753   1.000000
   34       -7.958208   1.000000
   35       -7.900496   1.000000
   36       -7.772902   1.000000
   37       -7.692255   1.000000
   38       -7.512870   1.000000
   39       -7.499022   1.000000
   40       -7.424291   1.000000
   41       -7.260844   1.000000
   42       -7.185957   1.000000
   43       -7.115999   1.000000
   44       -7.007321   1.000000
   45       -6.827975   1.000000
   46       -6.814922   1.000000
   47       -6.661384   1.000000
   48       -6.589712   1.000000
   49       -6.581183   1.000000
   50       -6.553308   1.000000
   51       -6.449435   1.000000
   52       -6.431217   1.000000
   53       -6.333860   1.000000
   54       -6.267409   1.000000
   55       -6.200525   1.000000
   56       -6.150208   1.000000
   57       -6.074281   1.000000
   58       -5.940019   1.000000
   59       -5.716649   1.000000
   60       -5.570168   1.000000
   61       -5.521322   1.000000
   62       -5.444623   1.000000
   63       -5.234808   1.000000
   64       -5.111187   1.000000
   65       -5.013227   1.000000
   66       -4.998103   1.000000
   67       -4.882781   1.000000
   68       -4.866825   1.000000
   69       -4.810710   1.000000
   70       -4.713144   1.000000
   71       -4.664826   1.000000
   72       -4.631735   1.000000
   73       -4.499343   1.000000
   74       -4.318696   1.000000
   75       -4.253346   1.000000
   76       -4.112567   1.000000
   77       -3.822205   0.999701
   78       -3.576152   0.954755
   79       -3.509555   0.889129
   80       -3.407286   0.691025
   81       -3.259409   0.292226
   82       -2.898384   0.000969
   83       -2.727353   0.000008
   84       -2.600375   0.000000
   85       -2.476441   0.000000
   86       -2.424333   0.000000
   87       -2.339484   0.000000
   88       -2.302462   0.000000
   89       -2.208338   0.000000
   90       -2.130587   0.000000
   91       -1.992849   0.000000
   92       -1.382026   0.000000
   93       -1.326151   0.000000
   94       -1.294348   0.000000
   95       -1.176904   0.000000
   96       -1.003602   0.000000
   97       -0.939104   0.000000
   98       -0.883028   0.000000
   99       -0.736938   0.000000
  100       -0.688866   0.000000
  101       -0.643273   0.000000
  102       -0.503662   0.000000
  103       -0.459270   0.000000
  104       -0.355082   0.000000
  105       -0.222805   0.000000
  106       -0.131914   0.000000
  107       -0.090883   0.000000
  108       -0.010848   0.000000
  109        0.197958   0.000000
  110        0.282158   0.000000
  111        0.350139   0.000000
  112        0.365342   0.000000
  113        0.708497   0.000000
  114        0.818387   0.000000
  115        0.929016   0.000000
  116        1.051434   0.000000
  117        1.160419   0.000000
  118        1.638273   0.000000
  119        1.836139   0.000000
  120        2.146816   0.000000
 
  0.1250000E+00  0.2775558E-16  0.0000000E+00  0.3125000E-01
    1      -17.778458   1.000000
    2      -16.795733   1.000000
    3      -16.724658   1.000000
    4      -16.590039   1.000000
    5      -16.511674   1.000000
    6      -16.454879   1.000000
    7      -16.364675   1.000000
    8      -16.329872   1.000000
    9      -16.230950   1.000000
   10      -16.106331   1.000000
   11      -16.015936   1.000000
   12      -15.964287   1.000000
   13      -15.878950   1.000000
   14      -15.611107   1.000000
   15      -15.569025   1.000000
   16      -15.488488   1.000000
   17      -15.356300   1.000000
   18      -15.241728   1.000000
   19       -9.302180   1.000000
   20       -9.207186   1.000000
   21       -9.051441   1.000000
   22       -8.988748   1.000000
   23       -8.816513   1.000000
   24       -8.692767   1.000000
   25       -8.654138   1.000000
   26       -8.588118   1.000000
   27       -8.485134   1.000000
   28       -8.420820   1.000000
   29       -8.397879   1.000000
   30       -8.217100   1.000000
   31       -8.137482   1.000000
   32       -8.041499   1.000000
   33       -8.016001   1.000000
   34       -7.891898   1.000000
   35       -7.861089   1.000000
   36       -7.705644   1.000000
   37       -7.625902   1.000000
   38       -7.572952   1.000000
   39       -7.480547   1.000000
   40       -7.358394   1.000000
   41       -7.315914   1.000000
   42       -7.216446   1.000000
   43       -7.123922   1.000000
   44       -7.033077   1.000000
   45       -6.862522   1.000000
   46       -6.822891   1.000000
   47       -6.745138   1.000000
   48       -6.614868   1.000000
   49       -6.587307   1.000000
   50       -6.482679   1.000000
   51       -6.442378   1.000000
   52       -6.370319   1.000000
   53       -6.348428   1.000000
   54       -6.265140   1.000000
   55       -6.189986   1.000000
   56       -6.131044   1.000000
   57       -6.019463   1.000000
   58       -5.956127   1.000000
   59       -5.699165   1.000000
   60       -5.565773   1.000000
   61       -5.514368   1.000000
   62       -5.486933   1.000000
   63       -5.323085   1.000000
   64       -5.181004   1.000000
   65       -5.099097   1.000000
   66       -5.037859   1.000000
   67       -4.939168   1.000000
   68       -4.895093   1.000000
   69       -4.779761   1.000000
   70       -4.682990   1.000000
   71       -4.627884   1.000000
   72       -4.565999   1.000000
   73       -4.431681   1.000000
   74       -4.299067   1.000000
   75       -4.188802   1.000000
   76       -4.047816   1.000000
   77       -3.887143   0.999950
   78       -3.731610   0.997381
   79       -3.544436   0.929022
   80       -3.404492   0.684030
   81       -3.145312   0.087919
   82       -2.882520   0.000659
   83       -2.719279   0.000006
   84       -2.626512   0.000000
   85       -2.450419   0.000000
   86       -2.414975   0.000000
   87       -2.337739   0.000000
   88       -2.273294   0.000000
   89       -2.187809   0.000000
   90       -2.127412   0.000000
   91       -1.985710   0.000000
   92       -1.383951   0.000000
   93       -1.346340   0.000000
   94       -1.254271   0.000000
   95       -1.166201   0.000000
   96       -1.023813   0.000000
   97       -0.950193   0.000000
   98       -0.890188   0.000000
   99       -0.793128   0.000000
  100       -0.738933   0.000000
  101       -0.680413   0.000000
  102       -0.534469   0.000000
  103       -0.496492   0.000000
  104       -0.361720   0.000000
  105       -0.269080   0.000000
  106       -0.150032   0.000000
  107       -0.127661   0.000000
  108       -0.084414   0.000000
  109        0.143870   0.000000
  110        0.242936   0.000000
  111        0.388674   0.000000
  112        0.516266   0.000000
  113        0.700263   0.000000
  114        0.785366   0.000000
  115        0.940050   0.000000
  116        1.073848   0.000000
  117        1.211211   0.000000
  118        1.682730   0.000000
  119        1.874266   0.000000
  120        2.182043   0.000000
 
  0.2500000E+00  0.5551115E-16  0.0000000E+00  0.3125000E-01
    1      -17.703700   1.000000
    2      -17.001608   1.000000
    3      -16.723092   1.000000
    4      -16.639647   1.000000
    5      -16.582741   1.000000
    6      -16.433224   1.000000
    7      -16.308710   1.000000
    8      -16.271026   1.000000
    9      -16.228046   1.000000
   10      -16.088435   1.000000
   11      -15.959057   1.000000
   12      -15.904035   1.000000
   13      -15.796281   1.000000
   14      -15.646427   1.000000
   15      -15.594488   1.000000
   16      -15.484716   1.000000
   17      -15.361252   1.000000
   18      -15.258951   1.000000
   19       -9.529709   1.000000
   20       -9.237605   1.000000
   21       -9.213398   1.000000
   22       -9.000260   1.000000
   23       -8.915173   1.000000
   24       -8.710597   1.000000
   25       -8.665843   1.000000
   26       -8.525027   1.000000
   27       -8.454675   1.000000
   28       -8.387624   1.000000
   29       -8.311589   1.000000
   30       -8.242389   1.000000
   31       -8.122988   1.000000
   32       -7.975580   1.000000
   33       -7.901642   1.000000
   34       -7.844603   1.000000
   35       -7.724395   1.000000
   36       -7.617156   1.000000
   37       -7.583832   1.000000
   38       -7.507144   1.000000
   39       -7.455111   1.000000
   40       -7.384390   1.000000
   41       -7.284415   1.000000
   42       -7.144675   1.000000
   43       -7.112090   1.000000
   44       -7.014796   1.000000
   45       -6.900422   1.000000
   46       -6.859162   1.000000
   47       -6.808394   1.000000
   48       -6.649874   1.000000
   49       -6.577189   1.000000
   50       -6.506443   1.000000
   51       -6.410001   1.000000
   52       -6.388233   1.000000
   53       -6.275418   1.000000
   54       -6.218925   1.000000
   55       -6.137973   1.000000
   56       -6.061979   1.000000
   57       -5.975807   1.000000
   58       -5.925284   1.000000
   59       -5.779368   1.000000
   60       -5.707541   1.000000
   61       -5.610546   1.000000
   62       -5.548956   1.000000
   63       -5.400396   1.000000
   64       -5.352695   1.000000
   65       -5.164057   1.000000
   66       -5.080537   1.000000
   67       -4.986626   1.000000
   68       -4.895788   1.000000
   69       -4.813851   1.000000
   70       -4.586967   1.000000
   71       -4.532975   1.000000
   72       -4.446218   1.000000
   73       -4.336204   1.000000
   74       -4.258790   1.000000
   75       -4.141142   1.000000
   76       -4.088259   1.000000
   77       -4.012784   0.999999
   78       -3.844742   0.999836
   79       -3.551150   0.935243
   80       -3.381696   0.624684
   81       -3.019204   0.012371
   82       -2.853410   0.000316
   83       -2.705627   0.000004
   84       -2.628305   0.000000
   85       -2.446125   0.000000
   86       -2.417333   0.000000
   87       -2.315078   0.000000
   88       -2.244700   0.000000
   89       -2.157594   0.000000
   90       -2.098135   0.000000
   91       -1.901216   0.000000
   92       -1.402210   0.000000
   93       -1.349790   0.000000
   94       -1.211849   0.000000
   95       -1.138189   0.000000
   96       -1.111240   0.000000
   97       -1.029113   0.000000
   98       -0.911855   0.000000
   99       -0.875707   0.000000
  100       -0.814481   0.000000
  101       -0.735584   0.000000
  102       -0.620282   0.000000
  103       -0.578504   0.000000
  104       -0.458382   0.000000
  105       -0.374325   0.000000
  106       -0.218574   0.000000
  107       -0.197693   0.000000
  108       -0.073487   0.000000
  109        0.047622   0.000000
  110        0.230478   0.000000
  111        0.383878   0.000000
  112        0.596750   0.000000
  113        0.686937   0.000000
  114        0.792534   0.000000
  115        0.970921   0.000000
  116        1.168711   0.000000
  117        1.338144   0.000000
  118        1.805940   0.000000
  119        1.983939   0.000000
  120        2.286514   0.000000
 
  0.3750000E+00  0.0000000E+00  0.0000000E+00  0.3125000E-01
    1      -17.583120   1.000000
    2      -17.215846   1.000000
    3      -16.716309   1.000000
    4      -16.675084   1.000000
    5      -16.632541   1.000000
    6      -16.452458   1.000000
    7      -16.265149   1.000000
    8      -16.234720   1.000000
    9      -16.180578   1.000000
   10      -16.087698   1.000000
   11      -15.919978   1.000000
   12      -15.846497   1.000000
   13      -15.718047   1.000000
   14      -15.683428   1.000000
   15      -15.601747   1.000000
   16      -15.511370   1.000000
   17      -15.370669   1.000000
   18      -15.261789   1.000000
   19       -9.738940   1.000000
   20       -9.375001   1.000000
   21       -9.165255   1.000000
   22       -9.044933   1.000000
   23       -8.903498   1.000000
   24       -8.739073   1.000000
   25       -8.660956   1.000000
   26       -8.502308   1.000000
   27       -8.446107   1.000000
   28       -8.378822   1.000000
   29       -8.283114   1.000000
   30       -8.182051   1.000000
   31       -8.099470   1.000000
   32       -7.980540   1.000000
   33       -7.883215   1.000000
   34       -7.847425   1.000000
   35       -7.759223   1.000000
   36       -7.678970   1.000000
   37       -7.511630   1.000000
   38       -7.496074   1.000000
   39       -7.339141   1.000000
   40       -7.259106   1.000000
   41       -7.193502   1.000000
   42       -7.142280   1.000000
   43       -7.045847   1.000000
   44       -6.970258   1.000000
   45       -6.897145   1.000000
   46       -6.849470   1.000000
   47       -6.661570   1.000000
   48       -6.593362   1.000000
   49       -6.534491   1.000000
   50       -6.463072   1.000000
   51       -6.439494   1.000000
   52       -6.396643   1.000000
   53       -6.253181   1.000000
   54       -6.209793   1.000000
   55       -6.121786   1.000000
   56       -6.094247   1.000000
   57       -5.963974   1.000000
   58       -5.948403   1.000000
   59       -5.883430   1.000000
   60       -5.808142   1.000000
   61       -5.794617   1.000000
   62       -5.659552   1.000000
   63       -5.544795   1.000000
   64       -5.298460   1.000000
   65       -5.174030   1.000000
   66       -5.120999   1.000000
   67       -5.024546   1.000000
   68       -4.894386   1.000000
   69       -4.769063   1.000000
   70       -4.671513   1.000000
   71       -4.461157   1.000000
   72       -4.391105   1.000000
   73       -4.334215   1.000000
   74       -4.240655   1.000000
   75       -4.200187   1.000000
   76       -4.147543   1.000000
   77       -3.967988   0.999996
   78       -3.742603   0.997946
   79       -3.572977   0.952577
   80       -3.374385   0.604924
   81       -2.910152   0.001279
   82       -2.826181   0.000153
   83       -2.712488   0.000005
   84       -2.582978   0.000000
   85       -2.486915   0.000000
   86       -2.433626   0.000000
   87       -2.318136   0.000000
   88       -2.226981   0.000000
   89       -2.127974   0.000000
   90       -2.041444   0.000000
   91       -1.751382   0.000000
   92       -1.431646   0.000000
   93       -1.349127   0.000000
   94       -1.259675   0.000000
   95       -1.216342   0.000000
   96       -1.134749   0.000000
   97       -1.079922   0.000000
   98       -0.958571   0.000000
   99       -0.923303   0.000000
  100       -0.849562   0.000000
  101       -0.778782   0.000000
  102       -0.728465   0.000000
  103       -0.626580   0.000000
  104       -0.553388   0.000000
  105       -0.456151   0.000000
  106       -0.284714   0.000000
  107       -0.240110   0.000000
  108       -0.061088   0.000000
  109       -0.013390   0.000000
  110        0.172130   0.000000
  111        0.349111   0.000000
  112        0.605459   0.000000
  113        0.700337   0.000000
  114        0.777278   0.000000
  115        1.039612   0.000000
  116        1.304685   0.000000
  117        1.445429   0.000000
  118        1.990573   0.000000
  119        2.155428   0.000000
  120        2.457095   0.000000
 
  0.5000000E+00  0.1110223E-15  0.0000000E+00  0.1562500E-01
    1      -17.450557   1.000000
    2      -17.381495   1.000000
    3      -16.712674   1.000000
    4      -16.690717   1.000000
    5      -16.646392   1.000000
    6      -16.462283   1.000000
    7      -16.251290   1.000000
    8      -16.230391   1.000000
    9      -16.142692   1.000000
   10      -16.097206   1.000000
   11      -15.902516   1.000000
   12      -15.793120   1.000000
   13      -15.754949   1.000000
   14      -15.675032   1.000000
   15      -15.565123   1.000000
   16      -15.553476   1.000000
   17      -15.378161   1.000000
   18      -15.256995   1.000000
   19       -9.814725   1.000000
   20       -9.422824   1.000000
   21       -9.139017   1.000000
   22       -9.098964   1.000000
   23       -8.790255   1.000000
   24       -8.749931   1.000000
   25       -8.715565   1.000000
   26       -8.564364   1.000000
   27       -8.425662   1.000000
   28       -8.370539   1.000000
   29       -8.219783   1.000000
   30       -8.131504   1.000000
   31       -8.085227   1.000000
   32       -8.022452   1.000000
   33       -7.902572   1.000000
   34       -7.857695   1.000000
   35       -7.810876   1.000000
   36       -7.715360   1.000000
   37       -7.493021   1.000000
   38       -7.471018   1.000000
   39       -7.344743   1.000000
   40       -7.287086   1.000000
   41       -7.083894   1.000000
   42       -7.026972   1.000000
   43       -7.006205   1.000000
   44       -6.951517   1.000000
   45       -6.892389   1.000000
   46       -6.740082   1.000000
   47       -6.615233   1.000000
   48       -6.608073   1.000000
   49       -6.560533   1.000000
   50       -6.466040   1.000000
   51       -6.420629   1.000000
   52       -6.345600   1.000000
   53       -6.307146   1.000000
   54       -6.234553   1.000000
   55       -6.160122   1.000000
   56       -6.056684   1.000000
   57       -5.999353   1.000000
   58       -5.972929   1.000000
   59       -5.934609   1.000000
   60       -5.857189   1.000000
   61       -5.781169   1.000000
   62       -5.700444   1.000000
   63       -5.474187   1.000000
   64       -5.358911   1.000000
   65       -5.277825   1.000000
   66       -5.136046   1.000000
   67       -5.073658   1.000000
   68       -4.916784   1.000000
   69       -4.726786   1.000000
   70       -4.650176   1.000000
   71       -4.454446   1.000000
   72       -4.426304   1.000000
   73       -4.346458   1.000000
   74       -4.234478   1.000000
   75       -4.188386   1.000000
   76       -4.143958   1.000000
   77       -3.897746   0.999964
   78       -3.719259   0.996582
   79       -3.585084   0.960454
   80       -3.376293   0.610108
   81       -2.844185   0.000248
   82       -2.817023   0.000119
   83       -2.728567   0.000009
   84       -2.559156   0.000000
   85       -2.504259   0.000000
   86       -2.457156   0.000000
   87       -2.323088   0.000000
   88       -2.216975   0.000000
   89       -2.103893   0.000000
   90       -2.022171   0.000000
   91       -1.664660   0.000000
   92       -1.445436   0.000000
   93       -1.347666   0.000000
   94       -1.341867   0.000000
   95       -1.251022   0.000000
   96       -1.133134   0.000000
   97       -1.082982   0.000000
   98       -0.997254   0.000000
   99       -0.925660   0.000000
  100       -0.857045   0.000000
  101       -0.802179   0.000000
  102       -0.766787   0.000000
  103       -0.661192   0.000000
  104       -0.562504   0.000000
  105       -0.494383   0.000000
  106       -0.313118   0.000000
  107       -0.252065   0.000000
  108       -0.070555   0.000000
  109       -0.028965   0.000000
  110        0.142499   0.000000
  111        0.340835   0.000000
  112        0.606137   0.000000
  113        0.682732   0.000000
  114        0.792679   0.000000
  115        1.068335   0.000000
  116        1.359230   0.000000
  117        1.486431   0.000000
  118        2.202345   0.000000
  119        2.254978   0.000000
  120        2.379663   0.000000
 
  0.0000000E+00  0.1250000E+00  0.0000000E+00  0.3125000E-01
    1      -17.780471   1.000000
    2      -16.779584   1.000000
    3      -16.670900   1.000000
    4      -16.637218   1.000000
    5      -16.598789   1.000000
    6      -16.409779   1.000000
    7      -16.367166   1.000000
    8      -16.280952   1.000000
    9      -16.200667   1.000000
   10      -16.159826   1.000000
   11      -16.040051   1.000000
   12      -15.937390   1.000000
   13      -15.875601   1.000000
   14      -15.615492   1.000000
   15      -15.567393   1.000000
   16      -15.500337   1.000000
   17      -15.357831   1.000000
   18      -15.235026   1.000000
   19       -9.331323   1.000000
   20       -9.118234   1.000000
   21       -9.015069   1.000000
   22       -8.935776   1.000000
   23       -8.868044   1.000000
   24       -8.833387   1.000000
   25       -8.665890   1.000000
   26       -8.637759   1.000000
   27       -8.477002   1.000000
   28       -8.396107   1.000000
   29       -8.364553   1.000000
   30       -8.191111   1.000000
   31       -8.132034   1.000000
   32       -8.044627   1.000000
   33       -7.933723   1.000000
   34       -7.899975   1.000000
   35       -7.843945   1.000000
   36       -7.732449   1.000000
   37       -7.650954   1.000000
   38       -7.548453   1.000000
   39       -7.526825   1.000000
   40       -7.474845   1.000000
   41       -7.236569   1.000000
   42       -7.179078   1.000000
   43       -7.107197   1.000000
   44       -7.035639   1.000000
   45       -6.937130   1.000000
   46       -6.779411   1.000000
   47       -6.644366   1.000000
   48       -6.610825   1.000000
   49       -6.578516   1.000000
   50       -6.530824   1.000000
   51       -6.457160   1.000000
   52       -6.419826   1.000000
   53       -6.384257   1.000000
   54       -6.239237   1.000000
   55       -6.194290   1.000000
   56       -6.150743   1.000000
   57       -5.991055   1.000000
   58       -5.926551   1.000000
   59       -5.716222   1.000000
   60       -5.565580   1.000000
   61       -5.541138   1.000000
   62       -5.483994   1.000000
   63       -5.320850   1.000000
   64       -5.239615   1.000000
   65       -5.097914   1.000000
   66       -4.983553   1.000000
   67       -4.939698   1.000000
   68       -4.853525   1.000000
   69       -4.728394   1.000000
   70       -4.665559   1.000000
   71       -4.628700   1.000000
   72       -4.595903   1.000000
   73       -4.457135   1.000000
   74       -4.265614   1.000000
   75       -4.202477   1.000000
   76       -4.123461   1.000000
   77       -3.927019   0.999985
   78       -3.709843   0.995832
   79       -3.501734   0.878315
   80       -3.362162   0.571299
   81       -3.219987   0.204501
   82       -2.851062   0.000297
   83       -2.712217   0.000005
   84       -2.590141   0.000000
   85       -2.462722   0.000000
   86       -2.408107   0.000000
   87       -2.306444   0.000000
   88       -2.277255   0.000000
   89       -2.192195   0.000000
   90       -2.139316   0.000000
   91       -1.992000   0.000000
   92       -1.402427   0.000000
   93       -1.346182   0.000000
   94       -1.276862   0.000000
   95       -1.170679   0.000000
   96       -1.030445   0.000000
   97       -0.932890   0.000000
   98       -0.899087   0.000000
   99       -0.806651   0.000000
  100       -0.756564   0.000000
  101       -0.660851   0.000000
  102       -0.545995   0.000000
  103       -0.507720   0.000000
  104       -0.412606   0.000000
  105       -0.268330   0.000000
  106       -0.130792   0.000000
  107       -0.110419   0.000000
  108       -0.029866   0.000000
  109        0.197041   0.000000
  110        0.279668   0.000000
  111        0.323293   0.000000
  112        0.431853   0.000000
  113        0.678250   0.000000
  114        0.813846   0.000000
  115        0.985621   0.000000
  116        1.090919   0.000000
  117        1.195037   0.000000
  118        1.680252   0.000000
  119        1.875996   0.000000
  120        2.181361   0.000000
 
  0.1250000E+00  0.1250000E+00  0.0000000E+00  0.3125000E-01
    1      -17.732712   1.000000
    2      -16.869605   1.000000
    3      -16.815535   1.000000
    4      -16.671332   1.000000
    5      -16.495745   1.000000
    6      -16.413555   1.000000
    7      -16.331306   1.000000
    8      -16.299176   1.000000
    9      -16.223741   1.000000
   10      -16.095379   1.000000
   11      -15.994030   1.000000
   12      -15.873178   1.000000
   13      -15.841869   1.000000
   14      -15.642995   1.000000
   15      -15.599376   1.000000
   16      -15.494555   1.000000
   17      -15.353932   1.000000
   18      -15.247787   1.000000
   19       -9.385218   1.000000
   20       -9.298295   1.000000
   21       -9.151370   1.000000
   22       -9.053490   1.000000
   23       -8.862018   1.000000
   24       -8.720598   1.000000
   25       -8.636200   1.000000
   26       -8.608558   1.000000
   27       -8.458338   1.000000
   28       -8.372265   1.000000
   29       -8.330716   1.000000
   30       -8.209130   1.000000
   31       -8.093968   1.000000
   32       -8.025080   1.000000
   33       -7.918995   1.000000
   34       -7.871400   1.000000
   35       -7.700887   1.000000
   36       -7.658503   1.000000
   37       -7.601923   1.000000
   38       -7.529331   1.000000
   39       -7.488919   1.000000
   40       -7.346170   1.000000
   41       -7.311044   1.000000
   42       -7.189348   1.000000
   43       -7.112679   1.000000
   44       -7.010461   1.000000
   45       -6.949112   1.000000
   46       -6.833381   1.000000
   47       -6.766638   1.000000
   48       -6.624665   1.000000
   49       -6.561130   1.000000
   50       -6.483773   1.000000
   51       -6.459580   1.000000
   52       -6.378418   1.000000
   53       -6.332646   1.000000
   54       -6.277158   1.000000
   55       -6.154219   1.000000
   56       -6.093639   1.000000
   57       -5.944938   1.000000
   58       -5.922620   1.000000
   59       -5.721295   1.000000
   60       -5.679139   1.000000
   61       -5.562213   1.000000
   62       -5.504401   1.000000
   63       -5.429563   1.000000
   64       -5.280216   1.000000
   65       -5.208308   1.000000
   66       -5.122807   1.000000
   67       -4.920463   1.000000
   68       -4.853297   1.000000
   69       -4.734366   1.000000
   70       -4.632543   1.000000
   71       -4.560154   1.000000
   72       -4.496418   1.000000
   73       -4.384609   1.000000
   74       -4.242562   1.000000
   75       -4.162766   1.000000
   76       -4.118224   1.000000
   77       -3.946423   0.999992
   78       -3.886767   0.999950
   79       -3.514700   0.895856
   80       -3.341172   0.512469
   81       -3.147079   0.089930
   82       -2.805213   0.000085
   83       -2.689528   0.000002
   84       -2.607206   0.000000
   85       -2.425943   0.000000
   86       -2.401747   0.000000
   87       -2.275598   0.000000
   88       -2.244391   0.000000
   89       -2.172704   0.000000
   90       -2.130353   0.000000
   91       -1.949171   0.000000
   92       -1.423747   0.000000
   93       -1.364321   0.000000
   94       -1.244060   0.000000
   95       -1.172012   0.000000
   96       -1.096971   0.000000
   97       -0.985811   0.000000
   98       -0.928063   0.000000
   99       -0.859733   0.000000
  100       -0.827363   0.000000
  101       -0.714048   0.000000
  102       -0.607122   0.000000
  103       -0.536785   0.000000
  104       -0.456616   0.000000
  105       -0.342870   0.000000
  106       -0.182696   0.000000
  107       -0.142348   0.000000
  108       -0.090814   0.000000
  109        0.112088   0.000000
  110        0.240210   0.000000
  111        0.423476   0.000000
  112        0.513469   0.000000
  113        0.691825   0.000000
  114        0.771402   0.000000
  115        0.991982   0.000000
  116        1.139097   0.000000
  117        1.299110   0.000000
  118        1.762416   0.000000
  119        1.950426   0.000000
  120        2.250587   0.000000
 
  0.2500000E+00  0.1250000E+00  0.0000000E+00  0.3125000E-01
    1      -17.637754   1.000000
    2      -17.081160   1.000000
    3      -16.879897   1.000000
    4      -16.665690   1.000000
    5      -16.461674   1.000000
    6      -16.423888   1.000000
    7      -16.300738   1.000000
    8      -16.281425   1.000000
    9      -16.211292   1.000000
   10      -16.077113   1.000000
   11      -15.940768   1.000000
   12      -15.832816   1.000000
   13      -15.749342   1.000000
   14      -15.677751   1.000000
   15      -15.632228   1.000000
   16      -15.501101   1.000000
   17      -15.353853   1.000000
   18      -15.259012   1.000000
   19       -9.612209   1.000000
   20       -9.392655   1.000000
   21       -9.285110   1.000000
   22       -9.038413   1.000000
   23       -8.856208   1.000000
   24       -8.654112   1.000000
   25       -8.605518   1.000000
   26       -8.484174   1.000000
   27       -8.431957   1.000000
   28       -8.391325   1.000000
   29       -8.291120   1.000000
   30       -8.218168   1.000000
   31       -8.109130   1.000000
   32       -8.050012   1.000000
   33       -7.952906   1.000000
   34       -7.889995   1.000000
   35       -7.726815   1.000000
   36       -7.616026   1.000000
   37       -7.523557   1.000000
   38       -7.422055   1.000000
   39       -7.387303   1.000000
   40       -7.339254   1.000000
   41       -7.233805   1.000000
   42       -7.110133   1.000000
   43       -7.058341   1.000000
   44       -6.977371   1.000000
   45       -6.937721   1.000000
   46       -6.827297   1.000000
   47       -6.749728   1.000000