       N       E                     dE             d eps       ncg     rms          rms(c)
DAV:   1     0.112373698978E+04    0.11237E+04   -0.35859E+04  8160   0.577E+02
DAV:   2    -0.421474559735E+01   -0.11280E+04   -0.10873E+04 11360   0.173E+02
DAV:   3    -0.199982616270E+03   -0.19577E+03   -0.18831E+03 10920   0.818E+01
DAV:   4    -0.209045974912E+03   -0.90634E+01   -0.87783E+01 12200   0.259E+01
DAV:   5    -0.209355756368E+03   -0.30978E+00   -0.30892E+00 11480   0.352E+00    0.277E+01
DAV:   6    -0.240937997336E+03   -0.31582E+02   -0.11687E+02 12520   0.599E+01    0.606E+01
DAV:   7    -0.196274447970E+03    0.44664E+02   -0.17770E+02 13240   0.151E+02    0.199E+01
DAV:   8    -0.189532291803E+03    0.67422E+01   -0.18755E+01 11960   0.128E+01    0.126E+01
DAV:   9    -0.188083459983E+03    0.14488E+01   -0.31489E+00 12680   0.623E+00    0.892E+00
DAV:  10    -0.186929182364E+03    0.11543E+01   -0.16057E+00 13440   0.744E+00    0.205E+00
DAV:  11    -0.187078892160E+03   -0.14971E+00   -0.66234E-01 13400   0.398E+00    0.463E+00
DAV:  12    -0.186924328220E+03    0.15456E+00   -0.65035E-01 12840   0.441E+00    0.282E+00
DAV:  13    -0.186855506770E+03    0.68821E-01   -0.18187E-01 13080   0.226E+00    0.148E+00
DAV:  14    -0.186843048802E+03    0.12458E-01   -0.91254E-02 12840   0.169E+00    0.134E+00
DAV:  15    -0.186829682179E+03    0.13367E-01   -0.35191E-02 13200   0.891E-01    0.478E-01
DAV:  16    -0.186827448600E+03    0.22336E-02   -0.74030E-03 12400   0.281E-01    0.277E-01
DAV:  17    -0.186826129112E+03    0.13195E-02   -0.48004E-03 12680   0.290E-01    0.207E-01
DAV:  18    -0.186825630303E+03    0.49881E-03   -0.17055E-03 12720   0.200E-01    0.711E-02
DAV:  19    -0.186826277969E+03   -0.64767E-03   -0.89290E-04 10440   0.986E-02    0.763E-02
DAV:  20    -0.186826743068E+03   -0.46510E-03   -0.28154E-04  7520   0.460E-02    0.683E-02
DAV:  21    -0.186827808779E+03   -0.10657E-02   -0.27531E-04  7480   0.541E-02    0.194E-02
DAV:  22    -0.186828899739E+03   -0.10910E-02   -0.11016E-04  8080   0.244E-02    0.207E-02
DAV:  23    -0.186829367639E+03   -0.46790E-03   -0.31516E-05  6200   0.174E-02    0.107E-02
DAV:  24    -0.186830013627E+03   -0.64599E-03   -0.39026E-05  7160   0.158E-02    0.653E-03
DAV:  25    -0.186830363473E+03   -0.34985E-03   -0.90959E-06  6400   0.101E-02    0.288E-03
DAV:  26    -0.186830607647E+03   -0.24417E-03   -0.75094E-06  6800   0.630E-03    0.184E-03
DAV:  27    -0.186830677090E+03   -0.69443E-04   -0.24896E-06  7520   0.415E-03
   1 F= -.18683068E+03 E0= -.18665776E+03  d E =-.186831E+03
       N       E                     dE             d eps       ncg     rms          rms(c)
DAV:   1    -0.187522429007E+03   -0.69182E+00   -0.27747E+02  8160   0.354E+01    0.466E+00
DAV:   2    -0.189507585882E+03   -0.19852E+01   -0.20315E+01 12240   0.155E+01    0.938E+00
DAV:   3    -0.189349600341E+03    0.15799E+00   -0.40735E+00 12560   0.122E+01    0.651E+00
DAV:   4    -0.188772699763E+03    0.57690E+00   -0.67239E-01 12800   0.449E+00    0.171E+00
DAV:   5    -0.188730566987E+03    0.42133E-01   -0.28292E-01 10440   0.158E+00    0.174E+00
DAV:   6    -0.188779282867E+03   -0.48716E-01   -0.33326E-01 13280   0.300E+00    0.318E+00
DAV:   7    -0.188712169375E+03    0.67113E-01   -0.19532E-01 12800   0.254E+00    0.137E+00
DAV:   8    -0.188688904384E+03    0.23265E-01   -0.43458E-02 11480   0.915E-01    0.459E-01
DAV:   9    -0.188689930339E+03   -0.10260E-02   -0.12161E-02 12520   0.567E-01    0.558E-01
DAV:  10    -0.188687831016E+03    0.20993E-02   -0.62182E-03 13120   0.405E-01    0.177E-01
DAV:  11    -0.188687346900E+03    0.48412E-03   -0.15720E-03 11560   0.123E-01    0.795E-02
DAV:  12    -0.188687431739E+03   -0.84840E-04   -0.52985E-04 10080   0.630E-02
   2 F= -.18868743E+03 E0= -.18854508E+03  d E =-.185675E+01
       N       E                     dE             d eps       ncg     rms          rms(c)
DAV:   1    -0.190627794348E+03   -0.19404E+01   -0.31771E+01  9200   0.143E+01    0.444E+00
DAV:   2    -0.190546476519E+03    0.81318E-01   -0.27599E+00 11640   0.910E+00    0.714E+00
DAV:   3    -0.190123536037E+03    0.42294E+00   -0.15130E+00 12440   0.840E+00    0.432E+00
DAV:   4    -0.189895685291E+03    0.22785E+00   -0.72130E-01 12680   0.437E+00    0.242E+00
DAV:   5    -0.189812307559E+03    0.83378E-01   -0.29913E-01 11880   0.203E+00    0.109E+00
DAV:   6    -0.189800286483E+03    0.12021E-01   -0.62031E-02 11920   0.133E+00    0.918E-01
DAV:   7    -0.189793994272E+03    0.62922E-02   -0.17646E-02 11640   0.732E-01    0.246E-01
DAV:   8    -0.189793666270E+03    0.32800E-03   -0.22352E-03 11560   0.160E-01    0.132E-01
DAV:   9    -0.189794179505E+03   -0.51323E-03   -0.11160E-03 10720   0.126E-01    0.169E-01
DAV:  10    -0.189793999293E+03    0.18021E-03   -0.10876E-03 10720   0.183E-01    0.157E-01
DAV:  11    -0.189793820155E+03    0.17914E-03   -0.42520E-04  8880   0.127E-01    0.331E-02
DAV:  12    -0.189793823547E+03   -0.33925E-05   -0.44037E-05  5960   0.291E-02
   3 F= -.18979382E+03 E0= -.18967216E+03  d E =-.110639E+01
       N       E                     dE             d eps       ncg     rms          rms(c)
DAV:   1    -0.191407855326E+03   -0.16140E+01   -0.83542E+01  8160   0.207E+01    0.459E+00
DAV:   2    -0.191159239171E+03    0.24862E+00   -0.53749E+00 12880   0.677E+00    0.378E+00
DAV:   3    -0.191375260428E+03   -0.21602E+00   -0.14883E+00 12240   0.849E+00    0.670E+00
DAV:   4    -0.190984641249E+03    0.39062E+00   -0.13505E+00 12240   0.812E+00    0.295E+00
DAV:   5    -0.190858670642E+03    0.12597E+00   -0.32007E-01 12200   0.255E+00    0.121E+00
DAV:   6    -0.190859985165E+03   -0.13145E-02   -0.12947E-01 12160   0.214E+00    0.169E+00
DAV:   7    -0.190838540953E+03    0.21444E-01   -0.67543E-02 11720   0.162E+00    0.543E-01
DAV:   8    -0.190834707671E+03    0.38333E-02   -0.79106E-03 11600   0.461E-01    0.268E-01
DAV:   9    -0.190834666965E+03    0.40706E-04   -0.27991E-03 12760   0.330E-01    0.244E-01
DAV:  10    -0.190834461702E+03    0.20526E-03   -0.19720E-03 11080   0.219E-01    0.608E-02
DAV:  11    -0.190834459825E+03    0.18772E-05   -0.20543E-04  7160   0.579E-02
   4 F= -.19083446E+03 E0= -.19072661E+03  d E =-.104064E+01
       N       E                     dE             d eps       ncg     rms          rms(c)
DAV:   1    -0.192264692548E+03   -0.14302E+01   -0.19444E+02  8160   0.309E+01    0.584E+00
DAV:   2    -0.191972826301E+03    0.29187E+00   -0.10052E+01  9960   0.767E+00    0.325E+00
DAV:   3    -0.191847958159E+03    0.12487E+00   -0.15539E+00 10880   0.498E+00    0.361E+00
DAV:   4    -0.191864031502E+03   -0.16073E-01   -0.96238E-01 12160   0.704E+00    0.499E+00
DAV:   5    -0.191612554589E+03    0.25148E+00   -0.73275E-01 12320   0.571E+00    0.183E+00
DAV:   6    -0.191610988135E+03    0.15665E-02   -0.23240E-01 12240   0.296E+00    0.193E+00
DAV:   7    -0.191575509075E+03    0.35479E-01   -0.93998E-02 12280   0.204E+00    0.570E-01
DAV:   8    -0.191571707371E+03    0.38017E-02   -0.17169E-02 11560   0.706E-01    0.473E-01
DAV:   9    -0.191570228192E+03    0.14792E-02   -0.68615E-03 11920   0.503E-01    0.240E-01
DAV:  10    -0.191570067308E+03    0.16088E-03   -0.24617E-03 11600   0.227E-01    0.888E-02
DAV:  11    -0.191570020867E+03    0.46441E-04   -0.40985E-04  9680   0.832E-02
   5 F= -.19157002E+03 E0= -.19146203E+03  d E =-.735561E+00
       N       E                     dE             d eps       ncg     rms          rms(c)
DAV:   1    -0.191645410740E+03   -0.75343E-01   -0.54923E+00  8160   0.500E+00    0.769E-01
DAV:   2    -0.191722876065E+03   -0.77465E-01   -0.36108E-01 12480   0.328E+00    0.261E+00
DAV:   3    -0.191656508609E+03    0.66367E-01   -0.14300E-01 12480   0.253E+00    0.532E-01
DAV:   4    -0.191661200838E+03   -0.46922E-02   -0.29893E-02 10680   0.111E+00    0.910E-01
DAV:   5    -0.191652188970E+03    0.90119E-02   -0.16069E-02 10760   0.862E-01    0.229E-01
DAV:   6    -0.191651766863E+03    0.42211E-03   -0.45749E-03 11240   0.250E-01    0.126E-01
DAV:   7    -0.191651554552E+03    0.21231E-03   -0.13567E-03 10960   0.172E-01    0.130E-01
DAV:   8    -0.191651452595E+03    0.10196E-03   -0.60621E-04  8640   0.145E-01    0.713E-02
DAV:   9    -0.191651418579E+03    0.34016E-04   -0.11808E-04  6000   0.606E-02
   6 F= -.19165142E+03 E0= -.19154196E+03  d E =-.813977E-01
       N       E                     dE             d eps       ncg     rms          rms(c)
DAV:   1    -0.191728926325E+03   -0.77474E-01   -0.65126E+00  8160   0.538E+00    0.641E-01
DAV:   2    -0.191785060367E+03   -0.56134E-01   -0.24340E-01 13160   0.232E+00    0.226E+00
DAV:   3    -0.191737143844E+03    0.47917E-01   -0.11534E-01 12480   0.221E+00    0.533E-01
DAV:   4    -0.191738710870E+03   -0.15670E-02   -0.19265E-02 10480   0.868E-01    0.654E-01
DAV:   5    -0.191733898077E+03    0.48128E-02   -0.85852E-03 11080   0.668E-01    0.173E-01
DAV:   6    -0.191733677318E+03    0.22076E-03   -0.23743E-03 10560   0.190E-01    0.110E-01
DAV:   7    -0.191733564477E+03    0.11284E-03   -0.11678E-03 10960   0.158E-01    0.128E-01
DAV:   8    -0.191733472685E+03    0.91792E-04   -0.66294E-04  8560   0.150E-01
   7 F= -.19173347E+03 E0= -.19162349E+03  d E =-.820541E-01
       N       E                     dE             d eps       ncg     rms          rms(c)
DAV:   1    -0.191813407420E+03   -0.79843E-01   -0.69364E+00  8160   0.562E+00    0.768E-01
DAV:   2    -0.191906075524E+03   -0.92668E-01   -0.36699E-01 12160   0.331E+00    0.306E+00
DAV:   3    -0.191822503162E+03    0.83572E-01   -0.18409E-01 12440   0.276E+00    0.508E-01
DAV:   4    -0.191825006000E+03   -0.25028E-02   -0.22199E-02 10240   0.100E+00    0.730E-01
DAV:   5    -0.191818827872E+03    0.61781E-02   -0.11785E-02 11360   0.797E-01    0.230E-01
DAV:   6    -0.191818936157E+03   -0.10829E-03   -0.52176E-03 11400   0.344E-01    0.300E-01
DAV:   7    -0.191819088906E+03   -0.15275E-03   -0.59633E-03 11400   0.451E-01    0.346E-01
DAV:   8    -0.191817926069E+03    0.11628E-02   -0.22147E-03 10120   0.259E-01    0.300E-02
DAV:   9    -0.191817952140E+03   -0.26071E-04   -0.11785E-04  6280   0.338E-02
   8 F= -.19181795E+03 E0= -.19170894E+03  d E =-.844795E-01
       N       E                     dE             d eps       ncg     rms          rms(c)
DAV:   1    -0.191921558351E+03   -0.10363E+00   -0.26198E+01  8160   0.109E+01    0.130E+00
DAV:   2    -0.192151995966E+03   -0.23044E+00   -0.11071E+00 11200   0.511E+00    0.466E+00
DAV:   3    -0.191966864735E+03    0.18513E+00   -0.47539E-01 12360   0.446E+00    0.883E-01
DAV:   4    -0.191957847482E+03    0.90173E-02   -0.33145E-02 12240   0.944E-01    0.617E-01
DAV:   5    -0.191956934697E+03    0.91279E-03   -0.22444E-02 11480   0.114E+00    0.699E-01
DAV:   6    -0.191954247596E+03    0.26871E-02   -0.21619E-02 12600   0.942E-01    0.544E-01
DAV:   7    -0.191955108162E+03   -0.86057E-03   -0.18617E-02 11800   0.818E-01    0.664E-01
DAV:   8    -0.191950902041E+03    0.42061E-02   -0.76467E-03 11840   0.523E-01    0.591E-02
DAV:   9    -0.191950932274E+03   -0.30234E-04   -0.48615E-04 10160   0.678E-02
   9 F= -.19195093E+03 E0= -.19184715E+03  d E =-.132980E+00
       N       E                     dE             d eps       ncg     rms          rms(c)
DAV:   1    -0.191964341652E+03   -0.13440E-01   -0.53848E-01  8160   0.167E+00    0.330E-01
DAV:   2    -0.191964061249E+03    0.28040E-03   -0.27320E-02 10520   0.654E-01    0.400E-01
DAV:   3    -0.191963759649E+03    0.30160E-03   -0.93393E-03 11520   0.711E-01    0.384E-01
DAV:   4    -0.191962379958E+03    0.13797E-02   -0.55106E-03 11560   0.480E-01    0.283E-01
DAV:   5    -0.191962369420E+03    0.10539E-04   -0.38350E-03 11360   0.433E-01    0.294E-01
DAV:   6    -0.191961417922E+03    0.95150E-03   -0.19731E-03 11160   0.294E-01    0.742E-02
DAV:   7    -0.191961522963E+03   -0.10504E-03   -0.62029E-04  8720   0.147E-01    0.131E-01
DAV:   8    -0.191961368248E+03    0.15472E-03   -0.28607E-04  7400   0.106E-01    0.189E-02
DAV:   9    -0.191961372846E+03   -0.45983E-05   -0.22991E-05  6600   0.198E-02
  10 F= -.19196137E+03 E0= -.19185766E+03  d E =-.104406E-01
       N       E                     dE             d eps       ncg     rms          rms(c)
DAV:   1    -0.191990064963E+03   -0.28697E-01   -0.18440E+00  8160   0.287E+00    0.323E-01
DAV:   2    -0.191998833539E+03   -0.87686E-02   -0.65224E-02 10680   0.997E-01    0.765E-01
DAV:   3    -0.191994004293E+03    0.48292E-02   -0.17430E-02 12600   0.918E-01    0.344E-01
DAV:   4    -0.191992992741E+03    0.10116E-02   -0.30610E-03 11400   0.322E-01    0.169E-01
DAV:   5    -0.191992919526E+03    0.73215E-04   -0.17221E-03 11400   0.307E-01    0.180E-01
DAV:   6    -0.191992698067E+03    0.22146E-03   -0.11630E-03 10720   0.233E-01    0.114E-01
DAV:   7    -0.191992865827E+03   -0.16776E-03   -0.11584E-03 10000   0.207E-01    0.193E-01
DAV:   8    -0.191992529588E+03    0.33624E-03   -0.59142E-04  8400   0.150E-01    0.191E-02
DAV:   9    -0.191992543857E+03   -0.14269E-04   -0.37237E-05  5840   0.222E-02
  11 F= -.19199254E+03 E0= -.19189095E+03  d E =-.311710E-01
       N       E                     dE             d eps       ncg     rms          rms(c)
DAV:   1    -0.192013020851E+03   -0.20491E-01   -0.78174E-01  8160   0.190E+00    0.230E-01
DAV:   2    -0.192015488054E+03   -0.24672E-02   -0.27407E-02 11600   0.573E-01    0.401E-01
DAV:   3    -0.192014681788E+03    0.80627E-03   -0.65325E-03 12680   0.559E-01    0.289E-01
DAV:   4    -0.192013821663E+03    0.86013E-03   -0.18256E-03 11200   0.262E-01    0.105E-01
DAV:   5    -0.192014036288E+03   -0.21463E-03   -0.12036E-03 10440   0.215E-01    0.211E-01
DAV:   6    -0.192013737047E+03    0.29924E-03   -0.12007E-03  9240   0.210E-01    0.947E-02
DAV:   7    -0.192013707599E+03    0.29448E-04   -0.31996E-04  8600   0.126E-01
  12 F= -.19201371E+03 E0= -.19191368E+03  d E =-.211637E-01
       N       E                     dE             d eps       ncg     rms          rms(c)
DAV:   1    -0.192023763877E+03   -0.10027E-01   -0.17934E-01  8160   0.915E-01    0.105E-01
DAV:   2    -0.192024125781E+03   -0.36190E-03   -0.55422E-03 11960   0.210E-01    0.117E-01
DAV:   3    -0.192024287878E+03   -0.16210E-03   -0.11649E-03 11120   0.243E-01    0.182E-01
DAV:   4    -0.192023973064E+03    0.31481E-03   -0.56474E-04  8640   0.166E-01    0.524E-02
DAV:   5    -0.192024007187E+03   -0.34124E-04   -0.21044E-04  6920   0.939E-02
  13 F= -.19202401E+03 E0= -.19192471E+03  d E =-.102996E-01
       N       E                     dE             d eps       ncg     rms          rms(c)
DAV:   1    -0.192013898073E+03    0.10075E-01   -0.29303E-01  8160   0.120E+00    0.200E-01
DAV:   2    -0.192017039589E+03   -0.31415E-02   -0.15542E-02 12680   0.597E-01    0.643E-01
DAV:   3    -0.192013827188E+03    0.32124E-02   -0.93136E-03 11040   0.585E-01    0.199E-01
DAV:   4    -0.192013480522E+03    0.34667E-03   -0.13369E-03  9680   0.171E-01    0.913E-02
DAV:   5    -0.192013546302E+03   -0.65780E-04   -0.83680E-04 10080   0.181E-01
  14 F= -.19201355E+03 E0= -.19191281E+03  d E =0.104609E-01
       N       E                     dE             d eps       ncg     rms          rms(c)
DAV:   1    -0.192060611158E+03   -0.47131E-01   -0.35121E+00  8160   0.409E+00    0.530E-01
DAV:   2    -0.192070433312E+03   -0.98222E-02   -0.11596E-01 11880   0.123E+00    0.976E-01
DAV:   3    -0.192066049757E+03    0.43836E-02   -0.37083E-02 11520   0.126E+00    0.682E-01
DAV:   4    -0.192063077660E+03    0.29721E-02   -0.14854E-02 12240   0.740E-01    0.503E-01
DAV:   5    -0.192061877195E+03    0.12005E-02   -0.10024E-02 10040   0.662E-01    0.424E-01
DAV:   6    -0.192060408240E+03    0.14690E-02   -0.52739E-03 11400   0.439E-01    0.186E-01
DAV:   7    -0.192060431032E+03   -0.22792E-04   -0.20328E-03 10280   0.348E-01    0.182E-01
DAV:   8    -0.192059976304E+03    0.45473E-03   -0.59292E-04  9840   0.195E-01    0.297E-02
DAV:   9    -0.192059965800E+03    0.10503E-04   -0.66944E-05  6240   0.327E-02
  15 F= -.19205997E+03 E0= -.19196328E+03  d E =-.464195E-01
       N       E                     dE             d eps       ncg     rms          rms(c)
DAV:   1    -0.192075494504E+03   -0.15518E-01   -0.36686E-01  8160   0.130E+00    0.146E-01
DAV:   2    -0.192076139107E+03   -0.64460E-03   -0.11089E-02 11400   0.284E-01    0.141E-01
DAV:   3    -0.192076743770E+03   -0.60466E-03   -0.26703E-03 11480   0.321E-01    0.311E-01
DAV:   4    -0.192075899849E+03    0.84392E-03   -0.17271E-03  9760   0.256E-01    0.705E-02
DAV:   5    -0.192075905441E+03   -0.55918E-05   -0.28327E-04  7560   0.947E-02
  16 F= -.19207591E+03 E0= -.19198064E+03  d E =-.159396E-01
       N       E                     dE             d eps       ncg     rms          rms(c)
DAV:   1    -0.191990899317E+03    0.85001E-01   -0.99321E+00  8160   0.680E+00    0.761E-01
DAV:   2    -0.192010212150E+03   -0.19313E-01   -0.30005E-01 12240   0.161E+00    0.885E-01
DAV:   3    -0.192020908559E+03   -0.10696E-01   -0.75483E-02 12320   0.171E+00    0.154E+00
DAV:   4    -0.192004135515E+03    0.16773E-01   -0.49033E-02 12120   0.132E+00    0.603E-01
DAV:   5    -0.192001578733E+03    0.25568E-02   -0.13848E-02 10360   0.870E-01    0.422E-01
DAV:   6    -0.192000140966E+03    0.14378E-02   -0.68027E-03 13400   0.547E-01    0.207E-01
DAV:   7    -0.191999291488E+03    0.84948E-03   -0.18185E-03 10840   0.195E-01    0.536E-02
DAV:   8    -0.191999325252E+03   -0.33764E-04   -0.31695E-04  9120   0.102E-01
  17 F= -.19199933E+03 E0= -.19189831E+03  d E =0.765802E-01
       N       E                     dE             d eps       ncg     rms          rms(c)
DAV:   1    -0.191986014258E+03    0.13277E-01   -0.76384E-01  8160   0.189E+00    0.212E-01
DAV:   2    -0.191986866234E+03   -0.85198E-03   -0.18331E-02 12520   0.372E-01    0.188E-01
DAV:   3    -0.191987960564E+03   -0.10943E-02   -0.49252E-03 12200   0.428E-01    0.417E-01
DAV:   4    -0.191986589602E+03    0.13710E-02   -0.38092E-03 10240   0.371E-01    0.159E-01
DAV:   5    -0.191986562060E+03    0.27542E-04   -0.12211E-03 10000   0.224E-01    0.158E-01
DAV:   6    -0.191986384818E+03    0.17724E-03   -0.75348E-04  9400   0.189E-01    0.885E-02
DAV:   7    -0.191986403337E+03   -0.18519E-04   -0.38974E-04  8560   0.144E-01
  18 F= -.19198640E+03 E0= -.19188330E+03  d E =0.129219E-01
       N       E                     dE             d eps       ncg     rms          rms(c)
DAV:   1    -0.191979600315E+03    0.67845E-02   -0.22940E+00  8160   0.324E+00    0.340E-01
DAV:   2    -0.191983815863E+03   -0.42155E-02   -0.67732E-02 12200   0.696E-01    0.246E-01
DAV:   3    -0.191985315371E+03   -0.14995E-02   -0.96952E-03 12800   0.514E-01    0.537E-01
DAV:   4    -0.191983419890E+03    0.18955E-02   -0.81509E-03 11080   0.531E-01    0.272E-01
DAV:   5    -0.191982673269E+03    0.74662E-03   -0.22644E-03 10160   0.228E-01    0.980E-02
DAV:   6    -0.191982923279E+03   -0.25001E-03   -0.11549E-03 10640   0.223E-01    0.171E-01
DAV:   7    -0.191982571112E+03    0.35217E-03   -0.52908E-04  9000   0.182E-01    0.326E-02
DAV:   8    -0.191982589368E+03   -0.18256E-04   -0.78358E-05  6040   0.635E-02
  19 F= -.19198259E+03 E0= -.19187807E+03  d E =0.381397E-02
       N       E                     dE             d eps       ncg     rms          rms(c)
DAV:   1    -0.192000420625E+03   -0.17850E-01   -0.13688E+00  8160   0.255E+00    0.367E-01
DAV:   2    -0.192008584451E+03   -0.81638E-02   -0.55995E-02 13040   0.108E+00    0.923E-01
DAV:   3    -0.192001380459E+03    0.72040E-02   -0.19677E-02 12000   0.981E-01    0.313E-01
DAV:   4    -0.192000460084E+03    0.92037E-03   -0.34901E-03 11480   0.360E-01    0.209E-01
DAV:   5    -0.192000526601E+03   -0.66517E-04   -0.29512E-03 10880   0.395E-01    0.270E-01
DAV:   6    -0.192000157178E+03    0.36942E-03   -0.28145E-03 11280   0.317E-01    0.215E-01
DAV:   7    -0.191999913219E+03    0.24396E-03   -0.14409E-03  9600   0.244E-01    0.119E-01
DAV:   8    -0.191999747930E+03    0.16529E-03   -0.28174E-04  7760   0.107E-01    0.181E-02
DAV:   9    -0.191999748975E+03   -0.10449E-05   -0.40916E-05  6640   0.230E-02
  20 F= -.19199975E+03 E0= -.19189661E+03  d E =-.171596E-01
       N       E                     dE             d eps       ncg     rms          rms(c)
DAV:   1    -0.192008049235E+03   -0.83013E-02   -0.32034E-01  8160   0.120E+00    0.139E-01
DAV:   2    -0.192009471276E+03   -0.14220E-02   -0.12393E-02 10360   0.424E-01    0.275E-01
DAV:   3    -0.192008912783E+03    0.55849E-03   -0.28070E-03 12520   0.381E-01    0.171E-01
DAV:   4    -0.192008832733E+03    0.80050E-04   -0.10159E-03  9480   0.198E-01    0.152E-01
DAV:   5    -0.192008650953E+03    0.18178E-03   -0.63929E-04  8520   0.168E-01    0.843E-02
DAV:   6    -0.192008697783E+03   -0.46830E-04   -0.38509E-04  8560   0.122E-01
  21 F= -.19200870E+03 E0= -.19190659E+03  d E =-.894881E-02
       N       E                     dE             d eps       ncg     rms          rms(c)
DAV:   1    -0.192022268028E+03   -0.13617E-01   -0.67431E-01  8160   0.177E+00    0.198E-01
DAV:   2    -0.192023656818E+03   -0.13888E-02   -0.18441E-02 12120   0.420E-01    0.289E-01
DAV:   3    -0.192023769941E+03   -0.11312E-03   -0.51238E-03 12600   0.468E-01    0.325E-01
DAV:   4    -0.192023140137E+03    0.62980E-03   -0.25160E-03 10120   0.302E-01    0.198E-01
DAV:   5    -0.192022886468E+03    0.25367E-03   -0.12426E-03  9520   0.250E-01    0.132E-01
DAV:   6    -0.192022872785E+03    0.13683E-04   -0.74407E-04  9280   0.169E-01
  22 F= -.19202287E+03 E0= -.19192203E+03  d E =-.141750E-01
       N       E                     dE             d eps       ncg     rms          rms(c)
DAV:   1    -0.192004554484E+03    0.18332E-01   -0.11589E+00  8160   0.232E+00    0.269E-01
DAV:   2    -0.192007784518E+03   -0.32300E-02   -0.32875E-02 13040   0.681E-01    0.478E-01
DAV:   3    -0.192006230087E+03    0.15544E-02   -0.90733E-03 11800   0.634E-01    0.341E-01
DAV:   4    -0.192006223689E+03    0.63984E-05   -0.51723E-03 11520   0.436E-01    0.352E-01
DAV:   5    -0.192005261615E+03    0.96207E-03   -0.32149E-03 10480   0.373E-01    0.171E-01
DAV:   6    -0.192005240567E+03    0.21048E-04   -0.14834E-03 10080   0.242E-01    0.179E-01
DAV:   7    -0.192005023851E+03    0.21672E-03   -0.88970E-04  9840   0.218E-01    0.836E-02
DAV:   8    -0.192004927409E+03    0.96442E-04   -0.14793E-04  5920   0.772E-02
  23 F= -.19200493E+03 E0= -.19190231E+03  d E =0.179454E-01
       N       E                     dE             d eps       ncg     rms          rms(c)
DAV:   1    -0.192027460588E+03   -0.22437E-01   -0.17116E+00  8160   0.286E+00    0.384E-01
DAV:   2    -0.192032805688E+03   -0.53451E-02   -0.59083E-02 12400   0.953E-01    0.745E-01
DAV:   3    -0.192029506704E+03    0.32990E-02   -0.18671E-02 11800   0.903E-01    0.455E-01
DAV:   4    -0.192029240735E+03    0.26597E-03   -0.91019E-03 12200   0.598E-01    0.482E-01
DAV:   5    -0.192027511984E+03    0.17288E-02   -0.66134E-03 10360   0.530E-01    0.270E-01
DAV:   6    -0.192027408183E+03    0.10380E-03   -0.31650E-03 11200   0.368E-01    0.249E-01
DAV:   7    -0.192026840071E+03    0.56811E-03   -0.15592E-03 10240   0.298E-01    0.796E-02
DAV:   8    -0.192026731025E+03    0.10905E-03   -0.16580E-04  6320   0.773E-02    0.196E-02
DAV:   9    -0.192026726929E+03    0.40963E-05   -0.52525E-05  8040   0.262E-02
  24 F= -.19202673E+03 E0= -.19192530E+03  d E =-.217995E-01
       N       E                     dE             d eps       ncg     rms          rms(c)
DAV:   1    -0.192031318260E+03   -0.45872E-02   -0.66711E-02  8160   0.555E-01    0.732E-02
DAV:   2    -0.192031633569E+03   -0.31531E-03   -0.26056E-03 10640   0.229E-01    0.160E-01
DAV:   3    -0.192031428015E+03    0.20555E-03   -0.77047E-04  8840   0.189E-01    0.875E-02
DAV:   4    -0.192031448547E+03   -0.20532E-04   -0.37232E-04  7760   0.125E-01
  25 F= -.19203145E+03 E0= -.19193027E+03  d E =-.472162E-02
       N       E                     dE             d eps       ncg     rms          rms(c)
DAV:   1    -0.192049918858E+03   -0.18491E-01   -0.93363E-01  8160   0.208E+00    0.244E-01
DAV:   2    -0.192051544811E+03   -0.16260E-02   -0.24450E-02 12200   0.486E-01    0.357E-01
DAV:   3    -0.192051944431E+03   -0.39962E-03   -0.82381E-03 12400   0.556E-01    0.431E-01
DAV:   4    -0.192050452161E+03    0.14923E-02   -0.34535E-03 11000   0.346E-01    0.147E-01
DAV:   5    -0.192050556954E+03   -0.10479E-03   -0.13277E-03 10160   0.280E-01    0.191E-01
DAV:   6    -0.192050290917E+03    0.26604E-03   -0.10599E-03 10160   0.234E-01    0.103E-01
DAV:   7    -0.192050256252E+03    0.34665E-04   -0.46028E-04  8400   0.153E-01
  26 F= -.19205026E+03 E0= -.19195042E+03  d E =-.188077E-01
       N       E                     dE             d eps       ncg     rms          rms(c)
DAV:   1    -0.192043293226E+03    0.69977E-02   -0.11281E-01  8160   0.739E-01    0.887E-02
DAV:   2    -0.192043801205E+03   -0.50798E-03   -0.36598E-03 13520   0.251E-01    0.230E-01
DAV:   3    -0.192043399626E+03    0.40158E-03   -0.13228E-03  9480   0.225E-01    0.926E-02
DAV:   4    -0.192043414921E+03   -0.15294E-04   -0.36884E-04  8200   0.131E-01
  27 F= -.19204341E+03 E0= -.19194354E+03  d E =0.684133E-02
       N       E                     dE             d eps       ncg     rms          rms(c)
DAV:   1    -0.192005250557E+03    0.38149E-01   -0.56042E+00  8160   0.511E+00    0.651E-01
DAV:   2    -0.192024087299E+03   -0.18837E-01   -0.17640E-01 13160   0.177E+00    0.130E+00
DAV:   3    -0.192013188915E+03    0.10898E-01   -0.56983E-02 11960   0.164E+00    0.782E-01
DAV:   4    -0.192013117655E+03    0.71260E-04   -0.26476E-02 11880   0.101E+00    0.848E-01
DAV:   5    -0.192007637112E+03    0.54805E-02   -0.20163E-02 12280   0.953E-01    0.459E-01
DAV:   6    -0.192007145322E+03    0.49179E-03   -0.83927E-03 11600   0.572E-01    0.382E-01
DAV:   7    -0.192005962085E+03    0.11832E-02   -0.44391E-03 12200   0.476E-01    0.164E-01
DAV:   8    -0.192005506135E+03    0.45595E-03   -0.85595E-04 10200   0.155E-01    0.335E-02
DAV:   9    -0.192005499294E+03    0.68411E-05   -0.97122E-05  7440   0.335E-02
  28 F= -.19200550E+03 E0= -.19190350E+03  d E =0.379156E-01
       N       E                     dE             d eps       ncg     rms          rms(c)
DAV:   1    -0.191997102546E+03    0.84036E-02   -0.76374E-01  8160   0.188E+00    0.206E-01
DAV:   2    -0.191998358974E+03   -0.12564E-02   -0.18615E-02 12080   0.413E-01    0.285E-01
DAV:   3    -0.191998761006E+03   -0.40203E-03   -0.57164E-03 12280   0.464E-01    0.365E-01
DAV:   4    -0.191997764218E+03    0.99679E-03   -0.29684E-03  9880   0.309E-01    0.167E-01
DAV:   5    -0.191997714548E+03    0.49670E-04   -0.12639E-03  9720   0.241E-01    0.161E-01
DAV:   6    -0.191997524963E+03    0.18959E-03   -0.62071E-04  8960   0.158E-01    0.583E-02
DAV:   7    -0.191997480357E+03    0.44605E-04   -0.14517E-04  6560   0.705E-02
  29 F= -.19199748E+03 E0= -.19189481E+03  d E =0.801894E-02
       N       E                     dE             d eps       ncg     rms          rms(c)
DAV:   1    -0.191998287989E+03   -0.76303E-03   -0.13482E+00  8160   0.252E+00    0.328E-01
DAV:   2    -0.191999698806E+03   -0.14108E-02   -0.44513E-02 12320   0.623E-01    0.272E-01
DAV:   3    -0.192001232764E+03   -0.15340E-02   -0.91496E-03 12240   0.642E-01    0.530E-01
DAV:   4    -0.191999282390E+03    0.19504E-02   -0.89525E-03 11560   0.586E-01    0.326E-01
DAV:   5    -0.191998960307E+03    0.32208E-03   -0.41524E-03 10800   0.410E-01    0.259E-01
DAV:   6    -0.191998355262E+03    0.60504E-03   -0.19739E-03 10720   0.299E-01    0.117E-01
DAV:   7    -0.191998401194E+03   -0.45931E-04   -0.78647E-04  9200   0.200E-01
  30 F= -.19199840E+03 E0= -.19189604E+03  d E =-.920836E-03
       N       E                     dE             d eps       ncg     rms          rms(c)
DAV:   1    -0.191999554352E+03   -0.11991E-02   -0.70530E-01  8160   0.180E+00    0.194E-01
DAV:   2    -0.192000899904E+03   -0.13456E-02   -0.18284E-02 13280   0.419E-01    0.235E-01
DAV:   3    -0.192001226330E+03   -0.32643E-03   -0.39163E-03 12320   0.450E-01    0.318E-01
DAV:   4    -0.192000281531E+03    0.94480E-03   -0.17007E-03  9800   0.292E-01    0.944E-02
DAV:   5    -0.192000258276E+03    0.23255E-04   -0.60992E-04  9320   0.127E-01
  31 F= -.19200026E+03 E0= -.19189756E+03  d E =-.185708E-02
       N       E                     dE             d eps       ncg     rms          rms(c)
DAV:   1    -0.192002925755E+03   -0.26442E-02   -0.49905E-01  8160   0.154E+00    0.234E-01
DAV:   2    -0.192012960033E+03   -0.10034E-01   -0.32931E-02 12480   0.935E-01    0.111E+00
DAV:   3    -0.192003201503E+03    0.97585E-02   -0.21425E-02 10440   0.856E-01    0.170E-01
DAV:   4    -0.192003289647E+03   -0.88144E-04   -0.18583E-03 10280   0.262E-01    0.182E-01
DAV:   5    -0.192003017965E+03    0.27168E-03   -0.10688E-03 10360   0.239E-01    0.120E-01
DAV:   6    -0.192002926361E+03    0.91603E-04   -0.54419E-04  8760   0.155E-01
  32 F= -.19200293E+03 E0= -.19190026E+03  d E =-.266809E-02
       N       E                     dE             d eps       ncg     rms          rms(c)
DAV:   1    -0.192007240248E+03   -0.42223E-02   -0.27798E-01  8160   0.115E+00    0.165E-01
DAV:   2    -0.192008068973E+03   -0.82872E-03   -0.10266E-02 13320   0.426E-01    0.278E-01
DAV:   3    -0.192007487891E+03    0.58108E-03   -0.31187E-03 11640   0.396E-01    0.187E-01
DAV:   4    -0.192007653752E+03   -0.16586E-03   -0.21712E-03 10200   0.273E-01    0.255E-01
DAV:   5    -0.192007119752E+03    0.53400E-03   -0.14864E-03  9440   0.244E-01    0.882E-02
DAV:   6    -0.192007081697E+03    0.38055E-04   -0.38369E-04  7960   0.107E-01
  33 F= -.19200708E+03 E0= -.19190434E+03  d E =-.415534E-02
       N       E                     dE             d eps       ncg     rms          rms(c)
DAV:   1    -0.192010088085E+03   -0.29683E-02   -0.13672E-01  8160   0.797E-01    0.101E-01
DAV:   2    -0.192010929610E+03   -0.84153E-03   -0.49003E-03 13040   0.317E-01    0.275E-01
DAV:   3    -0.192010253390E+03    0.67622E-03   -0.17401E-03 10280   0.291E-01    0.946E-02
DAV:   4    -0.192010303584E+03   -0.50194E-04   -0.49493E-04  8240   0.127E-01
  34 F= -.19201030E+03 E0= -.19190732E+03  d E =-.322189E-02
       N       E                     dE             d eps       ncg     rms          rms(c)
DAV:   1    -0.192012419343E+03   -0.21660E-02   -0.66861E-02  8160   0.567E-01    0.984E-02
DAV:   2    -0.192013751489E+03   -0.13321E-02   -0.42422E-03 13480   0.342E-01    0.391E-01
DAV:   3    -0.192012437141E+03    0.13143E-02   -0.29198E-03  9960   0.334E-01    0.888E-02
DAV:   4    -0.192012530557E+03   -0.93416E-04   -0.46400E-04  8320   0.131E-01
  35 F= -.19201253E+03 E0= -.19191015E+03  d E =-.222697E-02
       N       E                     dE             d eps       ncg     rms          rms(c)
DAV:   1    -0.192011760626E+03    0.67652E-03   -0.81220E-03  8960   0.228E-01    0.527E-02
DAV:   2    -0.192012390612E+03   -0.62999E-03   -0.14431E-03 10520   0.258E-01    0.249E-01
DAV:   3    -0.192011748487E+03    0.64213E-03   -0.87609E-04  8960   0.221E-01    0.340E-02
DAV:   4    -0.192011762162E+03   -0.13676E-04   -0.75948E-05  5920   0.468E-02
  36 F= -.19201176E+03 E0= -.19190892E+03  d E =0.768395E-03
       N       E                     dE             d eps       ncg     rms          rms(c)
DAV:   1    -0.192009813517E+03    0.19350E-02   -0.10728E-01  8160   0.701E-01    0.111E-01
DAV:   2    -0.192011618405E+03   -0.18049E-02   -0.58270E-03 12800   0.481E-01    0.421E-01
DAV:   3    -0.192009820995E+03    0.17974E-02   -0.27618E-03 11240   0.403E-01    0.662E-02
DAV:   4    -0.192009850607E+03   -0.29612E-04   -0.25007E-04  8280   0.113E-01
  37 F= -.19200985E+03 E0= -.19190703E+03  d E =0.191155E-02
       N       E                     dE             d eps       ncg     rms          rms(c)
DAV:   1    -0.192014750406E+03   -0.49294E-02   -0.35997E-01  8160   0.129E+00    0.158E-01
DAV:   2    -0.192018066210E+03   -0.33158E-02   -0.13733E-02 13600   0.621E-01    0.559E-01
DAV:   3    -0.192015149558E+03    0.29167E-02   -0.58247E-03 11360   0.539E-01    0.127E-01
DAV:   4    -0.192015406094E+03   -0.25654E-03   -0.12973E-03  9160   0.221E-01    0.213E-01
DAV:   5    -0.192015026712E+03    0.37938E-03   -0.92132E-04  8280   0.195E-01    0.756E-02
DAV:   6    -0.192015034882E+03   -0.81701E-05   -0.28209E-04  8080   0.116E-01
  38 F= -.19201503E+03 E0= -.19191221E+03  d E =-.518427E-02
       N       E                     dE             d eps       ncg     rms          rms(c)
DAV:   1    -0.192013032303E+03    0.19944E-02   -0.42611E-02  8160   0.451E-01    0.545E-02
DAV:   2    -0.192013252306E+03   -0.22000E-03   -0.14149E-03 12720   0.152E-01    0.121E-01
DAV:   3    -0.192013097556E+03    0.15475E-03   -0.50066E-04  8720   0.157E-01    0.706E-02
DAV:   4    -0.192013059436E+03    0.38120E-04   -0.13861E-04  5920   0.755E-02
  39 F= -.19201306E+03 E0= -.19191004E+03  d E =0.197545E-02
       N       E                     dE             d eps       ncg     rms          rms(c)
DAV:   1    -0.192014237819E+03   -0.11403E-02   -0.86790E-02  8160   0.635E-01    0.920E-02
DAV:   2    -0.192014449863E+03   -0.21204E-03   -0.33410E-03 12000   0.210E-01    0.130E-01
DAV:   3    -0.192014371464E+03    0.78399E-04   -0.93404E-04 10880   0.231E-01
  40 F= -.19201437E+03 E0= -.19191161E+03  d E =-.131203E-02
       N       E                     dE             d eps       ncg     rms          rms(c)
DAV:   1    -0.192018820354E+03   -0.43705E-02   -0.24622E-01  8160   0.107E+00    0.115E-01
DAV:   2    -0.192019351337E+03   -0.53098E-03   -0.58701E-03 12920   0.276E-01    0.200E-01
DAV:   3    -0.192019129385E+03    0.22195E-03   -0.15206E-03 10480   0.273E-01    0.140E-01
DAV:   4    -0.192018990082E+03    0.13930E-03   -0.55570E-04  8000   0.140E-01    0.891E-02
DAV:   5    -0.192019015528E+03   -0.25446E-04   -0.49280E-04  7800   0.136E-01
  41 F= -.19201902E+03 E0= -.19191629E+03  d E =-.464406E-02
       N       E                     dE             d eps       ncg     rms          rms(c)
DAV:   1    -0.192011935207E+03    0.70549E-02   -0.54738E-01  8160   0.160E+00    0.182E-01
DAV:   2    -0.192012820542E+03   -0.88534E-03   -0.14049E-02 12520   0.364E-01    0.245E-01
DAV:   3    -0.192013130073E+03   -0.30953E-03   -0.48446E-03 11400   0.414E-01    0.356E-01
DAV:   4    -0.192012214519E+03    0.91555E-03   -0.29556E-03  9880   0.308E-01    0.136E-01
DAV:   5    -0.192012200497E+03    0.14022E-04   -0.98569E-04  9240   0.202E-01
  42 F= -.19201220E+03 E0= -.19190963E+03  d E =0.681503E-02
       N       E                     dE             d eps       ncg     rms          rms(c)
DAV:   1    -0.192020805995E+03   -0.85915E-02   -0.91890E-01  8160   0.206E+00    0.235E-01
DAV:   2    -0.192021946735E+03   -0.11407E-02   -0.23069E-02 12240   0.479E-01    0.279E-01
DAV:   3    -0.192022661607E+03   -0.71487E-03   -0.71360E-03 12160   0.522E-01    0.443E-01
DAV:   4    -0.192021247633E+03    0.14140E-02   -0.49671E-03 10920   0.411E-01    0.193E-01
DAV:   5    -0.192021311397E+03   -0.63764E-04   -0.20169E-03  9600   0.279E-01    0.228E-01
DAV:   6    -0.192020849979E+03    0.46142E-03   -0.11016E-03  9600   0.227E-01    0.724E-02
DAV:   7    -0.192020796669E+03    0.53310E-04   -0.20400E-04  6880   0.641E-02
  43 F= -.19202080E+03 E0= -.19191806E+03  d E =-.859617E-02
       N       E                     dE             d eps       ncg     rms          rms(c)
DAV:   1    -0.192021482415E+03   -0.63244E-03   -0.77689E-03  8400   0.208E-01    0.518E-02
DAV:   2    -0.192021556030E+03   -0.73615E-04   -0.66895E-04 10360   0.132E-01
  44 F= -.19202156E+03 E0= -.19191841E+03  d E =-.759361E-03
       N       E                     dE             d eps       ncg     rms          rms(c)
DAV:   1    -0.192028179748E+03   -0.66973E-02   -0.40760E-01  8160   0.137E+00    0.172E-01
DAV:   2    -0.192031521754E+03   -0.33420E-02   -0.15649E-02 13600   0.549E-01    0.608E-01
DAV:   3    -0.192028596755E+03    0.29250E-02   -0.77417E-03 10680   0.522E-01    0.163E-01
DAV:   4    -0.192028681704E+03   -0.84950E-04   -0.11989E-03  9880   0.220E-01    0.172E-01
DAV:   5    -0.192028416217E+03    0.26549E-03   -0.82046E-04  9480   0.212E-01    0.985E-02
DAV:   6    -0.192028395665E+03    0.20551E-04   -0.44614E-04  8520   0.143E-01
  45 F= -.19202840E+03 E0= -.19192598E+03  d E =-.683964E-02
       N       E                     dE             d eps       ncg     rms          rms(c)
DAV:   1    -0.192034131610E+03   -0.57154E-02   -0.23637E-01  8160   0.106E+00    0.145E-01
DAV:   2    -0.192034694206E+03   -0.56260E-03   -0.67348E-03 13560   0.350E-01    0.234E-01
DAV:   3    -0.192034192055E+03    0.50215E-03   -0.20006E-03 11840   0.347E-01    0.133E-01
DAV:   4    -0.192034292184E+03   -0.10013E-03   -0.11672E-03  9240   0.202E-01    0.200E-01
DAV:   5    -0.192033992834E+03    0.29935E-03   -0.10294E-03  8400   0.200E-01    0.874E-02
DAV:   6    -0.192033933391E+03    0.59443E-04   -0.23035E-04  6360   0.808E-02
  46 F= -.19203393E+03 E0= -.19193132E+03  d E =-.553773E-02
       N       E                     dE             d eps       ncg     rms          rms(c)
DAV:   1    -0.192036496682E+03   -0.25038E-02   -0.53150E-02  8160   0.512E-01    0.103E-01
DAV:   2    -0.192036925853E+03   -0.42917E-03   -0.30039E-03 11800   0.290E-01    0.256E-01
DAV:   3    -0.192036367442E+03    0.55841E-03   -0.15682E-03 10080   0.271E-01    0.105E-01
DAV:   4    -0.192036413972E+03   -0.46530E-04   -0.64649E-04  8280   0.158E-01
  47 F= -.19203641E+03 E0= -.19193370E+03  d E =-.248058E-02
       N       E                     dE             d eps       ncg     rms          rms(c)
DAV:   1    -0.192047313792E+03   -0.10946E-01   -0.63555E-01  8160   0.172E+00    0.207E-01
DAV:   2    -0.192050170076E+03   -0.28563E-02   -0.19111E-02 13480   0.529E-01    0.550E-01
DAV:   3    -0.192048076830E+03    0.20932E-02   -0.90320E-03 11240   0.563E-01    0.257E-01
DAV:   4    -0.192047765719E+03    0.31111E-03   -0.17166E-03  9640   0.227E-01    0.172E-01
DAV:   5    -0.192047629283E+03    0.13644E-03   -0.11193E-03 10240   0.242E-01    0.148E-01
DAV:   6    -0.192047454429E+03    0.17485E-03   -0.67210E-04  8720   0.163E-01    0.622E-02
DAV:   7    -0.192047443215E+03    0.11214E-04   -0.23955E-04  7880   0.107E-01
  48 F= -.19204744E+03 E0= -.19194549E+03  d E =-.110292E-01
       N       E                     dE             d eps       ncg     rms          rms(c)
DAV:   1    -0.192046570358E+03    0.88407E-03   -0.13271E-02  8160   0.252E-01    0.547E-02
DAV:   2    -0.192047055773E+03   -0.48541E-03   -0.14397E-03 11640   0.258E-01    0.215E-01
DAV:   3    -0.192046560511E+03    0.49526E-03   -0.82093E-04  9000   0.201E-01    0.538E-02
DAV:   4    -0.192046559197E+03    0.13134E-05   -0.11519E-04  5560   0.715E-02
  49 F= -.19204656E+03 E0= -.19194466E+03  d E =0.884017E-03
       N       E                     dE             d eps       ncg     rms          rms(c)
DAV:   1    -0.192036751040E+03    0.98095E-02   -0.58392E-01  8160   0.166E+00    0.257E-01
DAV:   2    -0.192042398280E+03   -0.56472E-02   -0.26820E-02 12440   0.101E+00    0.711E-01
DAV:   3    -0.192036795631E+03    0.56026E-02   -0.11180E-02 12160   0.784E-01    0.231E-01
DAV:   4    -0.192037370546E+03   -0.57491E-03   -0.39930E-03 10280   0.401E-01    0.351E-01
DAV:   5    -0.192036238279E+03    0.11323E-02   -0.24797E-03  9960   0.312E-01    0.877E-02
DAV:   6    -0.192036173007E+03    0.65272E-04   -0.54765E-04 10160   0.946E-02
  50 F= -.19203617E+03 E0= -.19193459E+03  d E =0.103862E-01
       N       E                     dE             d eps       ncg     rms          rms(c)
DAV:   1    -0.192062710933E+03   -0.26473E-01   -0.26230E+00  8160   0.353E+00    0.483E-01
DAV:   2    -0.192079138700E+03   -0.16428E-01   -0.94694E-02 13120   0.166E+00    0.128E+00
DAV:   3    -0.192064372775E+03    0.14766E-01   -0.39453E-02 12320   0.141E+00    0.515E-01
DAV:   4    -0.192065435557E+03   -0.10628E-02   -0.15349E-02 11200   0.800E-01    0.626E-01
DAV:   5    -0.192061578569E+03    0.38570E-02   -0.85528E-03 11360   0.620E-01    0.185E-01
DAV:   6    -0.192061220386E+03    0.35818E-03   -0.24632E-03 10800   0.222E-01    0.123E-01
DAV:   7    -0.192061372534E+03   -0.15215E-03   -0.12891E-03 11400   0.254E-01    0.193E-01
DAV:   8    -0.192060969942E+03    0.40259E-03   -0.59441E-04  8440   0.177E-01    0.239E-02
DAV:   9    -0.192060972570E+03   -0.26283E-05   -0.43920E-05  5680   0.267E-02
  51 F= -.19206097E+03 E0= -.19195934E+03  d E =-.247996E-01
       N       E                     dE             d eps       ncg     rms          rms(c)
DAV:   1    -0.192062688380E+03   -0.17184E-02   -0.31217E-02  8160   0.383E-01    0.596E-02
DAV:   2    -0.192062883069E+03   -0.19469E-03   -0.13150E-03 11880   0.206E-01    0.136E-01
DAV:   3    -0.192062663729E+03    0.21934E-03   -0.38892E-04  9000   0.161E-01    0.320E-02
DAV:   4    -0.192062670659E+03   -0.69297E-05   -0.77911E-05  6040   0.533E-02
  52 F= -.19206267E+03 E0= -.19196141E+03  d E =-.169809E-02
       N       E                     dE             d eps       ncg     rms          rms(c)
DAV:   1    -0.192059902494E+03    0.27612E-02   -0.39345E-02  8160   0.438E-01    0.672E-02
DAV:   2    -0.192060658482E+03   -0.75599E-03   -0.24642E-03 13160   0.304E-01    0.272E-01
DAV:   3    -0.192059933161E+03    0.72532E-03   -0.12487E-03  9760   0.250E-01    0.595E-02
DAV:   4    -0.192059964314E+03   -0.31153E-04   -0.19515E-04  6760   0.962E-02
  53 F= -.19205996E+03 E0= -.19195817E+03  d E =0.270634E-02
       N       E                     dE             d eps       ncg     rms          rms(c)
DAV:   1    -0.192059780906E+03    0.15226E-03   -0.15930E+00  8160   0.282E+00    0.589E-01
DAV:   2    -0.192078451911E+03   -0.18671E-01   -0.10589E-01 12360   0.196E+00    0.149E+00
DAV:   3    -0.192055700290E+03    0.22752E-01   -0.50946E-02 12240   0.171E+00    0.472E-01
DAV:   4    -0.192061890799E+03   -0.61905E-02   -0.27022E-02 11440   0.101E+00    0.102E+00
DAV:   5    -0.192052849498E+03    0.90413E-02   -0.19417E-02 11440   0.876E-01    0.243E-01
DAV:   6    -0.192052788384E+03    0.61114E-04   -0.43139E-03 11240   0.409E-01    0.293E-01
DAV:   7    -0.192052089907E+03    0.69848E-03   -0.24372E-03 11320   0.349E-01    0.127E-01
DAV:   8    -0.192051922989E+03    0.16692E-03   -0.39085E-04  8640   0.114E-01    0.300E-02
DAV:   9    -0.192051904298E+03    0.18691E-04   -0.56907E-05  6760   0.309E-02
  54 F= -.19205190E+03 E0= -.19194845E+03  d E =0.806002E-02
       N       E                     dE             d eps       ncg     rms          rms(c)
DAV:   1    -0.192087594403E+03   -0.35671E-01   -0.33861E+00  8160   0.405E+00    0.665E-01
DAV:   2    -0.192100288195E+03   -0.12694E-01   -0.13907E-01 12600   0.191E+00    0.118E+00
DAV:   3    -0.192084633851E+03    0.15654E-01   -0.38967E-02 12280   0.162E+00    0.453E-01
DAV:   4    -0.192081937343E+03    0.26965E-02   -0.10727E-02 11280   0.635E-01    0.343E-01
DAV:   5    -0.192083641421E+03   -0.17041E-02   -0.12917E-02 11400   0.701E-01    0.604E-01
DAV:   6    -0.192080392829E+03    0.32486E-02   -0.84256E-03 11000   0.545E-01    0.180E-01
DAV:   7    -0.192080550202E+03   -0.15737E-03   -0.20137E-03  9840   0.289E-01    0.216E-01
DAV:   8    -0.192080101568E+03    0.44863E-03   -0.81316E-04  8800   0.201E-01    0.437E-02
DAV:   9    -0.192080094721E+03    0.68471E-05   -0.82461E-05  6000   0.410E-02
  55 F= -.19208009E+03 E0= -.19197942E+03  d E =-.281904E-01
       N       E                     dE             d eps       ncg     rms          rms(c)
DAV:   1    -0.192096266507E+03   -0.16165E-01   -0.79485E-01  8160   0.191E+00    0.230E-01
DAV:   2    -0.192101488686E+03   -0.52222E-02   -0.27008E-02 12640   0.810E-01    0.721E-01
DAV:   3    -0.192097158867E+03    0.43298E-02   -0.11875E-02 11600   0.699E-01    0.229E-01
DAV:   4    -0.192097394479E+03   -0.23561E-03   -0.27038E-03 10320   0.360E-01    0.262E-01
DAV:   5    -0.192096660679E+03    0.73380E-03   -0.15568E-03 10160   0.302E-01    0.950E-02
DAV:   6    -0.192096759415E+03   -0.98736E-04   -0.62916E-04  8880   0.174E-01
  56 F= -.19209676E+03 E0= -.19199587E+03  d E =-.166647E-01
       N       E                     dE             d eps       ncg     rms          rms(c)
DAV:   1    -0.192087243635E+03    0.94170E-02   -0.45525E-01  8160   0.148E+00    0.211E-01
DAV:   2    -0.192092434136E+03   -0.51905E-02   -0.24262E-02 13600   0.796E-01    0.719E-01
DAV:   3    -0.192087955168E+03    0.44790E-02   -0.11419E-02 11400   0.698E-01    0.207E-01
DAV:   4    -0.192088043263E+03   -0.88095E-04   -0.22598E-03  9960   0.305E-01    0.233E-01
DAV:   5    -0.192087592083E+03    0.45118E-03   -0.15707E-03  9880   0.275E-01    0.121E-01
DAV:   6    -0.192087480963E+03    0.11112E-03   -0.52466E-04  8680   0.145E-01    0.806E-02
DAV:   7    -0.192087469183E+03    0.11780E-04   -0.32791E-04  8720   0.140E-01
  57 F= -.19208747E+03 E0= -.19198710E+03  d E =0.929023E-02
       N       E                     dE             d eps       ncg     rms          rms(c)
DAV:   1    -0.192112922586E+03   -0.25442E-01   -0.18043E+00  8160   0.289E+00    0.328E-01
DAV:   2    -0.192118771282E+03   -0.58487E-02   -0.53903E-02 13400   0.900E-01    0.688E-01
DAV:   3    -0.192115893857E+03    0.28774E-02   -0.17333E-02 12440   0.830E-01    0.423E-01
DAV:   4    -0.192115037585E+03    0.85627E-03   -0.55616E-03 11160   0.468E-01    0.296E-01
DAV:   5    -0.192114270409E+03    0.76718E-03   -0.30366E-03 10240   0.432E-01    0.185E-01
DAV:   6    -0.192114160063E+03    0.11035E-03   -0.15475E-03 10520   0.255E-01    0.156E-01
DAV:   7    -0.192114056549E+03    0.10351E-03   -0.10034E-03 10560   0.238E-01    0.124E-01
DAV:   8    -0.192113852015E+03    0.20453E-03   -0.30731E-04  8000   0.117E-01    0.143E-02
DAV:   9    -0.192113853715E+03   -0.16994E-05   -0.33596E-05  6440   0.198E-02
  58 F= -.19211385E+03 E0= -.19201474E+03  d E =-.263845E-01
       N       E                     dE             d eps       ncg     rms          rms(c)
DAV:   1    -0.192124084664E+03   -0.10233E-01   -0.21112E-01  8160   0.989E-01    0.114E-01
DAV:   2    -0.192125058608E+03   -0.97394E-03   -0.66741E-03 12480   0.334E-01    0.289E-01
DAV:   3    -0.192124376523E+03    0.68208E-03   -0.23712E-03 10920   0.320E-01    0.125E-01
DAV:   4    -0.192124370539E+03    0.59838E-05   -0.63022E-04  8320   0.151E-01
  59 F= -.19212437E+03 E0= -.19202510E+03  d E =-.105168E-01
       N       E                     dE             d eps       ncg     rms          rms(c)
DAV:   1    -0.192150459722E+03   -0.26083E-01   -0.13703E+00  8160   0.253E+00    0.312E-01
DAV:   2    -0.192155777965E+03   -0.53182E-02   -0.41627E-02 13360   0.798E-01    0.707E-01
DAV:   3    -0.192152301598E+03    0.34764E-02   -0.17308E-02 12280   0.825E-01    0.384E-01
DAV:   4    -0.192151381721E+03    0.91988E-03   -0.41056E-03 10960   0.369E-01    0.229E-01
DAV:   5    -0.192151258352E+03    0.12337E-03   -0.27977E-03 11520   0.394E-01    0.237E-01
DAV:   6    -0.192150752774E+03    0.50558E-03   -0.13739E-03  9840   0.249E-01    0.774E-02
DAV:   7    -0.192150670033E+03    0.82741E-04   -0.29593E-04  8760   0.807E-02
  60 F= -.19215067E+03 E0= -.19205351E+03  d E =-.262995E-01
       N       E                     dE             d eps       ncg     rms          rms(c)
DAV:   1    -0.192161455487E+03   -0.10703E-01   -0.19747E-01  8160   0.972E-01    0.122E-01
DAV:   2    -0.192162205059E+03   -0.74957E-03   -0.67103E-03 12680   0.317E-01    0.240E-01
DAV:   3    -0.192161758499E+03    0.44656E-03   -0.19326E-03 11120   0.320E-01    0.140E-01
DAV:   4    -0.192161675056E+03    0.83442E-04   -0.64751E-04  8320   0.156E-01
  61 F= -.19216168E+03 E0= -.19206424E+03  d E =-.110050E-01
       N       E                     dE             d eps       ncg     rms          rms(c)
DAV:   1    -0.192178498556E+03   -0.16740E-01   -0.70359E-01  8160   0.181E+00    0.246E-01
DAV:   2    -0.192186250438E+03   -0.77519E-02   -0.33083E-02 13560   0.854E-01    0.908E-01
DAV:   3    -0.192179440831E+03    0.68096E-02   -0.16793E-02 10720   0.799E-01    0.192E-01
DAV:   4    -0.192179290251E+03    0.15058E-03   -0.14343E-03 10080   0.222E-01    0.142E-01
DAV:   5    -0.192179157151E+03    0.13310E-03   -0.86070E-04 10720   0.246E-01    0.123E-01
DAV:   6    -0.192179069039E+03    0.88113E-04   -0.62003E-04  9520   0.168E-01
  62 F= -.19217907E+03 E0= -.19208341E+03  d E =-.173940E-01
       N       E                     dE             d eps       ncg     rms          rms(c)
DAV:   1    -0.192177425759E+03    0.17314E-02   -0.25684E-01  8160   0.120E+00    0.296E-01
DAV:   2    -0.192178028731E+03   -0.60297E-03   -0.17168E-02 11680   0.654E-01    0.544E-01
DAV:   3    -0.192176177716E+03    0.18510E-02   -0.11049E-02 11320   0.723E-01    0.380E-01
DAV:   4    -0.192175314092E+03    0.86362E-03   -0.54636E-03 10840   0.462E-01    0.276E-01
DAV:   5    -0.192175033348E+03    0.28074E-03   -0.30881E-03 10440   0.411E-01    0.231E-01
DAV:   6    -0.192174430542E+03    0.60281E-03   -0.16176E-03 10720   0.262E-01    0.956E-02
DAV:   7    -0.192174357824E+03    0.72718E-04   -0.34422E-04  8400   0.142E-01
  63 F= -.19217436E+03 E0= -.19207916E+03  d E =0.471121E-02
       N       E                     dE             d eps       ncg     rms          rms(c)
DAV:   1    -0.192220329981E+03   -0.45899E-01   -0.30733E+00  8160   0.385E+00    0.516E-01
DAV:   2    -0.192230889038E+03   -0.10559E-01   -0.10438E-01 11840   0.143E+00    0.959E-01
DAV:   3    -0.192222897787E+03    0.79913E-02   -0.28414E-02 12360   0.137E+00    0.489E-01
DAV:   4    -0.192220755857E+03    0.21419E-02   -0.74672E-03 12240   0.607E-01    0.324E-01
DAV:   5    -0.192220390545E+03    0.36531E-03   -0.52229E-03 11600   0.571E-01    0.343E-01
DAV:   6    -0.192219640073E+03    0.75047E-03   -0.44675E-03 12000   0.439E-01    0.236E-01
DAV:   7    -0.192219455799E+03    0.18427E-03   -0.22268E-03 10280   0.338E-01    0.193E-01
DAV:   8    -0.192219012934E+03    0.44286E-03   -0.71237E-04  8480   0.182E-01    0.261E-02
DAV:   9    -0.192219010530E+03    0.24043E-05   -0.64996E-05  6440   0.300E-02
  64 F= -.19221901E+03 E0= -.19212530E+03  d E =-.446527E-01
       N       E                     dE             d eps       ncg     rms          rms(c)
DAV:   1    -0.192250796553E+03   -0.31784E-01   -0.17537E+00  8160   0.285E+00    0.325E-01
DAV:   2    -0.192256598637E+03   -0.58021E-02   -0.55252E-02 12800   0.915E-01    0.574E-01
DAV:   3    -0.192253969789E+03    0.26288E-02   -0.10881E-02 12440   0.849E-01    0.330E-01
DAV:   4    -0.192252750189E+03    0.12196E-02   -0.21991E-03 11360   0.331E-01    0.128E-01
DAV:   5    -0.192252788126E+03   -0.37937E-04   -0.13759E-03 10640   0.237E-01    0.168E-01
DAV:   6    -0.192252836399E+03   -0.48273E-04   -0.15436E-03 10720   0.296E-01    0.182E-01
DAV:   7    -0.192252529072E+03    0.30733E-03   -0.76688E-04  8680   0.187E-01    0.826E-02
DAV:   8    -0.192252463000E+03    0.66072E-04   -0.12494E-04  6600   0.882E-02
  65 F= -.19225246E+03 E0= -.19216043E+03  d E =-.334525E-01
       N       E                     dE             d eps       ncg     rms          rms(c)
DAV:   1    -0.192270673808E+03   -0.18145E-01   -0.48111E-01  8160   0.149E+00    0.181E-01
DAV:   2    -0.192272952974E+03   -0.22792E-02   -0.16278E-02 12200   0.557E-01    0.400E-01
DAV:   3    -0.192271380810E+03    0.15722E-02   -0.39535E-03 12480   0.512E-01    0.150E-01
DAV:   4    -0.192271191115E+03    0.18970E-03   -0.64972E-04  9440   0.162E-01    0.993E-02
DAV:   5    -0.192271236426E+03   -0.45311E-04   -0.63076E-04  9400   0.183E-01
  66 F= -.19227124E+03 E0= -.19217982E+03  d E =-.187734E-01
       N       E                     dE             d eps       ncg     rms          rms(c)
DAV:   1    -0.192238488876E+03    0.32702E-01   -0.13715E+00  8160   0.252E+00    0.321E-01
DAV:   2    -0.192249165050E+03   -0.10676E-01   -0.56125E-02 11880   0.113E+00    0.991E-01
DAV:   3    -0.192240757280E+03    0.84078E-02   -0.22491E-02 12040   0.101E+00    0.284E-01
DAV:   4    -0.192240639264E+03    0.11802E-03   -0.39512E-03 11280   0.392E-01    0.286E-01
DAV:   5    -0.192239938277E+03    0.70099E-03   -0.22801E-03 10360   0.381E-01    0.162E-01
DAV:   6    -0.192239664853E+03    0.27342E-03   -0.85877E-04 10280   0.179E-01    0.638E-02
DAV:   7    -0.192239610818E+03    0.54035E-04   -0.22686E-04  8000   0.683E-02
  67 F= -.19223961E+03 E0= -.19214689E+03  d E =0.316256E-01
       N       E                     dE             d eps       ncg     rms          rms(c)
DAV:   1    -0.192221318485E+03    0.18346E-01   -0.53218E-01  8160   0.157E+00    0.217E-01
DAV:   2    -0.192225583537E+03   -0.42651E-02   -0.21968E-02 12120   0.729E-01    0.649E-01
DAV:   3    -0.192221954076E+03    0.36295E-02   -0.88741E-03 11920   0.633E-01    0.178E-01
DAV:   4    -0.192222196649E+03   -0.24257E-03   -0.19213E-03 10200   0.313E-01    0.241E-01
DAV:   5    -0.192221603384E+03    0.59326E-03   -0.11829E-03 10000   0.272E-01    0.877E-02
DAV:   6    -0.192221657462E+03   -0.54078E-04   -0.42018E-04  8920   0.157E-01
  68 F= -.19222166E+03 E0= -.19212756E+03  d E =0.179534E-01
       N       E                     dE             d eps       ncg     rms          rms(c)
DAV:   1    -0.192238012859E+03   -0.16409E-01   -0.72888E-01  8160   0.183E+00    0.205E-01
DAV:   2    -0.192240170253E+03   -0.21574E-02   -0.25287E-02 11960   0.521E-01    0.287E-01
DAV:   3    -0.192239943203E+03    0.22705E-03   -0.44705E-03 11800   0.514E-01    0.275E-01
DAV:   4    -0.192239186651E+03    0.75655E-03   -0.14636E-03 10000   0.283E-01    0.109E-01
DAV:   5    -0.192239324146E+03   -0.13749E-03   -0.99946E-04 10080   0.214E-01    0.174E-01
DAV:   6    -0.192239081467E+03    0.24268E-03   -0.67703E-04  8720   0.176E-01    0.643E-02
DAV:   7    -0.192239058918E+03    0.22549E-04   -0.16168E-04  6160   0.904E-02
  69 F= -.19223906E+03 E0= -.19214555E+03  d E =-.174015E-01
       N       E                     dE             d eps       ncg     rms          rms(c)
DAV:   1    -0.192263229834E+03   -0.24148E-01   -0.96601E-01  8160   0.213E+00    0.273E-01
DAV:   2    -0.192268099642E+03   -0.48698E-02   -0.33746E-02 11720   0.880E-01    0.615E-01
DAV:   3    -0.192264456853E+03    0.36428E-02   -0.91219E-03 12360   0.772E-01    0.233E-01
DAV:   4    -0.192264442888E+03    0.13965E-04   -0.24830E-03 10560   0.330E-01    0.253E-01
DAV:   5    -0.192263923914E+03    0.51897E-03   -0.17496E-03 10280   0.331E-01    0.147E-01
DAV:   6    -0.192263834131E+03    0.89783E-04   -0.83752E-04  9760   0.195E-01
  70 F= -.19226383E+03 E0= -.19217181E+03  d E =-.247752E-01
       N       E                     dE             d eps       ncg     rms          rms(c)
DAV:   1    -0.192274798732E+03   -0.10875E-01   -0.38529E-01  8160   0.134E+00    0.187E-01
DAV:   2    -0.192277245311E+03   -0.24466E-02   -0.15130E-02 12360   0.660E-01    0.430E-01
DAV:   3    -0.192275219541E+03    0.20258E-02   -0.39760E-03 11800   0.532E-01    0.140E-01
DAV:   4    -0.192275534456E+03   -0.31492E-03   -0.14508E-03 10160   0.279E-01    0.238E-01
DAV:   5    -0.192274955555E+03    0.57890E-03   -0.10510E-03  9600   0.250E-01    0.578E-02
DAV:   6    -0.192274980140E+03   -0.24585E-04   -0.23518E-04  6880   0.965E-02
  71 F= -.19227498E+03 E0= -.19218274E+03  d E =-.111460E-01
       N       E                     dE             d eps       ncg     rms          rms(c)
DAV:   1    -0.192310244092E+03   -0.35289E-01   -0.21132E+00  8160   0.313E+00    0.385E-01
DAV:   2    -0.192318880555E+03   -0.86365E-02   -0.71332E-02 11960   0.113E+00    0.762E-01
DAV:   3    -0.192313551894E+03    0.53287E-02   -0.15810E-02 12480   0.103E+00    0.347E-01
DAV:   4    -0.192312591963E+03    0.95993E-03   -0.37512E-03 11600   0.414E-01    0.251E-01
DAV:   5    -0.192312441252E+03    0.15071E-03   -0.28257E-03 11040   0.413E-01    0.241E-01
DAV:   6    -0.192312013607E+03    0.42764E-03   -0.16490E-03 12040   0.293E-01    0.119E-01
DAV:   7    -0.192311927630E+03    0.85978E-04   -0.60161E-04  9520   0.192E-01
  72 F= -.19231193E+03 E0= -.19222184E+03  d E =-.369475E-01
       N       E                     dE             d eps       ncg     rms          rms(c)
DAV:   1    -0.192329909482E+03   -0.17896E-01   -0.54425E-01  8160   0.159E+00    0.216E-01
DAV:   2    -0.192332618797E+03   -0.27093E-02   -0.21559E-02 11680   0.635E-01    0.440E-01
DAV:   3    -0.192330830639E+03    0.17882E-02   -0.53575E-03 12480   0.603E-01    0.203E-01
DAV:   4    -0.192330512957E+03    0.31768E-03   -0.11543E-03 10160   0.231E-01    0.136E-01
DAV:   5    -0.192330454341E+03    0.58615E-04   -0.81096E-04  9920   0.234E-01
  73 F= -.19233045E+03 E0= -.19224080E+03  d E =-.185267E-01
       N       E                     dE             d eps       ncg     rms          rms(c)
DAV:   1    -0.192369501223E+03   -0.38988E-01   -0.29813E+00  8160   0.373E+00    0.480E-01
DAV:   2    -0.192386375015E+03   -0.16874E-01   -0.10696E-01 11680   0.153E+00    0.109E+00
DAV:   3    -0.192373703556E+03    0.12671E-01   -0.25346E-02 12320   0.137E+00    0.342E-01
DAV:   4    -0.192372361227E+03    0.13423E-02   -0.32300E-03 11680   0.366E-01    0.208E-01
DAV:   5    -0.192372885951E+03   -0.52472E-03   -0.31240E-03 12120   0.467E-01    0.300E-01
DAV:   6    -0.192372039523E+03    0.84643E-03   -0.19831E-03 10840   0.346E-01    0.121E-01
DAV:   7    -0.192371904067E+03    0.13546E-03   -0.50555E-04  9000   0.191E-01    0.751E-02
DAV:   8    -0.192371832188E+03    0.71879E-04   -0.11737E-04  7280   0.890E-02
  74 F= -.19237183E+03 E0= -.19228373E+03  d E =-.413778E-01
       N       E                     dE             d eps       ncg     rms          rms(c)
DAV:   1    -0.192426553333E+03   -0.54649E-01   -0.11797E+01  8160   0.742E+00    0.940E-01
DAV:   2    -0.192498721109E+03   -0.72168E-01   -0.45303E-01 11520   0.320E+00    0.213E+00
DAV:   3    -0.192445951884E+03    0.52769E-01   -0.10098E-01 12320   0.276E+00    0.613E-01
DAV:   4    -0.192442166362E+03    0.37855E-02   -0.12517E-02 12280   0.779E-01    0.435E-01
DAV:   5    -0.192441701271E+03    0.46509E-03   -0.88447E-03 12200   0.838E-01    0.430E-01
DAV:   6    -0.192440221871E+03    0.14794E-02   -0.63374E-03 11960   0.609E-01    0.227E-01
DAV:   7    -0.192439549940E+03    0.67193E-03   -0.22212E-03 11840   0.315E-01    0.160E-01
DAV:   8    -0.192439287688E+03    0.26225E-03   -0.62761E-04  9720   0.205E-01    0.546E-02
DAV:   9    -0.192439250163E+03    0.37526E-04   -0.98197E-05  6400   0.601E-02
  75 F= -.19243925E+03 E0= -.19235250E+03  d E =-.674180E-01
       N       E                     dE             d eps       ncg     rms          rms(c)
DAV:   1    -0.192443546064E+03   -0.42584E-02   -0.16238E-01  8160   0.969E-01    0.254E-01
DAV:   2    -0.192443832032E+03   -0.28597E-03   -0.12416E-02 11520   0.621E-01    0.405E-01
DAV:   3    -0.192442296603E+03    0.15354E-02   -0.48131E-03 11520   0.614E-01    0.199E-01
DAV:   4    -0.192441733269E+03    0.56333E-03   -0.17920E-03 10440   0.287E-01    0.145E-01
DAV:   5    -0.192441814558E+03   -0.81289E-04   -0.14148E-03 10920   0.305E-01    0.189E-01
DAV:   6    -0.192441359480E+03    0.45508E-03   -0.67784E-04  9040   0.218E-01    0.257E-02
DAV:   7    -0.192441369817E+03   -0.10337E-04   -0.89234E-05  6080   0.578E-02
  76 F= -.19244137E+03 E0= -.19235406E+03  d E =-.211965E-02
       N       E                     dE             d eps       ncg     rms          rms(c)
DAV:   1    -0.192453884752E+03   -0.12525E-01   -0.77290E-01  8160   0.187E+00    0.264E-01
DAV:   2    -0.192460379422E+03   -0.64947E-02   -0.35365E-02 10480   0.102E+00    0.674E-01
DAV:   3    -0.192455076882E+03    0.53025E-02   -0.91756E-03 12360   0.824E-01    0.152E-01
DAV:   4    -0.192454895157E+03    0.18173E-03   -0.97156E-04 10520   0.219E-01    0.129E-01
DAV:   5    -0.192454847916E+03    0.47241E-04   -0.69997E-04 11240   0.240E-01
  77 F= -.19245485E+03 E0= -.19236807E+03  d E =-.134781E-01
       N       E                     dE             d eps       ncg     rms          rms(c)
DAV:   1    -0.192469459973E+03   -0.14565E-01   -0.28833E+00  8160   0.363E+00    0.477E-01
DAV:   2    -0.192490969080E+03   -0.21509E-01   -0.12595E-01 11640   0.179E+00    0.117E+00
DAV:   3    -0.192475167240E+03    0.15802E-01   -0.28777E-02 12280   0.149E+00    0.285E-01
DAV:   4    -0.192474129274E+03    0.10380E-02   -0.24462E-03 11480   0.320E-01    0.166E-01
DAV:   5    -0.192474542659E+03   -0.41338E-03   -0.20595E-03 11680   0.400E-01    0.248E-01
DAV:   6    -0.192473895308E+03    0.64735E-03   -0.15295E-03 11560   0.315E-01    0.894E-02
DAV:   7    -0.192473826837E+03    0.68471E-04   -0.36940E-04  9200   0.144E-01
  78 F= -.19247383E+03 E0= -.19238765E+03  d E =-.189789E-01
       N       E                     dE             d eps       ncg     rms          rms(c)
DAV:   1    -0.192475664349E+03   -0.17690E-02   -0.64265E-02  8240   0.586E-01    0.138E-01
DAV:   2    -0.192475426213E+03    0.23814E-03   -0.39742E-03 11080   0.224E-01    0.132E-01
DAV:   3    -0.192475512094E+03   -0.85881E-04   -0.12589E-03 10280   0.298E-01    0.175E-01
DAV:   4    -0.192475149373E+03    0.36272E-03   -0.75919E-04 10200   0.234E-01    0.707E-02
DAV:   5    -0.192475089490E+03    0.59883E-04   -0.24602E-04  6920   0.102E-01
  79 F= -.19247509E+03 E0= -.19238865E+03  d E =-.126265E-02
       N       E                     dE             d eps       ncg     rms          rms(c)
DAV:   1    -0.192478939620E+03   -0.37902E-02   -0.27987E-01  8160   0.112E+00    0.138E-01
DAV:   2    -0.192480411147E+03   -0.14715E-02   -0.12523E-02 10280   0.447E-01    0.265E-01
DAV:   3    -0.192479733959E+03    0.67719E-03   -0.20752E-03 12520   0.391E-01    0.121E-01
DAV:   4    -0.192479546909E+03    0.18705E-03   -0.27927E-04  8240   0.124E-01    0.403E-02
DAV:   5    -0.192479587707E+03   -0.40798E-04   -0.16973E-04  7080   0.937E-02
  80 F= -.19247959E+03 E0= -.19239348E+03  d E =-.449822E-02
       N       E                     dE             d eps       ncg     rms          rms(c)
DAV:   1    -0.192483562075E+03   -0.40152E-02   -0.88685E-01  8160   0.199E+00    0.252E-01
DAV:   2    -0.192489775798E+03   -0.62137E-02   -0.42314E-02 11480   0.921E-01    0.579E-01
DAV:   3    -0.192486042658E+03    0.37331E-02   -0.82774E-03 12400   0.779E-01    0.174E-01
DAV:   4    -0.192485655240E+03    0.38742E-03   -0.75776E-04 10360   0.184E-01    0.759E-02
DAV:   5    -0.192485761646E+03   -0.10641E-03   -0.50574E-04 10520   0.168E-01    0.117E-01
DAV:   6    -0.192485667935E+03    0.93711E-04   -0.48397E-04  9320   0.187E-01
  81 F= -.19248567E+03 E0= -.19240016E+03  d E =-.608023E-02
       N       E                     dE             d eps       ncg     rms          rms(c)
DAV:   1    -0.192487856417E+03   -0.20948E-02   -0.70955E-01  8160   0.180E+00    0.231E-01
DAV:   2    -0.192491429146E+03   -0.35727E-02   -0.33581E-02 10840   0.719E-01    0.405E-01
DAV:   3    -0.192489978163E+03    0.14510E-02   -0.58540E-03 12400   0.646E-01    0.218E-01
DAV:   4    -0.192489343578E+03    0.63459E-03   -0.90877E-04 10920   0.229E-01    0.643E-02
DAV:   5    -0.192489364612E+03   -0.21034E-04   -0.41614E-04 10560   0.900E-02
  82 F= -.19248936E+03 E0= -.19240451E+03  d E =-.369668E-02
       N       E                     dE             d eps       ncg     rms          rms(c)
DAV:   1    -0.192490338235E+03   -0.99466E-03   -0.24552E-01  8160   0.106E+00    0.133E-01
DAV:   2    -0.192491618018E+03   -0.12798E-02   -0.10895E-02 11480   0.411E-01    0.246E-01
DAV:   3    -0.192491026152E+03    0.59187E-03   -0.18316E-03 11960   0.369E-01    0.118E-01
DAV:   4    -0.192490855685E+03    0.17047E-03   -0.26230E-04  7960   0.124E-01    0.406E-02
DAV:   5    -0.192490922052E+03   -0.66367E-04   -0.21798E-04  7960   0.117E-01
  83 F= -.19249092E+03 E0= -.19240667E+03  d E =-.155744E-02
       N       E                     dE             d eps       ncg     rms          rms(c)
DAV:   1    -0.192491023773E+03   -0.16809E-03   -0.11311E-02  8320   0.238E-01    0.453E-02
DAV:   2    -0.192491070584E+03   -0.46811E-04   -0.56485E-04 11440   0.118E-01
  84 F= -.19249107E+03 E0= -.19240700E+03  d E =-.148532E-03
