<?xml version="1.0" encoding="ISO-8859-1"?>
<modeling>
 <generator>
  <i name="program" type="string">vasp </i>
  <i name="version" type="string">5.4.1  </i>
  <i name="subversion" type="string">05Feb16 (build Jul 05 2020 17:13:04) complex                          parallel </i>
  <i name="platform" type="string">IFC91_ompi </i>
  <i name="date" type="string">2024 04 24 </i>
  <i name="time" type="string">12:45:41 </i>
 </generator>
 <incar>
  <i type="int" name="ISTART">     0</i>
  <i type="string" name="PREC">normal</i>
  <i type="string" name="ALGO"> Normal</i>
  <i type="int" name="ISPIN">     1</i>
  <i type="int" name="ICHARG">     2</i>
  <i type="int" name="IBRION">     1</i>
  <i type="int" name="NSW">   100</i>
  <i type="int" name="ISIF">     3</i>
  <i type="int" name="ISYM">     0</i>
  <i name="SYMPREC">      0.00000001</i>
  <i name="POTIM">      0.50000000</i>
  <i type="logical" name="LREAL"> F  </i>
  <i type="logical" name="LPLANE"> F  </i>
  <i type="int" name="ISMEAR">     0</i>
  <i type="logical" name="LWAVE"> F  </i>
  <i type="logical" name="LCHARG"> F  </i>
  <v type="int" name="KPOINT_BSE">    -1     0     0     0</v>
 </incar>
 <kpoints>
  <generation param="Gamma">
   <v type="int" name="divisions">       8        8        1 </v>
   <v name="usershift">      0.00000000       0.00000000       0.00000000 </v>
   <v name="genvec1">      0.12500000       0.00000000       0.00000000 </v>
   <v name="genvec2">     -0.00000000       0.12500000       0.00000000 </v>
   <v name="genvec3">      0.00000000       0.00000000       1.00000000 </v>
   <v name="shift">      0.00000000       0.00000000       0.00000000 </v>
  </generation>
  <varray name="kpointlist" >
   <v>       0.00000000       0.00000000       0.00000000 </v>
   <v>       0.12500000       0.00000000       0.00000000 </v>
   <v>       0.25000000       0.00000000       0.00000000 </v>
   <v>       0.37500000       0.00000000       0.00000000 </v>
   <v>       0.50000000       0.00000000       0.00000000 </v>
   <v>       0.00000000       0.12500000       0.00000000 </v>
   <v>       0.12500000       0.12500000       0.00000000 </v>
   <v>       0.25000000       0.12500000       0.00000000 </v>
   <v>       0.37500000       0.12500000       0.00000000 </v>
   <v>       0.50000000       0.12500000       0.00000000 </v>
   <v>      -0.37500000       0.12500000       0.00000000 </v>
   <v>      -0.25000000       0.12500000       0.00000000 </v>
   <v>      -0.12500000       0.12500000       0.00000000 </v>
   <v>       0.00000000       0.25000000       0.00000000 </v>
   <v>       0.12500000       0.25000000       0.00000000 </v>
   <v>       0.25000000       0.25000000       0.00000000 </v>
   <v>       0.37500000       0.25000000       0.00000000 </v>
   <v>       0.50000000       0.25000000       0.00000000 </v>
   <v>      -0.37500000       0.25000000       0.00000000 </v>
   <v>      -0.25000000       0.25000000       0.00000000 </v>
   <v>      -0.12500000       0.25000000       0.00000000 </v>
   <v>      -0.00000000       0.37500000       0.00000000 </v>
   <v>       0.12500000       0.37500000       0.00000000 </v>
   <v>       0.25000000       0.37500000       0.00000000 </v>
   <v>       0.37500000       0.37500000       0.00000000 </v>
   <v>       0.50000000       0.37500000       0.00000000 </v>
   <v>      -0.37500000       0.37500000       0.00000000 </v>
   <v>      -0.25000000       0.37500000       0.00000000 </v>
   <v>      -0.12500000       0.37500000       0.00000000 </v>
   <v>       0.00000000       0.50000000       0.00000000 </v>
   <v>       0.12500000       0.50000000       0.00000000 </v>
   <v>       0.25000000       0.50000000       0.00000000 </v>
   <v>       0.37500000       0.50000000       0.00000000 </v>
   <v>       0.50000000       0.50000000       0.00000000 </v>
  </varray>
  <varray name="weights" >
   <v>       0.01562500 </v>
   <v>       0.03125000 </v>
   <v>       0.03125000 </v>
   <v>       0.03125000 </v>
   <v>       0.01562500 </v>
   <v>       0.03125000 </v>
   <v>       0.03125000 </v>
   <v>       0.03125000 </v>
   <v>       0.03125000 </v>
   <v>       0.03125000 </v>
   <v>       0.03125000 </v>
   <v>       0.03125000 </v>
   <v>       0.03125000 </v>
   <v>       0.03125000 </v>
   <v>       0.03125000 </v>
   <v>       0.03125000 </v>
   <v>       0.03125000 </v>
   <v>       0.03125000 </v>
   <v>       0.03125000 </v>
   <v>       0.03125000 </v>
   <v>       0.03125000 </v>
   <v>       0.03125000 </v>
   <v>       0.03125000 </v>
   <v>       0.03125000 </v>
   <v>       0.03125000 </v>
   <v>       0.03125000 </v>
   <v>       0.03125000 </v>
   <v>       0.03125000 </v>
   <v>       0.03125000 </v>
   <v>       0.01562500 </v>
   <v>       0.03125000 </v>
   <v>       0.03125000 </v>
   <v>       0.03125000 </v>
   <v>       0.01562500 </v>
  </varray>
 </kpoints>
 <parameters>
  <separator name="general" >
   <i type="string" name="SYSTEM">unknown system</i>
   <i type="logical" name="LCOMPAT"> F  </i>
  </separator>
  <separator name="electronic" >
   <i type="string" name="PREC">normal</i>
   <i name="ENMAX">    280.00000000</i>
   <i name="ENAUG">    373.43800000</i>
   <i name="EDIFF">      0.00010000</i>
   <i type="int" name="IALGO">    38</i>
   <i type="int" name="IWAVPR">    11</i>
   <i type="int" name="NBANDS">   120</i>
   <i name="NELECT">    159.00000000</i>
   <i type="int" name="TURBO">     0</i>
   <i type="int" name="IRESTART">     0</i>
   <i type="int" name="NREBOOT">     0</i>
   <i type="int" name="NMIN">     0</i>
   <i name="EREF">      0.00000000</i>
   <separator name="electronic smearing" >
    <i type="int" name="ISMEAR">     0</i>
    <i name="SIGMA">      0.20000000</i>
    <i name="KSPACING">      0.50000000</i>
    <i type="logical" name="KGAMMA"> T  </i>
   </separator>
   <separator name="electronic projectors" >
    <i type="logical" name="LREAL"> F  </i>
    <v name="ROPT">      0.00000000      0.00000000      0.00000000      0.00000000</v>
    <i type="int" name="LMAXPAW">  -100</i>
    <i type="int" name="LMAXMIX">     2</i>
    <i type="logical" name="NLSPLINE"> F  </i>
   </separator>
   <separator name="electronic startup" >
    <i type="int" name="ISTART">     0</i>
    <i type="int" name="ICHARG">     2</i>
    <i type="int" name="INIWAV">     1</i>
   </separator>
   <separator name="electronic spin" >
    <i type="int" name="ISPIN">     1</i>
    <i type="logical" name="LNONCOLLINEAR"> F  </i>
    <v name="MAGMOM">      1.00000000      1.00000000      1.00000000      1.00000000      1.00000000      1.00000000      1.00000000      1.00000000      1.00000000      1.00000000      1.00000000      1.00000000      1.00000000      1.00000000      1.00000000      1.00000000      1.00000000      1.00000000      1.00000000      1.00000000
      1.00000000      1.00000000      1.00000000      1.00000000      1.00000000      1.00000000      1.00000000</v>
    <i name="NUPDOWN">     -1.00000000</i>
    <i type="logical" name="LSORBIT"> F  </i>
    <v name="SAXIS">      0.00000000      0.00000000      1.00000000</v>
    <i type="logical" name="LSPIRAL"> F  </i>
    <v name="QSPIRAL">      0.00000000      0.00000000      0.00000000</v>
    <i type="logical" name="LZEROZ"> F  </i>
   </separator>
   <separator name="electronic exchange-correlation" >
    <i type="logical" name="LASPH"> F  </i>
    <i type="logical" name="LMETAGGA"> F  </i>
   </separator>
   <separator name="electronic convergence" >
    <i type="int" name="NELM">    60</i>
    <i type="int" name="NELMDL">    -5</i>
    <i type="int" name="NELMIN">     2</i>
    <i name="ENINI">    280.00000000</i>
    <separator name="electronic convergence detail" >
     <i type="logical" name="LDIAG"> T  </i>
     <i type="logical" name="LSUBROT"> F  </i>
     <i name="WEIMIN">      0.00100000</i>
     <i name="EBREAK">      0.00000021</i>
     <i name="DEPER">      0.30000000</i>
     <i type="int" name="NRMM">     4</i>
     <i name="TIME">      0.40000000</i>
    </separator>
   </separator>
   <separator name="electronic mixer" >
    <i name="AMIX">      0.40000000</i>
    <i name="BMIX">      1.00000000</i>
    <i name="AMIN">      0.10000000</i>
    <i name="AMIX_MAG">      1.60000000</i>
    <i name="BMIX_MAG">      1.00000000</i>
    <separator name="electronic mixer details" >
     <i type="int" name="IMIX">     4</i>
     <i type="logical" name="MIXFIRST"> F  </i>
     <i type="int" name="MAXMIX">   -45</i>
     <i name="WC">    100.00000000</i>
     <i type="int" name="INIMIX">     1</i>
     <i type="int" name="MIXPRE">     1</i>
     <i type="int" name="MREMOVE">     5</i>
    </separator>
   </separator>
   <separator name="electronic dipolcorrection" >
    <i type="logical" name="LDIPOL"> F  </i>
    <i type="logical" name="LMONO"> F  </i>
    <i type="int" name="IDIPOL">     0</i>
    <i name="EPSILON">      1.00000000</i>
    <v name="DIPOL">   -100.00000000   -100.00000000   -100.00000000</v>
    <i name="EFIELD">      0.00000000</i>
   </separator>
  </separator>
  <separator name="grids" >
   <i type="int" name="NGX">    42</i>
   <i type="int" name="NGY">    42</i>
   <i type="int" name="NGZ">   126</i>
   <i type="int" name="NGXF">    84</i>
   <i type="int" name="NGYF">    84</i>
   <i type="int" name="NGZF">   252</i>
   <i type="logical" name="ADDGRID"> F  </i>
  </separator>
  <separator name="ionic" >
   <i type="int" name="NSW">   100</i>
   <i type="int" name="IBRION">     1</i>
   <i type="int" name="ISIF">     3</i>
   <i name="PSTRESS">      0.00000000</i>
   <i name="EDIFFG">      0.00100000</i>
   <i type="int" name="NFREE">     0</i>
   <i name="POTIM">      0.50000000</i>
   <i name="SMASS">     -3.00000000</i>
   <i name="SCALEE">      1.00000000</i>
  </separator>
  <separator name="ionic md" >
   <i name="TEBEG">      0.00010000</i>
   <i name="TEEND">      0.00010000</i>
   <i type="int" name="NBLOCK">     1</i>
   <i type="int" name="KBLOCK">   100</i>
   <i type="int" name="NPACO">   256</i>
   <i name="APACO">     16.00000000</i>
  </separator>
  <separator name="symmetry" >
   <i type="int" name="ISYM">     0</i>
   <i name="SYMPREC">      0.00000001</i>
  </separator>
  <separator name="dos" >
   <i type="logical" name="LORBIT"> F  </i>
   <v name="RWIGS">     -1.00000000     -1.00000000     -1.00000000     -1.00000000</v>
   <i type="int" name="NEDOS">   301</i>
   <i name="EMIN">     10.00000000</i>
   <i name="EMAX">    -10.00000000</i>
   <i name="EFERMI">      0.00000000</i>
  </separator>
  <separator name="writing" >
   <i type="int" name="NWRITE">     2</i>
   <i type="logical" name="LWAVE"> F  </i>
   <i type="logical" name="LCHARG"> F  </i>
   <i type="logical" name="LPARD"> F  </i>
   <i type="logical" name="LVTOT"> F  </i>
   <i type="logical" name="LVHAR"> F  </i>
   <i type="logical" name="LELF"> F  </i>
   <i type="logical" name="LOPTICS"> F  </i>
   <v name="STM">      0.00000000      0.00000000      0.00000000      0.00000000      0.00000000      0.00000000      0.00000000</v>
  </separator>
  <separator name="performance" >
   <i type="int" name="NPAR">    40</i>
   <i type="int" name="NSIM">     4</i>
   <i type="int" name="NBLK">    -1</i>
   <i type="logical" name="LPLANE"> F  </i>
   <i type="logical" name="LSCALAPACK"> T  </i>
   <i type="logical" name="LSCAAWARE"> F  </i>
   <i type="logical" name="LSCALU"> F  </i>
   <i type="logical" name="LASYNC"> F  </i>
   <i type="logical" name="LORBITALREAL"> F  </i>
  </separator>
  <separator name="miscellaneous" >
   <i type="int" name="IDIOT">     3</i>
   <i type="logical" name="LMUSIC"> F  </i>
   <v name="POMASS">     50.94100000     95.94000000    183.85000000     32.06600000</v>
   <v name="DARWINR">      0.00000000      0.00000000      0.00000000      0.00000000</v>
   <v name="DARWINV">      1.00000000      1.00000000      1.00000000      1.00000000</v>
   <i type="logical" name="LCORR"> T  </i>
  </separator>
  <i type="logical" name="GGA_COMPAT"> T  </i>
  <i type="logical" name="LBERRY"> F  </i>
  <i type="int" name="ICORELEVEL">     0</i>
  <i type="logical" name="LDAU"> F  </i>
  <i type="int" name="I_CONSTRAINED_M">     0</i>
  <separator name="electronic exchange-correlation" >
   <i type="string" name="GGA">--</i>
   <i type="int" name="VOSKOWN">     0</i>
   <i type="logical" name="LHFCALC"> F  </i>
   <i type="string" name="PRECFOCK"></i>
   <i type="logical" name="LSYMGRAD"> F  </i>
   <i type="logical" name="LHFONE"> F  </i>
   <i type="logical" name="LRHFCALC"> F  </i>
   <i type="logical" name="LTHOMAS"> F  </i>
   <i type="logical" name="LMODELHF"> F  </i>
   <i name="ENCUT4O">     -1.00000000</i>
   <i type="int" name="EXXOEP">     0</i>
   <i type="int" name="FOURORBIT">     0</i>
   <i name="AEXX">      0.00000000</i>
   <i name="HFALPHA">      0.00000000</i>
   <i name="MCALPHA">      0.00000000</i>
   <i name="ALDAX">      1.00000000</i>
   <i name="AGGAX">      1.00000000</i>
   <i name="ALDAC">      1.00000000</i>
   <i name="AGGAC">      1.00000000</i>
   <i type="int" name="NKREDX">     1</i>
   <i type="int" name="NKREDY">     1</i>
   <i type="int" name="NKREDZ">     1</i>
   <i type="logical" name="SHIFTRED"> F  </i>
   <i type="logical" name="ODDONLY"> F  </i>
   <i type="logical" name="EVENONLY"> F  </i>
   <i type="int" name="LMAXFOCK">     0</i>
   <i type="int" name="NMAXFOCKAE">     0</i>
   <i type="logical" name="LFOCKAEDFT"> F  </i>
   <i name="HFSCREEN">      0.00000000</i>
   <i name="HFSCREENC">      0.00000000</i>
   <i type="int" name="NBANDSGWLOW">     0</i>
  </separator>
  <separator name="vdW DFT" >
   <i type="logical" name="LUSE_VDW"> F  </i>
   <i name="Zab_VDW">     -0.84910000</i>
   <i name="PARAM1">      0.12340000</i>
   <i name="PARAM2">      1.00000000</i>
   <i name="PARAM3">      0.00000000</i>
  </separator>
  <separator name="model GW" >
   <i type="int" name="MODEL_GW">     0</i>
   <i name="MODEL_EPS0">     58.26239943</i>
   <i name="MODEL_ALPHA">      1.00000000</i>
  </separator>
  <separator name="linear response parameters" >
   <i type="logical" name="LEPSILON"> F  </i>
   <i type="logical" name="LRPA"> F  </i>
   <i type="logical" name="LNABLA"> F  </i>
   <i type="logical" name="LVEL"> F  </i>
   <i type="int" name="KINTER">     0</i>
   <i name="CSHIFT">      0.10000000</i>
   <i name="OMEGAMAX">     -1.00000000</i>
   <i name="DEG_THRESHOLD">      0.00200000</i>
  </separator>
  <separator name="orbital magnetization" >
   <i type="logical" name="NUCIND"> F  </i>
   <v name="MAGPOS">      0.00000000      0.00000000      0.00000000</v>
   <i type="logical" name="LNICSALL"> T  </i>
   <i type="logical" name="ORBITALMAG"> F  </i>
   <i type="logical" name="LMAGBLOCH"> F  </i>
   <i type="logical" name="LCHIMAG"> F  </i>
   <i type="logical" name="LGAUGE"> T  </i>
   <i type="int" name="MAGATOM">     0</i>
   <v name="MAGDIPOL">      0.00000000      0.00000000      0.00000000</v>
   <v name="AVECCONST">      0.00000000      0.00000000      0.00000000</v>
  </separator>
  <separator name="response functions" >
   <i type="logical" name="LADDER"> F  </i>
   <i type="logical" name="LFXC"> F  </i>
   <i type="logical" name="LHARTREE"> T  </i>
   <i type="int" name="IBSE">     0</i>
   <v type="int" name="KPOINT">    -1     0     0     0</v>
   <i type="logical" name="LTCTE"> F  </i>
   <i type="logical" name="LTETE"> F  </i>
   <i type="logical" name="LTRIPLET"> F  </i>
   <i type="logical" name="LFXCEPS"> F  </i>
   <i type="logical" name="LFXHEG"> F  </i>
   <i type="int" name="NATURALO">     0</i>
   <i type="logical" name="L2ORDER"> F  </i>
   <i type="logical" name="LUSEW"> F  </i>
   <i name="ENCUTGW">     -2.00000000</i>
   <i name="ENCUTGWSOFT">     -2.00000000</i>
   <i name="ENCUTLF">     -1.00000000</i>
   <i type="int" name="LMAXMP2">    -1</i>
   <i name="SCISSOR">      0.00000000</i>
   <i type="int" name="NOMEGA">     0</i>
   <i type="int" name="NOMEGAR">     0</i>
   <i type="int" name="NBANDSGW">    -1</i>
   <i type="int" name="NBANDSO">    -1</i>
   <i type="int" name="NBANDSV">    -1</i>
   <i type="int" name="NELM">     1</i>
   <i type="int" name="NELMHF">     1</i>
   <i type="int" name="DIM">     3</i>
   <i type="int" name="ANTIRES">     0</i>
   <i name="OMEGAMAX">    -30.00000000</i>
   <i name="OMEGAMIN">    -30.00000000</i>
   <i name="OMEGATL">   -200.00000000</i>
   <i type="int" name="OMEGAGRID">     0</i>
   <i name="CSHIFT">     -0.10000000</i>
   <i type="logical" name="SELFENERGY"> F  </i>
   <i type="logical" name="LSPECTRAL"> F  </i>
   <i type="logical" name="LSPECTRALGW"> F  </i>
   <i type="logical" name="LSINGLES"> F  </i>
   <i type="logical" name="LFERMIGW"> F  </i>
   <i type="logical" name="ODDONLYGW"> F  </i>
   <i type="logical" name="EVENONLYGW"> F  </i>
   <i type="int" name="NKREDLFX">     1</i>
   <i type="int" name="NKREDLFY">     1</i>
   <i type="int" name="NKREDLFZ">     1</i>
   <i type="int" name="MAXMEM">  1800</i>
   <i type="int" name="TELESCOPE">     0</i>
   <i type="int" name="TAUPAR">     1</i>
   <i type="int" name="OMEGAPAR">    -1</i>
   <i name="LAMBDA">      1.00000000</i>
  </separator>
  <separator name="External order field" >
   <i name="OFIELD_KAPPA">      0.00000000</i>
   <v name="OFIELD_K">      0.00000000      0.00000000      0.00000000</v>
   <i name="OFIELD_Q6_NEAR">      0.00000000</i>
   <i name="OFIELD_Q6_FAR">      0.00000000</i>
   <i name="OFIELD_A">      0.00000000</i>
  </separator>
 </parameters>
 <atominfo>
  <atoms>      27 </atoms>
  <types>       4 </types>
  <array name="atoms" >
   <dimension dim="1">ion</dimension>
   <field type="string">element</field>
   <field type="int">atomtype</field>
   <set>
    <rc><c>V </c><c>   1</c></rc>
    <rc><c>V </c><c>   1</c></rc>
    <rc><c>V </c><c>   1</c></rc>
    <rc><c>Mo</c><c>   2</c></rc>
    <rc><c>Mo</c><c>   2</c></rc>
    <rc><c>Mo</c><c>   2</c></rc>
    <rc><c>W </c><c>   3</c></rc>
    <rc><c>W </c><c>   3</c></rc>
    <rc><c>W </c><c>   3</c></rc>
    <rc><c>S </c><c>   4</c></rc>
    <rc><c>S </c><c>   4</c></rc>
    <rc><c>S </c><c>   4</c></rc>
    <rc><c>S </c><c>   4</c></rc>
    <rc><c>S </c><c>   4</c></rc>
    <rc><c>S </c><c>   4</c></rc>
    <rc><c>S </c><c>   4</c></rc>
    <rc><c>S </c><c>   4</c></rc>
    <rc><c>S </c><c>   4</c></rc>
    <rc><c>S </c><c>   4</c></rc>
    <rc><c>S </c><c>   4</c></rc>
    <rc><c>S </c><c>   4</c></rc>
    <rc><c>S </c><c>   4</c></rc>
    <rc><c>S </c><c>   4</c></rc>
    <rc><c>S </c><c>   4</c></rc>
    <rc><c>S </c><c>   4</c></rc>
    <rc><c>S </c><c>   4</c></rc>
    <rc><c>S </c><c>   4</c></rc>
   </set>
  </array>
  <array name="atomtypes" >
   <dimension dim="1">type</dimension>
   <field type="int">atomspertype</field>
   <field type="string">element</field>
   <field>mass</field>
   <field>valence</field>
   <field type="string">pseudopotential</field>
   <set>
    <rc><c>   3</c><c>V </c><c>     50.94100000</c><c>      5.00000000</c><c> PAW_PBE V 08Apr2002                    </c></rc>
    <rc><c>   3</c><c>Mo</c><c>     95.94000000</c><c>      6.00000000</c><c> PAW_PBE Mo 08Apr2002                   </c></rc>
    <rc><c>   3</c><c>W </c><c>    183.85000000</c><c>      6.00000000</c><c> PAW_PBE W 08Apr2002                    </c></rc>
    <rc><c>  18</c><c>S </c><c>     32.06600000</c><c>      6.00000000</c><c>  PAW_PBE S 17Jan2003                   </c></rc>
   </set>
  </array>
 </atominfo>
 <structure name="initialpos" >
  <crystal>
   <varray name="basis" >
    <v>       8.66999996       5.03999989       0.00000000 </v>
    <v>      -8.66999982       5.04000013       0.00000000 </v>
    <v>       0.00000000       0.00000000      30.00000000 </v>
   </varray>
   <i name="volume">   2621.80797419 </i>
   <varray name="rec_basis" >
    <v>       0.05767013       0.09920635       0.00000000 </v>
    <v>      -0.05767013       0.09920635       0.00000000 </v>
    <v>       0.00000000       0.00000000       0.03333333 </v>
   </varray>
  </crystal>
  <varray name="positions" >
   <v>       0.33333334       0.33333334       0.00000000 </v>
   <v>       1.00000000       0.33333334       0.00000000 </v>
   <v>       0.66666669       0.33333334       0.00000000 </v>
   <v>       0.00000000       0.66666669       0.00000000 </v>
   <v>       0.00000000       0.00000000       0.00000000 </v>
   <v>       0.66666669       0.66666669       0.00000000 </v>
   <v>       0.33333334       0.00000000       0.00000000 </v>
   <v>       0.33333334       0.66666669       0.00000000 </v>
   <v>       0.66666669       0.00000000       0.00000000 </v>
   <v>       0.11068511       0.22244981       0.95539999 </v>
   <v>       0.22244981       0.11068511       0.04460000 </v>
   <v>       0.11068511       0.55578315       0.95539999 </v>
   <v>       0.22244981       0.44401845       0.04460000 </v>
   <v>       0.11068511       0.88911647       0.95539999 </v>
   <v>       0.22244981       0.77735180       0.04460000 </v>
   <v>       0.44401845       0.22244981       0.95539999 </v>
   <v>       0.55578315       0.11068511       0.04460000 </v>
   <v>       0.44401845       0.55578315       0.95539999 </v>
   <v>       0.55578315       0.44401845       0.04460000 </v>
   <v>       0.44401845       0.88911647       0.95539999 </v>
   <v>       0.55578315       0.77735180       0.04460000 </v>
   <v>       0.77735180       0.22244981       0.95539999 </v>
   <v>       0.88911647       0.11068511       0.04460000 </v>
   <v>       0.77735180       0.55578315       0.95539999 </v>
   <v>       0.88911647       0.44401845       0.04460000 </v>
   <v>       0.77735180       0.88911647       0.95539999 </v>
   <v>       0.88911647       0.77735180       0.04460000 </v>
  </varray>
 </structure>
 <calculation>
  <scstep>
   <time name="dav">   21.57   21.62</time>
   <time name="total">   21.61   21.67</time>
   <energy>
    <i name="alphaZ">     81.65567618 </i>
    <i name="ewald">  41891.19379415 </i>
    <i name="hartreedc"> -47723.83914494 </i>
    <i name="XCdc">   -242.92452217 </i>
    <i name="pawpsdc">   3467.42045192 </i>
    <i name="pawaedc">  -2871.19716117 </i>
    <i name="eentropy">     -0.52803334 </i>
    <i name="bandstr">   -239.48659512 </i>
    <i name="atom">   6761.44252427 </i>
    <i name="e_fr_energy">   1123.73698978 </i>
    <i name="e_wo_entrp">   1124.26502313 </i>
    <i name="e_0_energy">   1124.00100645 </i>
   </energy>
  </scstep>
  <scstep>
   <time name="dav">   28.31   28.38</time>
   <time name="total">   28.31   28.39</time>
   <energy>
    <i name="e_fr_energy">     -4.21474560 </i>
    <i name="e_wo_entrp">     -3.99915594 </i>
    <i name="e_0_energy">     -4.10695077 </i>
   </energy>
  </scstep>
  <scstep>
   <time name="dav">   27.38   27.44</time>
   <time name="total">   27.38   27.45</time>
   <energy>
    <i name="e_fr_energy">   -199.98261627 </i>
    <i name="e_wo_entrp">   -199.71374105 </i>
    <i name="e_0_energy">   -199.84817866 </i>
   </energy>
  </scstep>
  <scstep>
   <time name="dav">   30.00   30.08</time>
   <time name="total">   30.01   30.09</time>
   <energy>
    <i name="e_fr_energy">   -209.04597491 </i>
    <i name="e_wo_entrp">   -208.76826271 </i>
    <i name="e_0_energy">   -208.90711881 </i>
   </energy>
  </scstep>
  <scstep>
   <time name="dav">   28.48   28.55</time>
   <time name="total">   28.95   29.02</time>
   <energy>
    <i name="e_fr_energy">   -209.35575637 </i>
    <i name="e_wo_entrp">   -209.08079753 </i>
    <i name="e_0_energy">   -209.21827695 </i>
   </energy>
  </scstep>
  <scstep>
   <time name="dav">   30.55   30.63</time>
   <time name="total">   31.05   31.13</time>
   <energy>
    <i name="e_fr_energy">   -240.93799734 </i>
    <i name="e_wo_entrp">   -240.66318699 </i>
    <i name="e_0_energy">   -240.80059216 </i>
   </energy>
  </scstep>
  <scstep>
   <time name="dav">   32.15   32.23</time>
   <time name="total">   32.65   32.74</time>
   <energy>
    <i name="e_fr_energy">   -196.27444797 </i>
    <i name="e_wo_entrp">   -195.94363859 </i>
    <i name="e_0_energy">   -196.10904328 </i>
   </energy>
  </scstep>
  <scstep>
   <time name="dav">   29.47   29.54</time>
   <time name="total">   29.98   30.06</time>
   <energy>
    <i name="e_fr_energy">   -189.53229180 </i>
    <i name="e_wo_entrp">   -189.19534252 </i>
    <i name="e_0_energy">   -189.36381716 </i>
   </energy>
  </scstep>
  <scstep>
   <time name="dav">   31.00   31.07</time>
   <time name="total">   31.52   31.60</time>
   <energy>
    <i name="e_fr_energy">   -188.08345998 </i>
    <i name="e_wo_entrp">   -187.73788003 </i>
    <i name="e_0_energy">   -187.91067001 </i>
   </energy>
  </scstep>
  <scstep>
   <time name="dav">   32.55   32.62</time>
   <time name="total">   33.08   33.17</time>
   <energy>
    <i name="e_fr_energy">   -186.92918236 </i>
    <i name="e_wo_entrp">   -186.57534949 </i>
    <i name="e_0_energy">   -186.75226593 </i>
   </energy>
  </scstep>
  <scstep>
   <time name="dav">   32.48   32.55</time>
   <time name="total">   33.01   33.09</time>
   <energy>
    <i name="e_fr_energy">   -187.07889216 </i>
    <i name="e_wo_entrp">   -186.73985580 </i>
    <i name="e_0_energy">   -186.90937398 </i>
   </energy>
  </scstep>
  <scstep>
   <time name="dav">   31.27   31.35</time>
   <time name="total">   31.81   31.89</time>
   <energy>
    <i name="e_fr_energy">   -186.92432822 </i>
    <i name="e_wo_entrp">   -186.58363997 </i>
    <i name="e_0_energy">   -186.75398410 </i>
   </energy>
  </scstep>
  <scstep>
   <time name="dav">   31.81   31.89</time>
   <time name="total">   32.34   32.43</time>
   <energy>
    <i name="e_fr_energy">   -186.85550677 </i>
    <i name="e_wo_entrp">   -186.51114470 </i>
    <i name="e_0_energy">   -186.68332574 </i>
   </energy>
  </scstep>
  <scstep>
   <time name="dav">   31.28   31.36</time>
   <time name="total">   31.82   31.90</time>
   <energy>
    <i name="e_fr_energy">   -186.84304880 </i>
    <i name="e_wo_entrp">   -186.49687763 </i>
    <i name="e_0_energy">   -186.66996322 </i>
   </energy>
  </scstep>
  <scstep>
   <time name="dav">   32.03   32.11</time>
   <time name="total">   32.57   32.66</time>
   <energy>
    <i name="e_fr_energy">   -186.82968218 </i>
    <i name="e_wo_entrp">   -186.48259349 </i>
    <i name="e_0_energy">   -186.65613783 </i>
   </energy>
  </scstep>
  <scstep>
   <time name="dav">   30.34   30.42</time>
   <time name="total">   30.88   30.96</time>
   <energy>
    <i name="e_fr_energy">   -186.82744860 </i>
    <i name="e_wo_entrp">   -186.48080960 </i>
    <i name="e_0_energy">   -186.65412910 </i>
   </energy>
  </scstep>
  <scstep>
   <time name="dav">   30.88   30.95</time>
   <time name="total">   31.41   31.50</time>
   <energy>
    <i name="e_fr_energy">   -186.82612911 </i>
    <i name="e_wo_entrp">   -186.48030967 </i>
    <i name="e_0_energy">   -186.65321939 </i>
   </energy>
  </scstep>
  <scstep>
   <time name="dav">   31.00   31.07</time>
   <time name="total">   31.54   31.62</time>
   <energy>
    <i name="e_fr_energy">   -186.82563030 </i>
    <i name="e_wo_entrp">   -186.47939828 </i>
    <i name="e_0_energy">   -186.65251429 </i>
   </energy>
  </scstep>
  <scstep>
   <time name="dav">   26.21   26.27</time>
   <time name="total">   26.74   26.81</time>
   <energy>
    <i name="e_fr_energy">   -186.82627797 </i>
    <i name="e_wo_entrp">   -186.48045148 </i>
    <i name="e_0_energy">   -186.65336472 </i>
   </energy>
  </scstep>
  <scstep>
   <time name="dav">   20.36   20.41</time>
   <time name="total">   20.90   20.96</time>
   <energy>
    <i name="e_fr_energy">   -186.82674307 </i>
    <i name="e_wo_entrp">   -186.48098197 </i>
    <i name="e_0_energy">   -186.65386252 </i>
   </energy>
  </scstep>
  <scstep>
   <time name="dav">   20.20   20.25</time>
   <time name="total">   20.74   20.79</time>
   <energy>
    <i name="e_fr_energy">   -186.82780878 </i>
    <i name="e_wo_entrp">   -186.48199355 </i>
    <i name="e_0_energy">   -186.65490117 </i>
   </energy>
  </scstep>
  <scstep>
   <time name="dav">   21.44   21.49</time>
   <time name="total">   21.97   22.03</time>
   <energy>
    <i name="e_fr_energy">   -186.82889974 </i>
    <i name="e_wo_entrp">   -186.48306313 </i>
    <i name="e_0_energy">   -186.65598144 </i>
   </energy>
  </scstep>
  <scstep>
   <time name="dav">   17.67   17.71</time>
   <time name="total">   18.20   18.25</time>
   <energy>
    <i name="e_fr_energy">   -186.82936764 </i>
    <i name="e_wo_entrp">   -186.48353197 </i>
    <i name="e_0_energy">   -186.65644981 </i>
   </energy>
  </scstep>
  <scstep>
   <time name="dav">   19.59   19.64</time>
   <time name="total">   20.12   20.18</time>
   <energy>
    <i name="e_fr_energy">   -186.83001363 </i>
    <i name="e_wo_entrp">   -186.48417613 </i>
    <i name="e_0_energy">   -186.65709488 </i>
   </energy>
  </scstep>
  <scstep>
   <time name="dav">   18.07   18.12</time>
   <time name="total">   18.61   18.66</time>
   <energy>
    <i name="e_fr_energy">   -186.83036347 </i>
    <i name="e_wo_entrp">   -186.48451274 </i>
    <i name="e_0_energy">   -186.65743811 </i>
   </energy>
  </scstep>
  <scstep>
   <time name="dav">   18.91   18.95</time>
   <time name="total">   19.44   19.50</time>
   <energy>
    <i name="e_fr_energy">   -186.83060765 </i>
    <i name="e_wo_entrp">   -186.48476805 </i>
    <i name="e_0_energy">   -186.65768785 </i>
   </energy>
  </scstep>
  <scstep>
   <time name="dav">   20.55   20.59</time>
   <time name="total">   20.58   20.64</time>
   <energy>
    <i name="alphaZ">     81.65567618 </i>
    <i name="ewald">  41891.19379415 </i>
    <i name="hartreedc"> -47833.69802066 </i>
    <i name="XCdc">   -231.60754208 </i>
    <i name="pawpsdc">   4192.07309145 </i>
    <i name="pawaedc">  -3610.07343119 </i>
    <i name="eentropy">     -0.34583926 </i>
    <i name="bandstr">  -1437.47092996 </i>
    <i name="atom">   6761.44252427 </i>
    <i name="e_fr_energy">   -186.83067709 </i>
    <i name="e_wo_entrp">   -186.48483783 </i>
    <i name="e_0_energy">   -186.65775746 </i>
   </energy>
  </scstep>
  <structure>
   <crystal>
    <varray name="basis" >
     <v>       8.66999996       5.03999989       0.00000000 </v>
     <v>      -8.66999982       5.04000013       0.00000000 </v>
     <v>       0.00000000       0.00000000      30.00000000 </v>
    </varray>
    <i name="volume">   2621.80797419 </i>
    <varray name="rec_basis" >
     <v>       0.05767013       0.09920635       0.00000000 </v>
     <v>      -0.05767013       0.09920635       0.00000000 </v>
     <v>       0.00000000       0.00000000       0.03333333 </v>
    </varray>
   </crystal>
   <varray name="positions" >
    <v>       0.33333334       0.33333334       0.00000000 </v>
    <v>       1.00000000       0.33333334       0.00000000 </v>
    <v>       0.66666669       0.33333334       0.00000000 </v>
    <v>       0.00000000       0.66666669       0.00000000 </v>
    <v>       0.00000000       0.00000000       0.00000000 </v>
    <v>       0.66666669       0.66666669       0.00000000 </v>
    <v>       0.33333334       0.00000000       0.00000000 </v>
    <v>       0.33333334       0.66666669       0.00000000 </v>
    <v>       0.66666669       0.00000000       0.00000000 </v>
    <v>       0.11068511       0.22244981       0.95539999 </v>
    <v>       0.22244981       0.11068511       0.04460000 </v>
    <v>       0.11068511       0.55578315       0.95539999 </v>
    <v>       0.22244981       0.44401845       0.04460000 </v>
    <v>       0.11068511       0.88911647       0.95539999 </v>
    <v>       0.22244981       0.77735180       0.04460000 </v>
    <v>       0.44401845       0.22244981       0.95539999 </v>
    <v>       0.55578315       0.11068511       0.04460000 </v>
    <v>       0.44401845       0.55578315       0.95539999 </v>
    <v>       0.55578315       0.44401845       0.04460000 </v>
    <v>       0.44401845       0.88911647       0.95539999 </v>
    <v>       0.55578315       0.77735180       0.04460000 </v>
    <v>       0.77735180       0.22244981       0.95539999 </v>
    <v>       0.88911647       0.11068511       0.04460000 </v>
    <v>       0.77735180       0.55578315       0.95539999 </v>
    <v>       0.88911647       0.44401845       0.04460000 </v>
    <v>       0.77735180       0.88911647       0.95539999 </v>
    <v>       0.88911647       0.77735180       0.04460000 </v>
   </varray>
  </structure>
  <varray name="forces" >
   <v>       0.00951611      -0.01353853      -0.02644741 </v>
   <v>       0.00952652      -0.01225367      -0.02782525 </v>
   <v>      -0.22841740       0.37878539       0.05662928 </v>
   <v>      -0.49876484      -0.02929153       0.13697440 </v>
   <v>       0.23618210      -0.39449096      -0.17382391 </v>
   <v>       0.27833218       0.39420732       0.13236832 </v>
   <v>      -0.34374980      -0.39841822      -0.11422855 </v>
   <v>       0.05078005      -0.07558314       0.09176782 </v>
   <v>       0.51528216       0.07619498      -0.12012732 </v>
   <v>      -0.32543165       0.66871443      -1.38125829 </v>
   <v>      -0.37352447       0.71133143       2.15650377 </v>
   <v>       0.61416044      -0.54732540      -2.10521052 </v>
   <v>       0.23319098      -0.51535292       1.43261289 </v>
   <v>       0.18810519       0.19026974      -2.92746439 </v>
   <v>      -0.02867342       0.10620944       2.91880182 </v>
   <v>      -0.23827807       0.52151975      -1.41523573 </v>
   <v>      -0.46531223       0.56645530       2.09359074 </v>
   <v>       0.37047873      -0.69265014      -2.11339555 </v>
   <v>       0.32608534      -0.66059426       1.40909710 </v>
   <v>       0.10908936       0.04348488      -2.92648887 </v>
   <v>      -0.26060874      -0.03262647       2.91561262 </v>
   <v>      -0.23847095       0.52253508      -1.41199901 </v>
   <v>      -0.62457876       0.56078471       2.14827519 </v>
   <v>       0.53499850      -0.70533319      -2.16717004 </v>
   <v>       0.31606505      -0.66797248       1.40576536 </v>
   <v>      -0.06988453       0.03647533      -2.92930064 </v>
   <v>      -0.09609784      -0.03153686       2.94197617 </v>
  </varray>
  <varray name="stress" >
   <v>       7.27064266      -0.13421710      -1.56551656 </v>
   <v>      -0.13421714       4.50432280      -0.00062492 </v>
   <v>      -1.56551660      -0.00062507      30.31227750 </v>
  </varray>
  <energy>
   <i name="e_fr_energy">   -186.83067709 </i>
   <i name="e_wo_entrp">   -186.65775746 </i>
   <i name="e_0_energy">     -0.34583926 </i>
  </energy>
  <time name="totalsc">  778.77  780.86</time>
 </calculation>
 <calculation>
  <scstep>
   <time name="dav">   21.54   21.59</time>
   <time name="total">   22.08   22.14</time>
   <energy>
    <i name="alphaZ">     78.91661762 </i>
    <i name="ewald">  39376.57367371 </i>
    <i name="hartreedc"> -45333.83751675 </i>
    <i name="XCdc">   -239.07970386 </i>
    <i name="pawpsdc">   4192.05018100 </i>
    <i name="pawaedc">  -3610.05088640 </i>
    <i name="eentropy">     -0.28810235 </i>
    <i name="bandstr">  -1413.24921624 </i>
    <i name="atom">   6761.44252427 </i>
    <i name="e_fr_energy">   -187.52242901 </i>
    <i name="e_wo_entrp">   -187.23432666 </i>
    <i name="e_0_energy">   -187.37837783 </i>
   </energy>
  </scstep>
  <scstep>
   <time name="dav">   30.09   30.16</time>
   <time name="total">   30.62   30.71</time>
   <energy>
    <i name="e_fr_energy">   -189.50758588 </i>
    <i name="e_wo_entrp">   -189.18103677 </i>
    <i name="e_0_energy">   -189.34431133 </i>
   </energy>
  </scstep>
  <scstep>
   <time name="dav">   30.63   30.71</time>
   <time name="total">   31.19   31.27</time>
   <energy>
    <i name="e_fr_energy">   -189.34960034 </i>
    <i name="e_wo_entrp">   -189.07509327 </i>
    <i name="e_0_energy">   -189.21234681 </i>
   </energy>
  </scstep>
  <scstep>
   <time name="dav">   31.11   31.19</time>
   <time name="total">   31.65   31.74</time>
   <energy>
    <i name="e_fr_energy">   -188.77269976 </i>
    <i name="e_wo_entrp">   -188.48615344 </i>
    <i name="e_0_energy">   -188.62942660 </i>
   </energy>
  </scstep>
  <scstep>
   <time name="dav">   26.28   26.34</time>
   <time name="total">   26.82   26.89</time>
   <energy>
    <i name="e_fr_energy">   -188.73056699 </i>
    <i name="e_wo_entrp">   -188.44420472 </i>
    <i name="e_0_energy">   -188.58738586 </i>
   </energy>
  </scstep>
  <scstep>
   <time name="dav">   32.18   32.26</time>
   <time name="total">   32.72   32.81</time>
   <energy>
    <i name="e_fr_energy">   -188.77928287 </i>
    <i name="e_wo_entrp">   -188.49027174 </i>
    <i name="e_0_energy">   -188.63477730 </i>
   </energy>
  </scstep>
  <scstep>
   <time name="dav">   31.18   31.25</time>
   <time name="total">   31.72   31.81</time>
   <energy>
    <i name="e_fr_energy">   -188.71216938 </i>
    <i name="e_wo_entrp">   -188.42578576 </i>
    <i name="e_0_energy">   -188.56897757 </i>
   </energy>
  </scstep>
  <scstep>
   <time name="dav">   28.45   28.52</time>
   <time name="total">   28.99   29.07</time>
   <energy>
    <i name="e_fr_energy">   -188.68890438 </i>
    <i name="e_wo_entrp">   -188.40335644 </i>
    <i name="e_0_energy">   -188.54613041 </i>
   </energy>
  </scstep>
  <scstep>
   <time name="dav">   30.61   30.69</time>
   <time name="total">   31.15   31.23</time>
   <energy>
    <i name="e_fr_energy">   -188.68993034 </i>
    <i name="e_wo_entrp">   -188.40460250 </i>
    <i name="e_0_energy">   -188.54726642 </i>
   </energy>
  </scstep>
  <scstep>
   <time name="dav">   31.83   31.91</time>
   <time name="total">   32.38   32.46</time>
   <energy>
    <i name="e_fr_energy">   -188.68783102 </i>
    <i name="e_wo_entrp">   -188.40290496 </i>
    <i name="e_0_energy">   -188.54536799 </i>
   </energy>
  </scstep>
  <scstep>
   <time name="dav">   28.63   28.70</time>
   <time name="total">   29.17   29.25</time>
   <energy>
    <i name="e_fr_energy">   -188.68734690 </i>
    <i name="e_wo_entrp">   -188.40264117 </i>
    <i name="e_0_energy">   -188.54499403 </i>
   </energy>
  </scstep>
  <scstep>
   <time name="dav">   25.49   25.55</time>
   <time name="total">   25.53   25.60</time>
   <energy>
    <i name="alphaZ">     78.91661762 </i>
    <i name="ewald">  39376.57367371 </i>
    <i name="hartreedc"> -45344.81201635 </i>
    <i name="XCdc">   -237.98148232 </i>
    <i name="pawpsdc">   3950.91130269 </i>
    <i name="pawaedc">  -3365.42430886 </i>
    <i name="eentropy">     -0.28471256 </i>
    <i name="bandstr">  -1408.02902995 </i>
    <i name="atom">   6761.44252427 </i>
    <i name="e_fr_energy">   -188.68743174 </i>
    <i name="e_wo_entrp">   -188.40271918 </i>
    <i name="e_0_energy">   -188.54507546 </i>
   </energy>
  </scstep>
  <structure>
   <crystal>
    <varray name="basis" >
     <v>       8.85233240       5.10297452       0.00000000 </v>
     <v>      -8.85628798       5.10977955       0.00000000 </v>
     <v>       0.00000000       0.00000000      30.00000000 </v>
    </varray>
    <i name="volume">   2712.80636961 </i>
    <varray name="rec_basis" >
     <v>       0.05650731       0.09793867       0.00000000 </v>
     <v>      -0.05643205       0.09789492       0.00000000 </v>
     <v>       0.00000000       0.00000000       0.03333333 </v>
    </varray>
   </crystal>
   <varray name="positions" >
    <v>       0.33329502       0.33324207      -0.00004253 </v>
    <v>       0.99996786       0.33324819      -0.00004475 </v>
    <v>       0.66784405       0.33578170       0.00009106 </v>
    <v>      -0.00152783       0.66791414       0.00022027 </v>
    <v>      -0.00123093      -0.00254512      -0.00027952 </v>
    <v>       0.66932772       0.66777899       0.00021286 </v>
    <v>       0.33047016      -0.00095045      -0.00018369 </v>
    <v>       0.33311288       0.66616367       0.00014757 </v>
    <v>       0.66846495      -0.00106893      -0.00019318 </v>
    <v>       0.11298016       0.22655566       0.95317880 </v>
    <v>       0.22481502       0.11512873       0.04806785 </v>
    <v>       0.10977432       0.55145497       0.95201463 </v>
    <v>       0.22063212       0.44090321       0.04690377 </v>
    <v>       0.11211908       0.88950375       0.95069237 </v>
    <v>       0.22287835       0.77793989       0.04929369 </v>
    <v>       0.44585151       0.22560872       0.95312417 </v>
    <v>       0.55719962       0.11469073       0.04796668 </v>
    <v>       0.44173418       0.55143741       0.95200146 </v>
    <v>       0.55352878       0.43994964       0.04686595 </v>
    <v>       0.44453008       0.88902108       0.95069394 </v>
    <v>       0.55490195       0.77792070       0.04928856 </v>
    <v>       0.77918917       0.22561411       0.95312937 </v>
    <v>       0.89006269       0.11510669       0.04805462 </v>
    <v>       0.77546454       0.55091899       0.95191499 </v>
    <v>       0.88679891       0.43994221       0.04686059 </v>
    <v>       0.77733194       0.88948547       0.95068942 </v>
    <v>       0.88869817       0.77746822       0.04933096 </v>
   </varray>
  </structure>
  <varray name="forces" >
   <v>      -0.00257867      -0.00460259      -0.08909370 </v>
   <v>       0.00660140      -0.00076807      -0.08964078 </v>
   <v>      -0.18195868       0.32015037       0.11078124 </v>
   <v>      -0.55603270       0.20861008       0.03715527 </v>
   <v>       0.32258474      -0.55889480      -0.02205008 </v>
   <v>       0.09220775       0.58679728       0.03320244 </v>
   <v>      -0.17843380      -0.51727440       0.07829539 </v>
   <v>      -0.07171457       0.13696811      -0.08886817 </v>
   <v>       0.53118055      -0.10733496       0.07237686 </v>
   <v>      -0.00611581       0.03743428       0.13759255 </v>
   <v>       0.09635512       0.04139381      -0.07190951 </v>
   <v>       0.06407413       0.05204173       0.17060062 </v>
   <v>      -0.05127316       0.06161167      -0.04818473 </v>
   <v>       0.04853323       0.08755144      -0.29324361 </v>
   <v>       0.06074565       0.09487595       0.03332972 </v>
   <v>       0.04959824      -0.07170200       0.13550896 </v>
   <v>       0.06336489      -0.08055890      -0.38506387 </v>
   <v>      -0.09678627      -0.03849305       0.17123594 </v>
   <v>       0.01497256      -0.03419003      -0.05440578 </v>
   <v>      -0.01970138       0.00930571       0.11422493 </v>
   <v>      -0.09555325       0.00535412       0.04081396 </v>
   <v>       0.06083512      -0.06802732       0.14140050 </v>
   <v>      -0.06438757      -0.05004758      -0.07232563 </v>
   <v>       0.02979631      -0.07108770      -0.11747773 </v>
   <v>      -0.00243396      -0.04304234      -0.05921006 </v>
   <v>      -0.11311518      -0.00526467      -0.28544946 </v>
   <v>      -0.00076472       0.00919384       0.40040468 </v>
  </varray>
  <varray name="stress" >
   <v>     -19.94412577       0.04593821      -0.00215736 </v>
   <v>       0.04593849     -19.56043392       0.07980200 </v>
   <v>      -0.00215729       0.07980190      -1.85180688 </v>
  </varray>
  <energy>
   <i name="e_fr_energy">   -188.68743174 </i>
   <i name="e_wo_entrp">   -188.54507546 </i>
   <i name="e_0_energy">     -0.28471256 </i>
  </energy>
  <time name="totalsc">  395.85  396.90</time>
 </calculation>
 <calculation>
  <scstep>
   <time name="dav">   23.67   23.73</time>
   <time name="total">   24.20   24.26</time>
   <energy>
    <i name="alphaZ">     82.34696314 </i>
    <i name="ewald">  41303.45929028 </i>
    <i name="hartreedc"> -47302.34710347 </i>
    <i name="XCdc">   -233.85078098 </i>
    <i name="pawpsdc">   3950.28910347 </i>
    <i name="pawaedc">  -3364.79488323 </i>
    <i name="eentropy">     -0.24031563 </i>
    <i name="bandstr">  -1386.93259221 </i>
    <i name="atom">   6761.44252427 </i>
    <i name="e_fr_energy">   -190.62779435 </i>
    <i name="e_wo_entrp">   -190.38747872 </i>
    <i name="e_0_energy">   -190.50763653 </i>
   </energy>
  </scstep>
  <scstep>
   <time name="dav">   28.73   28.79</time>
   <time name="total">   29.26   29.33</time>
   <energy>
    <i name="e_fr_energy">   -190.54647652 </i>
    <i name="e_wo_entrp">   -190.30874418 </i>
    <i name="e_0_energy">   -190.42761035 </i>
   </energy>
  </scstep>
  <scstep>
   <time name="dav">   30.36   30.44</time>
   <time name="total">   30.88   30.97</time>
   <energy>
    <i name="e_fr_energy">   -190.12353604 </i>
    <i name="e_wo_entrp">   -189.87114860 </i>
    <i name="e_0_energy">   -189.99734232 </i>
   </energy>
  </scstep>
  <scstep>
   <time name="dav">   30.90   30.97</time>
   <time name="total">   31.43   31.51</time>
   <energy>
    <i name="e_fr_energy">   -189.89568529 </i>
    <i name="e_wo_entrp">   -189.65650301 </i>
    <i name="e_0_energy">   -189.77609415 </i>
   </energy>
  </scstep>
  <scstep>
   <time name="dav">   29.17   29.24</time>
   <time name="total">   29.70   29.78</time>
   <energy>
    <i name="e_fr_energy">   -189.81230756 </i>
    <i name="e_wo_entrp">   -189.56908286 </i>
    <i name="e_0_energy">   -189.69069521 </i>
   </energy>
  </scstep>
  <scstep>
   <time name="dav">   29.32   29.39</time>
   <time name="total">   29.85   29.93</time>
   <energy>
    <i name="e_fr_energy">   -189.80028648 </i>
    <i name="e_wo_entrp">   -189.55698282 </i>
    <i name="e_0_energy">   -189.67863465 </i>
   </energy>
  </scstep>
  <scstep>
   <time name="dav">   28.73   28.80</time>
   <time name="total">   29.26   29.34</time>
   <energy>
    <i name="e_fr_energy">   -189.79399427 </i>
    <i name="e_wo_entrp">   -189.55090312 </i>
    <i name="e_0_energy">   -189.67244870 </i>
   </energy>
  </scstep>
  <scstep>
   <time name="dav">   28.52   28.59</time>
   <time name="total">   29.05   29.13</time>
   <energy>
    <i name="e_fr_energy">   -189.79366627 </i>
    <i name="e_wo_entrp">   -189.55052644 </i>
    <i name="e_0_energy">   -189.67209636 </i>
   </energy>
  </scstep>
  <scstep>
   <time name="dav">   26.82   26.89</time>
   <time name="total">   27.35   27.42</time>
   <energy>
    <i name="e_fr_energy">   -189.79417950 </i>
    <i name="e_wo_entrp">   -189.55095440 </i>
    <i name="e_0_energy">   -189.67256695 </i>
   </energy>
  </scstep>
  <scstep>
   <time name="dav">   26.81   26.87</time>
   <time name="total">   27.34   27.41</time>
   <energy>
    <i name="e_fr_energy">   -189.79399929 </i>
    <i name="e_wo_entrp">   -189.55065954 </i>
    <i name="e_0_energy">   -189.67232942 </i>
   </energy>
  </scstep>
  <scstep>
   <time name="dav">   23.17   23.23</time>
   <time name="total">   23.70   23.77</time>
   <energy>
    <i name="e_fr_energy">   -189.79382015 </i>
    <i name="e_wo_entrp">   -189.55048223 </i>
    <i name="e_0_energy">   -189.67215119 </i>
   </energy>
  </scstep>
  <scstep>
   <time name="dav">   17.20   17.24</time>
   <time name="total">   17.23   17.28</time>
   <energy>
    <i name="alphaZ">     82.34696314 </i>
    <i name="ewald">  41303.45929028 </i>
    <i name="hartreedc"> -47275.58970507 </i>
    <i name="XCdc">   -235.24710358 </i>
    <i name="pawpsdc">   4038.89381687 </i>
    <i name="pawaedc">  -3454.59960208 </i>
    <i name="eentropy">     -0.24332522 </i>
    <i name="bandstr">  -1410.25668216 </i>
    <i name="atom">   6761.44252427 </i>
    <i name="e_fr_energy">   -189.79382355 </i>
    <i name="e_wo_entrp">   -189.55049833 </i>
    <i name="e_0_energy">   -189.67216094 </i>
   </energy>
  </scstep>
  <structure>
   <crystal>
    <varray name="basis" >
     <v>       8.66442950       4.99703288       0.00000000 </v>
     <v>      -8.66780102       5.00282910       0.00000000 </v>
     <v>       0.00000000       0.00000000      30.00000000 </v>
    </varray>
    <i name="volume">   2599.79839895 </i>
    <varray name="rec_basis" >
     <v>       0.05772943       0.10002084       0.00000000 </v>
     <v>      -0.05766254       0.09998194       0.00000000 </v>
     <v>       0.00000000       0.00000000       0.03333333 </v>
    </varray>
   </crystal>
   <varray name="positions" >
    <v>       0.33328489       0.33323689      -0.00009300 </v>
    <v>       0.99997292       0.33324058      -0.00009552 </v>
    <v>       0.66820217       0.33648880       0.00015382 </v>
    <v>      -0.00171458       0.66879442       0.00024131 </v>
    <v>      -0.00185136      -0.00378427      -0.00029201 </v>
    <v>       0.67039291       0.66866677       0.00023167 </v>
    <v>       0.32943788      -0.00163988      -0.00013934 </v>
    <v>       0.33327198       0.66646031       0.00009723 </v>
    <v>       0.66879639      -0.00175690      -0.00015218 </v>
    <v>       0.11303659       0.22662381       0.95325675 </v>
    <v>       0.22497644       0.11510519       0.04802711 </v>
    <v>       0.10992246       0.55148010       0.95211126 </v>
    <v>       0.22068542       0.44105488       0.04687647 </v>
    <v>       0.11231140       0.88960286       0.95052626 </v>
    <v>       0.22309459       0.77803947       0.04931257 </v>
    <v>       0.44577980       0.22544187       0.95320093 </v>
    <v>       0.55712639       0.11449594       0.04774855 </v>
    <v>       0.44157717       0.55146619       0.95209846 </v>
    <v>       0.55348626       0.43987840       0.04683513 </v>
    <v>       0.44452664       0.88905545       0.95075864 </v>
    <v>       0.55481910       0.77802125       0.04931168 </v>
    <v>       0.77913437       0.22544260       0.95320947 </v>
    <v>       0.88991756       0.11508518       0.04801365 </v>
    <v>       0.77537484       0.55077215       0.95184844 </v>
    <v>       0.88672493       0.43987294       0.04682705 </v>
    <v>       0.77721455       0.88958519       0.95052772 </v>
    <v>       0.88871274       0.77748425       0.04955777 </v>
   </varray>
  </structure>
  <varray name="forces" >
   <v>      -0.00641124      -0.00508324      -0.08521430 </v>
   <v>       0.00584019       0.00236524      -0.08540107 </v>
   <v>      -0.17292853       0.30572912       0.09710951 </v>
   <v>      -0.56599042       0.29528009       0.00020927 </v>
   <v>       0.35667406      -0.61621815       0.01324587 </v>
   <v>       0.02499078       0.63922368      -0.00010684 </v>
   <v>      -0.12071186      -0.57125728       0.10036757 </v>
   <v>      -0.11603847       0.20923014      -0.10753688 </v>
   <v>       0.54371592      -0.18300239       0.09852538 </v>
   <v>      -0.02809050       0.07806093      -0.29246743 </v>
   <v>      -0.04146027       0.08686762       0.42037505 </v>
   <v>       0.03017794      -0.07873122      -0.30507046 </v>
   <v>       0.02715632      -0.07166895       0.41561182 </v>
   <v>       0.00679143      -0.00190378      -0.87477725 </v>
   <v>       0.02002809       0.01303032       0.59851170 </v>
   <v>      -0.01454444       0.05927555      -0.31312374 </v>
   <v>      -0.00354799       0.03364544       0.07543812 </v>
   <v>       0.03589932      -0.07595413      -0.30572236 </v>
   <v>       0.03411734      -0.08462889       0.38704599 </v>
   <v>      -0.02580777       0.02151720      -0.44167285 </v>
   <v>      -0.00712654      -0.00121658       0.60582472 </v>
   <v>      -0.02131969       0.05289662      -0.31001293 </v>
   <v>      -0.03669020       0.08970371       0.42052153 </v>
   <v>       0.06336418      -0.12162265      -0.60048290 </v>
   <v>       0.03025529      -0.08367844       0.38328062 </v>
   <v>      -0.01184759      -0.01079703      -0.86885814 </v>
   <v>      -0.00649534       0.01893707       0.97437999 </v>
  </varray>
  <varray name="stress" >
   <v>     -10.16420441       0.01641959      -0.02839250 </v>
   <v>       0.01641973      -9.84531775       0.09556216 </v>
   <v>      -0.02839256       0.09556225       6.48187036 </v>
  </varray>
  <energy>
   <i name="e_fr_energy">   -189.79382355 </i>
   <i name="e_wo_entrp">   -189.67216094 </i>
   <i name="e_0_energy">     -0.24332522 </i>
  </energy>
  <time name="totalsc">  370.95  371.93</time>
 </calculation>
 <calculation>
  <scstep>
   <time name="dav">   21.52   21.58</time>
   <time name="total">   22.04   22.10</time>
   <energy>
    <i name="alphaZ">     85.82042659 </i>
    <i name="ewald">  42834.33099751 </i>
    <i name="hartreedc"> -48850.79442567 </i>
    <i name="XCdc">   -232.96125209 </i>
    <i name="pawpsdc">   4038.91604104 </i>
    <i name="pawaedc">  -3454.61941726 </i>
    <i name="eentropy">     -0.20905851 </i>
    <i name="bandstr">  -1373.33369120 </i>
    <i name="atom">   6761.44252427 </i>
    <i name="e_fr_energy">   -191.40785533 </i>
    <i name="e_wo_entrp">   -191.19879681 </i>
    <i name="e_0_energy">   -191.30332607 </i>
   </energy>
  </scstep>
  <scstep>
   <time name="dav">   31.33   31.40</time>
   <time name="total">   31.84   31.93</time>
   <energy>
    <i name="e_fr_energy">   -191.15923917 </i>
    <i name="e_wo_entrp">   -190.95028128 </i>
    <i name="e_0_energy">   -191.05476023 </i>
   </energy>
  </scstep>
  <scstep>
   <time name="dav">   29.91   29.99</time>
   <time name="total">   30.42   30.50</time>
   <energy>
    <i name="e_fr_energy">   -191.37526043 </i>
    <i name="e_wo_entrp">   -191.14763666 </i>
    <i name="e_0_energy">   -191.26144854 </i>
   </energy>
  </scstep>
  <scstep>
   <time name="dav">   29.92   29.99</time>
   <time name="total">   30.43   30.52</time>
   <energy>
    <i name="e_fr_energy">   -190.98464125 </i>
    <i name="e_wo_entrp">   -190.77658035 </i>
    <i name="e_0_energy">   -190.88061080 </i>
   </energy>
  </scstep>
  <scstep>
   <time name="dav">   29.91   29.99</time>
   <time name="total">   30.43   30.51</time>
   <energy>
    <i name="e_fr_energy">   -190.85867064 </i>
    <i name="e_wo_entrp">   -190.64461057 </i>
    <i name="e_0_energy">   -190.75164060 </i>
   </energy>
  </scstep>
  <scstep>
   <time name="dav">   29.80   29.87</time>
   <time name="total">   30.31   30.39</time>
   <energy>
    <i name="e_fr_energy">   -190.85998517 </i>
    <i name="e_wo_entrp">   -190.64396508 </i>
    <i name="e_0_energy">   -190.75197512 </i>
   </energy>
  </scstep>
  <scstep>
   <time name="dav">   28.85   28.92</time>
   <time name="total">   29.36   29.44</time>
   <energy>
    <i name="e_fr_energy">   -190.83854095 </i>
    <i name="e_wo_entrp">   -190.62262572 </i>
    <i name="e_0_energy">   -190.73058334 </i>
   </energy>
  </scstep>
  <scstep>
   <time name="dav">   28.59   28.66</time>
   <time name="total">   29.10   29.18</time>
   <energy>
    <i name="e_fr_energy">   -190.83470767 </i>
    <i name="e_wo_entrp">   -190.61926871 </i>
    <i name="e_0_energy">   -190.72698819 </i>
   </energy>
  </scstep>
  <scstep>
   <time name="dav">   31.07   31.14</time>
   <time name="total">   31.58   31.66</time>
   <energy>
    <i name="e_fr_energy">   -190.83466697 </i>
    <i name="e_wo_entrp">   -190.61917035 </i>
    <i name="e_0_energy">   -190.72691866 </i>
   </energy>
  </scstep>
  <scstep>
   <time name="dav">   27.52   27.59</time>
   <time name="total">   28.03   28.11</time>
   <energy>
    <i name="e_fr_energy">   -190.83446170 </i>
    <i name="e_wo_entrp">   -190.61886043 </i>
    <i name="e_0_energy">   -190.72666107 </i>
   </energy>
  </scstep>
  <scstep>
   <time name="dav">   19.70   19.74</time>
   <time name="total">   19.73   19.79</time>
   <energy>
    <i name="alphaZ">     85.82042659 </i>
    <i name="ewald">  42834.33099751 </i>
    <i name="hartreedc"> -48822.00464046 </i>
    <i name="XCdc">   -234.28617428 </i>
    <i name="pawpsdc">   4064.52218392 </i>
    <i name="pawaedc">  -3480.42293307 </i>
    <i name="eentropy">     -0.21569667 </i>
    <i name="bandstr">  -1400.02114763 </i>
    <i name="atom">   6761.44252427 </i>
    <i name="e_fr_energy">   -190.83445983 </i>
    <i name="e_wo_entrp">   -190.61876315 </i>
    <i name="e_0_energy">   -190.72661149 </i>
   </energy>
  </scstep>
  <structure>
   <crystal>
    <varray name="basis" >
     <v>       8.48283071       4.89754557       0.00000000 </v>
     <v>      -8.48603208       4.90305387       0.00000000 </v>
     <v>       0.00000000       0.00000000      30.00000000 </v>
    </varray>
    <i name="volume">   2494.57514299 </i>
    <varray name="rec_basis" >
     <v>       0.05896460       0.10205384       0.00000000 </v>
     <v>      -0.05889835       0.10201534       0.00000000 </v>
     <v>       0.00000000       0.00000000       0.03333333 </v>
    </varray>
   </crystal>
   <varray name="positions" >
    <v>       0.33322320       0.33323252      -0.00026598 </v>
    <v>       1.00001553       0.33324319      -0.00026859 </v>
    <v>       0.66946817       0.33897728       0.00034312 </v>
    <v>      -0.00171008       0.67291488       0.00021047 </v>
    <v>      -0.00451357      -0.00911906      -0.00023473 </v>
    <v>       0.67451854       0.67280319       0.00020325 </v>
    <v>       0.32537431      -0.00499576       0.00008696 </v>
    <v>       0.33427855       0.66843162      -0.00014102 </v>
    <v>       0.66944531      -0.00507071       0.00007376 </v>
    <v>       0.11349325       0.22734618       0.95228765 </v>
    <v>       0.22528572       0.11610902       0.04931347 </v>
    <v>       0.10916471       0.55060193       0.95107749 </v>
    <v>       0.22011594       0.44006457       0.04812885 </v>
    <v>       0.11204158       0.88940384       0.94822440 </v>
    <v>       0.22298649       0.77790357       0.05102912 </v>
    <v>       0.44633205       0.22628290       0.95217338 </v>
    <v>       0.55751224       0.11509916       0.04829449 </v>
    <v>       0.44132869       0.55057800       0.95106225 </v>
    <v>       0.55298179       0.43907284       0.04800951 </v>
    <v>       0.44458969       0.88932237       0.94937437 </v>
    <v>       0.55489631       0.77789627       0.05104322 </v>
    <v>       0.77957135       0.22626899       0.95218601 </v>
    <v>       0.89073391       0.11608672       0.04930078 </v>
    <v>       0.77476494       0.54960862       0.95019739 </v>
    <v>       0.88625628       0.43909222       0.04799452 </v>
    <v>       0.77723574       0.88940148       0.94823651 </v>
    <v>       0.88882382       0.77765863       0.05205926 </v>
   </varray>
  </structure>
  <varray name="forces" >
   <v>       0.00137810      -0.00172200      -0.05362169 </v>
   <v>      -0.00032307      -0.00433977      -0.05336343 </v>
   <v>      -0.19114767       0.33343052       0.05824854 </v>
   <v>      -0.51750413       0.35165812      -0.02967685 </v>
   <v>       0.34721579      -0.59851268       0.04017207 </v>
   <v>      -0.05161012       0.62244730      -0.02488825 </v>
   <v>      -0.14005201      -0.64053955       0.05609192 </v>
   <v>      -0.14350126       0.25987345      -0.07447800 </v>
   <v>       0.61944520      -0.20150269       0.06268924 </v>
   <v>       0.05290505      -0.07150759      -0.21202369 </v>
   <v>      -0.05732547      -0.05331061       0.25893912 </v>
   <v>      -0.07590952      -0.02121635      -0.16124688 </v>
   <v>      -0.00712884      -0.00561327       0.26751358 </v>
   <v>      -0.04052073      -0.03911503      -0.67367920 </v>
   <v>      -0.01083692      -0.09342846       0.46137908 </v>
   <v>       0.02636811      -0.01882086      -0.19048245 </v>
   <v>       0.02058784      -0.03643262      -0.07516149 </v>
   <v>       0.05913976       0.05604383      -0.16366649 </v>
   <v>      -0.04316408       0.05053825       0.29340954 </v>
   <v>      -0.03815029       0.06561221      -0.29241524 </v>
   <v>       0.08622384      -0.03752148       0.46130315 </v>
   <v>       0.01939477      -0.02215526      -0.19214095 </v>
   <v>       0.07461303       0.02167045       0.25468430 </v>
   <v>      -0.00982668       0.01930515      -0.40598510 </v>
   <v>      -0.03853058       0.05309868       0.29550063 </v>
   <v>       0.05809100       0.01750013      -0.67188695 </v>
   <v>       0.00016890      -0.00543989       0.76478549 </v>
  </varray>
  <varray name="stress" >
   <v>      -5.85912982      -0.17815923      -0.02057172 </v>
   <v>      -0.17815922      -5.67943104      -0.09685048 </v>
   <v>      -0.02057173      -0.09685050       4.56142707 </v>
  </varray>
  <energy>
   <i name="e_fr_energy">   -190.83445983 </i>
   <i name="e_wo_entrp">   -190.72661149 </i>
   <i name="e_0_energy">     -0.21569667 </i>
  </energy>
  <time name="totalsc">  354.74  355.68</time>
 </calculation>
 <calculation>
  <scstep>
   <time name="dav">   21.49   21.55</time>
   <time name="total">   22.00   22.05</time>
   <energy>
    <i name="alphaZ">     90.20617831 </i>
    <i name="ewald">  44679.27744194 </i>
    <i name="hartreedc"> -50722.43003620 </i>
    <i name="XCdc">   -231.82897213 </i>
    <i name="pawpsdc">   4064.61723214 </i>
    <i name="pawaedc">  -3480.51456835 </i>
    <i name="eentropy">     -0.20452328 </i>
    <i name="bandstr">  -1352.82996926 </i>
    <i name="atom">   6761.44252427 </i>
    <i name="e_fr_energy">   -192.26469255 </i>
    <i name="e_wo_entrp">   -192.06016926 </i>
    <i name="e_0_energy">   -192.16243091 </i>
   </energy>
  </scstep>
  <scstep>
   <time name="dav">   25.25   25.31</time>
   <time name="total">   25.75   25.82</time>
   <energy>
    <i name="e_fr_energy">   -191.97282630 </i>
    <i name="e_wo_entrp">   -191.75218421 </i>
    <i name="e_0_energy">   -191.86250526 </i>
   </energy>
  </scstep>
  <scstep>
   <time name="dav">   27.10   27.17</time>
   <time name="total">   27.61   27.68</time>
   <energy>
    <i name="e_fr_energy">   -191.84795816 </i>
    <i name="e_wo_entrp">   -191.64978664 </i>
    <i name="e_0_energy">   -191.74887240 </i>
   </energy>
  </scstep>
  <scstep>
   <time name="dav">   29.76   29.83</time>
   <time name="total">   30.27   30.35</time>
   <energy>
    <i name="e_fr_energy">   -191.86403150 </i>
    <i name="e_wo_entrp">   -191.64082601 </i>
    <i name="e_0_energy">   -191.75242876 </i>
   </energy>
  </scstep>
  <scstep>
   <time name="dav">   30.07   30.14</time>
   <time name="total">   30.57   30.65</time>
   <energy>
    <i name="e_fr_energy">   -191.61255459 </i>
    <i name="e_wo_entrp">   -191.40193637 </i>
    <i name="e_0_energy">   -191.50724548 </i>
   </energy>
  </scstep>
  <scstep>
   <time name="dav">   29.94   30.01</time>
   <time name="total">   30.45   30.53</time>
   <energy>
    <i name="e_fr_energy">   -191.61098813 </i>
    <i name="e_wo_entrp">   -191.39580943 </i>
    <i name="e_0_energy">   -191.50339878 </i>
   </energy>
  </scstep>
  <scstep>
   <time name="dav">   29.98   30.06</time>
   <time name="total">   30.49   30.57</time>
   <energy>
    <i name="e_fr_energy">   -191.57550907 </i>
    <i name="e_wo_entrp">   -191.35815914 </i>
    <i name="e_0_energy">   -191.46683411 </i>
   </energy>
  </scstep>
  <scstep>
   <time name="dav">   28.54   28.61</time>
   <time name="total">   29.05   29.13</time>
   <energy>
    <i name="e_fr_energy">   -191.57170737 </i>
    <i name="e_wo_entrp">   -191.35593083 </i>
    <i name="e_0_energy">   -191.46381910 </i>
   </energy>
  </scstep>
  <scstep>
   <time name="dav">   29.30   29.37</time>
   <time name="total">   29.81   29.89</time>
   <energy>
    <i name="e_fr_energy">   -191.57022819 </i>
    <i name="e_wo_entrp">   -191.35449211 </i>
    <i name="e_0_energy">   -191.46236015 </i>
   </energy>
  </scstep>
  <scstep>
   <time name="dav">   28.65   28.72</time>
   <time name="total">   29.16   29.24</time>
   <energy>
    <i name="e_fr_energy">   -191.57006731 </i>
    <i name="e_wo_entrp">   -191.35425950 </i>
    <i name="e_0_energy">   -191.46216340 </i>
   </energy>
  </scstep>
  <scstep>
   <time name="dav">   24.70   24.76</time>
   <time name="total">   24.73   24.80</time>
   <energy>
    <i name="alphaZ">     90.20617831 </i>
    <i name="ewald">  44679.27744194 </i>
    <i name="hartreedc"> -50688.56230385 </i>
    <i name="XCdc">   -233.33936747 </i>
    <i name="pawpsdc">   4089.02944932 </i>
    <i name="pawaedc">  -3505.07558045 </i>
    <i name="eentropy">     -0.21597502 </i>
    <i name="bandstr">  -1384.33238791 </i>
    <i name="atom">   6761.44252427 </i>
    <i name="e_fr_energy">   -191.57002087 </i>
    <i name="e_wo_entrp">   -191.35404584 </i>
    <i name="e_0_energy">   -191.46203336 </i>
   </energy>
  </scstep>
  <structure>
   <crystal>
    <varray name="basis" >
     <v>       8.26342816       4.77046170       0.00000000 </v>
     <v>      -8.27753763       4.79486479       0.00000000 </v>
     <v>       0.00000000       0.00000000      30.00000000 </v>
    </varray>
    <i name="volume">   2373.29090926 </i>
    <varray name="rec_basis" >
     <v>       0.06061033       0.10463367       0.00000000 </v>
     <v>      -0.06030186       0.10445531       0.00000000 </v>
     <v>       0.00000000       0.00000000       0.03333333 </v>
    </varray>
   </crystal>
   <varray name="positions" >
    <v>       0.33319070       0.33320833      -0.00049531 </v>
    <v>       0.99998463       0.33320752      -0.00049676 </v>
    <v>       0.67217088       0.34434347       0.00058530 </v>
    <v>      -0.00096453       0.68117904       0.00007032 </v>
    <v>      -0.00956592      -0.01926163      -0.00005233 </v>
    <v>       0.68199152       0.68108780       0.00008326 </v>
    <v>       0.31652499      -0.01207290       0.00035882 </v>
    <v>       0.33654518       0.67284263      -0.00047756 </v>
    <v>       0.67113790      -0.01212138       0.00037171 </v>
    <v>       0.11324094       0.22656924       0.95096319 </v>
    <v>       0.22436832       0.11644292       0.05093242 </v>
    <v>       0.10792808       0.55035810       0.94987828 </v>
    <v>       0.21966136       0.43938205       0.04974693 </v>
    <v>       0.11104577       0.88903563       0.94482382 </v>
    <v>       0.22165525       0.77680455       0.05352325 </v>
    <v>       0.44665298       0.22652190       0.95089457 </v>
    <v>       0.55752329       0.11508772       0.04852939 </v>
    <v>       0.44231417       0.55031778       0.94985297 </v>
    <v>       0.55303158       0.43952491       0.04968043 </v>
    <v>       0.44509186       0.89036582       0.94756397 </v>
    <v>       0.55514830       0.77680066       0.05354086 </v>
    <v>       0.77973671       0.22651219       0.95090032 </v>
    <v>       0.89199524       0.11640471       0.05090551 </v>
    <v>       0.77467695       0.54940630       0.94797709 </v>
    <v>       0.88641124       0.43955422       0.04967175 </v>
    <v>       0.77790608       0.88903733       0.94484353 </v>
    <v>       0.88881098       0.77767556       0.05582416 </v>
   </varray>
  </structure>
  <varray name="forces" >
   <v>       0.03776304      -0.00584052      -0.05687046 </v>
   <v>      -0.01657219      -0.03797406      -0.06006290 </v>
   <v>      -0.25644834       0.44332830       0.07439206 </v>
   <v>       0.01015788       0.09376107       0.11309061 </v>
   <v>      -0.00454981       0.00873590      -0.06019268 </v>
   <v>      -0.09868055       0.03528823       0.10421765 </v>
   <v>      -0.13612366      -0.46331213      -0.08055008 </v>
   <v>      -0.13267957       0.23855344       0.04152530 </v>
   <v>       0.47807458      -0.11356071      -0.09265970 </v>
   <v>       0.12049331      -0.20972681       0.05857293 </v>
   <v>      -0.01772986      -0.24673224      -0.00094832 </v>
   <v>      -0.17778287       0.10022475       0.10473590 </v>
   <v>      -0.04735594       0.08264903      -0.05138848 </v>
   <v>      -0.11129701      -0.02558989      -0.26663953 </v>
   <v>      -0.01398539      -0.17439724       0.18017507 </v>
   <v>       0.09711258      -0.11964873       0.12196129 </v>
   <v>       0.09749109      -0.17724011      -0.42358071 </v>
   <v>       0.00699003       0.20638688       0.10211656 </v>
   <v>      -0.11519209       0.18187365       0.00667202 </v>
   <v>      -0.07439673       0.13475215      -0.02029577 </v>
   <v>       0.15573488      -0.07732001       0.19007432 </v>
   <v>       0.05627417      -0.14295965       0.12160526 </v>
   <v>       0.22241218      -0.10635921       0.00269335 </v>
   <v>      -0.10167418       0.17387572      -0.09513476 </v>
   <v>      -0.09845611       0.19310551       0.00850574 </v>
   <v>       0.07611420       0.08395876      -0.26030292 </v>
   <v>       0.04430633      -0.07583205       0.23828822 </v>
  </varray>
  <varray name="stress" >
   <v>       0.13813450      -0.60258251       0.37912240 </v>
   <v>      -0.60258267       0.87910401      -0.67949916 </v>
   <v>       0.37912238      -0.67949937      -0.73776191 </v>
  </varray>
  <energy>
   <i name="e_fr_energy">   -191.57002087 </i>
   <i name="e_wo_entrp">   -191.46203336 </i>
   <i name="e_0_energy">     -0.21597502 </i>
  </energy>
  <time name="totalsc">  351.31  352.23</time>
 </calculation>
 <calculation>
  <scstep>
   <time name="dav">   21.53   21.58</time>
   <time name="total">   22.04   22.09</time>
   <energy>
    <i name="alphaZ">     89.88585612 </i>
    <i name="ewald">  44519.41728462 </i>
    <i name="hartreedc"> -50525.82893974 </i>
    <i name="XCdc">   -233.62647527 </i>
    <i name="pawpsdc">   4089.27914147 </i>
    <i name="pawaedc">  -3505.32158793 </i>
    <i name="eentropy">     -0.21670267 </i>
    <i name="bandstr">  -1386.67651161 </i>
    <i name="atom">   6761.44252427 </i>
    <i name="e_fr_energy">   -191.64541074 </i>
    <i name="e_wo_entrp">   -191.42870807 </i>
    <i name="e_0_energy">   -191.53705941 </i>
   </energy>
  </scstep>
  <scstep>
   <time name="dav">   30.47   30.54</time>
   <time name="total">   30.97   31.05</time>
   <energy>
    <i name="e_fr_energy">   -191.72287606 </i>
    <i name="e_wo_entrp">   -191.49530654 </i>
    <i name="e_0_energy">   -191.60909130 </i>
   </energy>
  </scstep>
  <scstep>
   <time name="dav">   30.43   30.50</time>
   <time name="total">   30.94   31.02</time>
   <energy>
    <i name="e_fr_energy">   -191.65650861 </i>
    <i name="e_wo_entrp">   -191.43901078 </i>
    <i name="e_0_energy">   -191.54775970 </i>
   </energy>
  </scstep>
  <scstep>
   <time name="dav">   26.73   26.79</time>
   <time name="total">   27.23   27.31</time>
   <energy>
    <i name="e_fr_energy">   -191.66120084 </i>
    <i name="e_wo_entrp">   -191.44248493 </i>
    <i name="e_0_energy">   -191.55184288 </i>
   </energy>
  </scstep>
  <scstep>
   <time name="dav">   26.87   26.93</time>
   <time name="total">   27.38   27.45</time>
   <energy>
    <i name="e_fr_energy">   -191.65218897 </i>
    <i name="e_wo_entrp">   -191.43233645 </i>
    <i name="e_0_energy">   -191.54226271 </i>
   </energy>
  </scstep>
  <scstep>
   <time name="dav">   27.88   27.94</time>
   <time name="total">   28.38   28.46</time>
   <energy>
    <i name="e_fr_energy">   -191.65176686 </i>
    <i name="e_wo_entrp">   -191.43333948 </i>
    <i name="e_0_energy">   -191.54255317 </i>
   </energy>
  </scstep>
  <scstep>
   <time name="dav">   27.36   27.43</time>
   <time name="total">   27.87   27.94</time>
   <energy>
    <i name="e_fr_energy">   -191.65155455 </i>
    <i name="e_wo_entrp">   -191.43266495 </i>
    <i name="e_0_energy">   -191.54210975 </i>
   </energy>
  </scstep>
  <scstep>
   <time name="dav">   22.63   22.69</time>
   <time name="total">   23.14   23.20</time>
   <energy>
    <i name="e_fr_energy">   -191.65145260 </i>
    <i name="e_wo_entrp">   -191.43252964 </i>
    <i name="e_0_energy">   -191.54199112 </i>
   </energy>
  </scstep>
  <scstep>
   <time name="dav">   17.32   17.36</time>
   <time name="total">   17.35   17.40</time>
   <energy>
    <i name="alphaZ">     89.88585612 </i>
    <i name="ewald">  44519.41728462 </i>
    <i name="hartreedc"> -50529.45964995 </i>
    <i name="XCdc">   -233.50115819 </i>
    <i name="pawpsdc">   4084.29886412 </i>
    <i name="pawaedc">  -3500.27439121 </i>
    <i name="eentropy">     -0.21892024 </i>
    <i name="bandstr">  -1383.24182812 </i>
    <i name="atom">   6761.44252427 </i>
    <i name="e_fr_energy">   -191.65141858 </i>
    <i name="e_wo_entrp">   -191.43249834 </i>
    <i name="e_0_energy">   -191.54195846 </i>
   </energy>
  </scstep>
  <structure>
   <crystal>
    <varray name="basis" >
     <v>       8.26372199       4.77117031       0.00000000 </v>
     <v>      -8.29184015       4.81984209       0.00000000 </v>
     <v>       0.00000000       0.00000000      30.00000000 </v>
    </varray>
    <i name="volume">   2381.74849949 </i>
    <varray name="rec_basis" >
     <v>       0.06070971       0.10444226       0.00000000 </v>
     <v>      -0.06009665       0.10408809       0.00000000 </v>
     <v>       0.00000000       0.00000000       0.03333333 </v>
    </varray>
   </crystal>
   <varray name="positions" >
    <v>       0.33326853       0.33307789      -0.00057302 </v>
    <v>       0.99975907       0.33307365      -0.00057934 </v>
    <v>       0.67347762       0.34696243       0.00068922 </v>
    <v>      -0.00051951       0.68129932       0.00024694 </v>
    <v>      -0.00935566      -0.01884380      -0.00015035 </v>
    <v>       0.68162063       0.68122808       0.00024572 </v>
    <v>       0.31425905      -0.01364470       0.00022624 </v>
    <v>       0.33723180       0.67417802      -0.00040200 </v>
    <v>       0.67186017      -0.01371747       0.00021988 </v>
    <v>       0.11257897       0.22526042       0.95110949 </v>
    <v>       0.22317587       0.11529561       0.05086052 </v>
    <v>       0.10796866       0.55134125       0.95009192 </v>
    <v>       0.21994759       0.43994338       0.04959952 </v>
    <v>       0.11065812       0.88923608       0.94455596 </v>
    <v>       0.22083727       0.77605479       0.05369333 </v>
    <v>       0.44633189       0.22566451       0.95113619 </v>
    <v>       0.55694168       0.11396665       0.04786730 </v>
    <v>       0.44328244       0.55129929       0.95006300 </v>
    <v>       0.55358323       0.44069844       0.04962027 </v>
    <v>       0.44551056       0.89117294       0.94761178 </v>
    <v>       0.55519834       0.77604639       0.05372571 </v>
    <v>       0.77919941       0.22565602       0.95114165 </v>
    <v>       0.89204682       0.11526623       0.05083955 </v>
    <v>       0.77523242       0.55052866       0.94792492 </v>
    <v>       0.88705768       0.44073458       0.04961418 </v>
    <v>       0.77849001       0.88924388       0.94458498 </v>
    <v>       0.88857180       0.77719189       0.05603634 </v>
   </varray>
  </structure>
  <varray name="forces" >
   <v>       0.06048712      -0.03717450      -0.07030661 </v>
   <v>       0.00073915      -0.07342858      -0.07189891 </v>
   <v>      -0.29387599       0.50683013       0.03681784 </v>
   <v>      -0.11327955       0.14280947      -0.00653502 </v>
   <v>       0.08064475      -0.13904848       0.04845020 </v>
   <v>      -0.07659722       0.16397431      -0.00194818 </v>
   <v>      -0.16864206      -0.51779363       0.00607850 </v>
   <v>      -0.14402198       0.26678955      -0.00101239 </v>
   <v>       0.53591051      -0.11440406       0.01091798 </v>
   <v>       0.05862689      -0.09953572       0.04022735 </v>
   <v>       0.00160013      -0.14520019      -0.00264619 </v>
   <v>      -0.07153579       0.06302758       0.12538407 </v>
   <v>      -0.03431047       0.05817174      -0.08249247 </v>
   <v>      -0.04573686      -0.07958822      -0.21211792 </v>
   <v>      -0.00721315      -0.07361266       0.15189720 </v>
   <v>       0.08089679      -0.07816427       0.14510733 </v>
   <v>       0.06090267      -0.10806086      -0.47996941 </v>
   <v>      -0.01488460       0.09424545       0.11982701 </v>
   <v>      -0.08353386       0.09925467       0.04235569 </v>
   <v>      -0.04060421       0.07383352       0.00963597 </v>
   <v>       0.06394784      -0.02908657       0.15516231 </v>
   <v>       0.02936596      -0.10816849       0.14402891 </v>
   <v>       0.12293544      -0.07497841      -0.00277210 </v>
   <v>      -0.05563133       0.09615933      -0.05754752 </v>
   <v>      -0.04421605       0.12255823       0.04369119 </v>
   <v>       0.09377760       0.00268250      -0.21783266 </v>
   <v>       0.00424828      -0.01209183       0.12749782 </v>
  </varray>
  <varray name="stress" >
   <v>      -0.14941177       0.01027114       0.05802751 </v>
   <v>       0.01027116      -0.16473079      -0.14363681 </v>
   <v>       0.05802742      -0.14363686      -1.38231886 </v>
  </varray>
  <energy>
   <i name="e_fr_energy">   -191.65141858 </i>
   <i name="e_wo_entrp">   -191.54195846 </i>
   <i name="e_0_energy">     -0.21892024 </i>
  </energy>
  <time name="totalsc">  277.01  277.75</time>
 </calculation>
 <calculation>
  <scstep>
   <time name="dav">   21.53   21.58</time>
   <time name="total">   22.04   22.09</time>
   <energy>
    <i name="alphaZ">     89.98628777 </i>
    <i name="ewald">  44567.44292135 </i>
    <i name="hartreedc"> -50578.36278216 </i>
    <i name="XCdc">   -233.42610328 </i>
    <i name="pawpsdc">   4083.85772754 </i>
    <i name="pawaedc">  -3499.82928718 </i>
    <i name="eentropy">     -0.21747298 </i>
    <i name="bandstr">  -1382.62274167 </i>
    <i name="atom">   6761.44252427 </i>
    <i name="e_fr_energy">   -191.72892633 </i>
    <i name="e_wo_entrp">   -191.51145334 </i>
    <i name="e_0_energy">   -191.62018983 </i>
   </energy>
  </scstep>
  <scstep>
   <time name="dav">   31.94   32.01</time>
   <time name="total">   32.44   32.53</time>
   <energy>
    <i name="e_fr_energy">   -191.78506037 </i>
    <i name="e_wo_entrp">   -191.55552022 </i>
    <i name="e_0_energy">   -191.67029030 </i>
   </energy>
  </scstep>
  <scstep>
   <time name="dav">   30.42   30.50</time>
   <time name="total">   30.93   31.01</time>
   <energy>
    <i name="e_fr_energy">   -191.73714384 </i>
    <i name="e_wo_entrp">   -191.51907561 </i>
    <i name="e_0_energy">   -191.62810973 </i>
   </energy>
  </scstep>
  <scstep>
   <time name="dav">   26.30   26.37</time>
   <time name="total">   26.81   26.88</time>
   <energy>
    <i name="e_fr_energy">   -191.73871087 </i>
    <i name="e_wo_entrp">   -191.52014566 </i>
    <i name="e_0_energy">   -191.62942826 </i>
   </energy>
  </scstep>
  <scstep>
   <time name="dav">   27.56   27.63</time>
   <time name="total">   28.06   28.14</time>
   <energy>
    <i name="e_fr_energy">   -191.73389808 </i>
    <i name="e_wo_entrp">   -191.51383006 </i>
    <i name="e_0_energy">   -191.62386407 </i>
   </energy>
  </scstep>
  <scstep>
   <time name="dav">   26.41   26.47</time>
   <time name="total">   26.92   27.20</time>
   <energy>
    <i name="e_fr_energy">   -191.73367732 </i>
    <i name="e_wo_entrp">   -191.51415565 </i>
    <i name="e_0_energy">   -191.62391648 </i>
   </energy>
  </scstep>
  <scstep>
   <time name="dav">   27.26   27.33</time>
   <time name="total">   27.77   27.84</time>
   <energy>
    <i name="e_fr_energy">   -191.73356448 </i>
    <i name="e_wo_entrp">   -191.51357738 </i>
    <i name="e_0_energy">   -191.62357093 </i>
   </energy>
  </scstep>
  <scstep>
   <time name="dav">   22.38   22.43</time>
   <time name="total">   22.42   22.48</time>
   <energy>
    <i name="alphaZ">     89.98628777 </i>
    <i name="ewald">  44567.44292135 </i>
    <i name="hartreedc"> -50578.21492243 </i>
    <i name="XCdc">   -233.44326449 </i>
    <i name="pawpsdc">   4087.07169724 </i>
    <i name="pawaedc">  -3503.08275793 </i>
    <i name="eentropy">     -0.21996557 </i>
    <i name="bandstr">  -1382.71599291 </i>
    <i name="atom">   6761.44252427 </i>
    <i name="e_fr_energy">   -191.73347268 </i>
    <i name="e_wo_entrp">   -191.51350711 </i>
    <i name="e_0_energy">   -191.62348990 </i>
   </energy>
  </scstep>
  <structure>
   <crystal>
    <varray name="basis" >
     <v>       8.25885858       4.76833452       0.00000000 </v>
     <v>      -8.28723681       4.81745653       0.00000000 </v>
[...]
      <set comment="kpoint 31">
       <r>  -17.5498    1.0000 </r>
       <r>  -17.1993    1.0000 </r>
       <r>  -16.9397    1.0000 </r>
       <r>  -16.6682    1.0000 </r>
       <r>  -16.5282    1.0000 </r>
       <r>  -16.3743    1.0000 </r>
       <r>  -16.3202    1.0000 </r>
       <r>  -16.2311    1.0000 </r>
       <r>  -16.1050    1.0000 </r>
       <r>  -16.0557    1.0000 </r>
       <r>  -15.9432    1.0000 </r>
       <r>  -15.8590    1.0000 </r>
       <r>  -15.7582    1.0000 </r>
       <r>  -15.6832    1.0000 </r>
       <r>  -15.5985    1.0000 </r>
       <r>  -15.4959    1.0000 </r>
       <r>  -15.3954    1.0000 </r>
       <r>  -15.2486    1.0000 </r>
       <r>   -9.6931    1.0000 </r>
       <r>   -9.4446    1.0000 </r>
       <r>   -9.3106    1.0000 </r>
       <r>   -9.0773    1.0000 </r>
       <r>   -8.8942    1.0000 </r>
       <r>   -8.7810    1.0000 </r>
       <r>   -8.4815    1.0000 </r>
       <r>   -8.4101    1.0000 </r>
       <r>   -8.3675    1.0000 </r>
       <r>   -8.3050    1.0000 </r>
       <r>   -8.2297    1.0000 </r>
       <r>   -8.2150    1.0000 </r>
       <r>   -8.1299    1.0000 </r>
       <r>   -8.0900    1.0000 </r>
       <r>   -8.0340    1.0000 </r>
       <r>   -7.8802    1.0000 </r>
       <r>   -7.7564    1.0000 </r>
       <r>   -7.6863    1.0000 </r>
       <r>   -7.5071    1.0000 </r>
       <r>   -7.4443    1.0000 </r>
       <r>   -7.4097    1.0000 </r>
       <r>   -7.2516    1.0000 </r>
       <r>   -7.1314    1.0000 </r>
       <r>   -7.0763    1.0000 </r>
       <r>   -7.0350    1.0000 </r>
       <r>   -6.9579    1.0000 </r>
       <r>   -6.8752    1.0000 </r>
       <r>   -6.7748    1.0000 </r>
       <r>   -6.6364    1.0000 </r>
       <r>   -6.5793    1.0000 </r>
       <r>   -6.5515    1.0000 </r>
       <r>   -6.4352    1.0000 </r>
       <r>   -6.4154    1.0000 </r>
       <r>   -6.3738    1.0000 </r>
       <r>   -6.2889    1.0000 </r>
       <r>   -6.1955    1.0000 </r>
       <r>   -6.1452    1.0000 </r>
       <r>   -6.0880    1.0000 </r>
       <r>   -6.0278    1.0000 </r>
       <r>   -5.9125    1.0000 </r>
       <r>   -5.8765    1.0000 </r>
       <r>   -5.8526    1.0000 </r>
       <r>   -5.7527    1.0000 </r>
       <r>   -5.6278    1.0000 </r>
       <r>   -5.5648    1.0000 </r>
       <r>   -5.4580    1.0000 </r>
       <r>   -5.2921    1.0000 </r>
       <r>   -5.0992    1.0000 </r>
       <r>   -5.0052    1.0000 </r>
       <r>   -4.8440    1.0000 </r>
       <r>   -4.7172    1.0000 </r>
       <r>   -4.6352    1.0000 </r>
       <r>   -4.5390    1.0000 </r>
       <r>   -4.4504    1.0000 </r>
       <r>   -4.3352    1.0000 </r>
       <r>   -4.2564    1.0000 </r>
       <r>   -4.1555    1.0000 </r>
       <r>   -4.1320    1.0000 </r>
       <r>   -4.0296    1.0000 </r>
       <r>   -3.8460    0.9998 </r>
       <r>   -3.4734    0.8330 </r>
       <r>   -3.3434    0.5186 </r>
       <r>   -3.0887    0.0397 </r>
       <r>   -2.6872    0.0000 </r>
       <r>   -2.6212    0.0000 </r>
       <r>   -2.4788    0.0000 </r>
       <r>   -2.3859    0.0000 </r>
       <r>   -2.3364    0.0000 </r>
       <r>   -2.2609    0.0000 </r>
       <r>   -2.1728    0.0000 </r>
       <r>   -2.0356    0.0000 </r>
       <r>   -1.9821    0.0000 </r>
       <r>   -1.8968    0.0000 </r>
       <r>   -1.4986    0.0000 </r>
       <r>   -1.4635    0.0000 </r>
       <r>   -1.3538    0.0000 </r>
       <r>   -1.2686    0.0000 </r>
       <r>   -1.1744    0.0000 </r>
       <r>   -1.0942    0.0000 </r>
       <r>   -1.0599    0.0000 </r>
       <r>   -0.9496    0.0000 </r>
       <r>   -0.9116    0.0000 </r>
       <r>   -0.8475    0.0000 </r>
       <r>   -0.7651    0.0000 </r>
       <r>   -0.6508    0.0000 </r>
       <r>   -0.5707    0.0000 </r>
       <r>   -0.4615    0.0000 </r>
       <r>   -0.3208    0.0000 </r>
       <r>   -0.2341    0.0000 </r>
       <r>   -0.1556    0.0000 </r>
       <r>    0.0523    0.0000 </r>
       <r>    0.2385    0.0000 </r>
       <r>    0.3129    0.0000 </r>
       <r>    0.5658    0.0000 </r>
       <r>    0.6882    0.0000 </r>
       <r>    0.8485    0.0000 </r>
       <r>    1.0884    0.0000 </r>
       <r>    1.3530    0.0000 </r>
       <r>    1.4229    0.0000 </r>
       <r>    2.1122    0.0000 </r>
       <r>    2.2819    0.0000 </r>
       <r>    2.3696    0.0000 </r>
      </set>
      <set comment="kpoint 32">
       <r>  -17.5415    1.0000 </r>
       <r>  -17.1473    1.0000 </r>
       <r>  -17.0571    1.0000 </r>
       <r>  -16.6617    1.0000 </r>
       <r>  -16.4381    1.0000 </r>
       <r>  -16.3220    1.0000 </r>
       <r>  -16.3037    1.0000 </r>
       <r>  -16.2617    1.0000 </r>
       <r>  -16.1963    1.0000 </r>
       <r>  -16.0764    1.0000 </r>
       <r>  -15.9419    1.0000 </r>
       <r>  -15.8508    1.0000 </r>
       <r>  -15.7452    1.0000 </r>
       <r>  -15.6757    1.0000 </r>
       <r>  -15.6013    1.0000 </r>
       <r>  -15.4963    1.0000 </r>
       <r>  -15.3842    1.0000 </r>
       <r>  -15.2492    1.0000 </r>
       <r>   -9.6482    1.0000 </r>
       <r>   -9.5631    1.0000 </r>
       <r>   -9.4035    1.0000 </r>
       <r>   -9.0039    1.0000 </r>
       <r>   -8.7485    1.0000 </r>
       <r>   -8.5841    1.0000 </r>
       <r>   -8.5129    1.0000 </r>
       <r>   -8.4653    1.0000 </r>
       <r>   -8.4066    1.0000 </r>
       <r>   -8.3546    1.0000 </r>
       <r>   -8.2315    1.0000 </r>
       <r>   -8.2229    1.0000 </r>
       <r>   -8.1818    1.0000 </r>
       <r>   -8.0930    1.0000 </r>
       <r>   -8.0215    1.0000 </r>
       <r>   -7.9506    1.0000 </r>
       <r>   -7.7803    1.0000 </r>
       <r>   -7.6667    1.0000 </r>
       <r>   -7.5007    1.0000 </r>
       <r>   -7.4713    1.0000 </r>
       <r>   -7.4038    1.0000 </r>
       <r>   -7.2657    1.0000 </r>
       <r>   -7.1312    1.0000 </r>
       <r>   -7.0418    1.0000 </r>
       <r>   -7.0171    1.0000 </r>
       <r>   -6.9517    1.0000 </r>
       <r>   -6.8769    1.0000 </r>
       <r>   -6.7271    1.0000 </r>
       <r>   -6.7157    1.0000 </r>
       <r>   -6.6244    1.0000 </r>
       <r>   -6.5292    1.0000 </r>
       <r>   -6.4835    1.0000 </r>
       <r>   -6.4102    1.0000 </r>
       <r>   -6.3503    1.0000 </r>
       <r>   -6.2900    1.0000 </r>
       <r>   -6.1839    1.0000 </r>
       <r>   -6.1421    1.0000 </r>
       <r>   -6.0874    1.0000 </r>
       <r>   -6.0070    1.0000 </r>
       <r>   -5.8708    1.0000 </r>
       <r>   -5.8636    1.0000 </r>
       <r>   -5.7729    1.0000 </r>
       <r>   -5.7121    1.0000 </r>
       <r>   -5.6134    1.0000 </r>
       <r>   -5.5483    1.0000 </r>
       <r>   -5.4144    1.0000 </r>
       <r>   -5.3050    1.0000 </r>
       <r>   -5.1693    1.0000 </r>
       <r>   -5.0550    1.0000 </r>
       <r>   -4.9231    1.0000 </r>
       <r>   -4.7851    1.0000 </r>
       <r>   -4.6595    1.0000 </r>
       <r>   -4.5132    1.0000 </r>
       <r>   -4.4054    1.0000 </r>
       <r>   -4.3219    1.0000 </r>
       <r>   -4.2601    1.0000 </r>
       <r>   -4.1653    1.0000 </r>
       <r>   -4.1106    1.0000 </r>
       <r>   -3.9987    1.0000 </r>
       <r>   -3.8241    0.9997 </r>
       <r>   -3.5141    0.8951 </r>
       <r>   -3.3361    0.4982 </r>
       <r>   -3.0206    0.0127 </r>
       <r>   -2.7210    0.0000 </r>
       <r>   -2.6623    0.0000 </r>
       <r>   -2.5181    0.0000 </r>
       <r>   -2.4167    0.0000 </r>
       <r>   -2.3523    0.0000 </r>
       <r>   -2.2788    0.0000 </r>
       <r>   -2.1841    0.0000 </r>
       <r>   -2.0613    0.0000 </r>
       <r>   -1.9442    0.0000 </r>
       <r>   -1.9224    0.0000 </r>
       <r>   -1.5020    0.0000 </r>
       <r>   -1.4026    0.0000 </r>
       <r>   -1.3071    0.0000 </r>
       <r>   -1.2188    0.0000 </r>
       <r>   -1.1545    0.0000 </r>
       <r>   -1.0972    0.0000 </r>
       <r>   -1.0258    0.0000 </r>
       <r>   -0.9552    0.0000 </r>
       <r>   -0.8738    0.0000 </r>
       <r>   -0.8414    0.0000 </r>
       <r>   -0.7700    0.0000 </r>
       <r>   -0.6466    0.0000 </r>
       <r>   -0.5605    0.0000 </r>
       <r>   -0.4604    0.0000 </r>
       <r>   -0.3118    0.0000 </r>
       <r>   -0.2749    0.0000 </r>
       <r>   -0.1741    0.0000 </r>
       <r>    0.0418    0.0000 </r>
       <r>    0.1873    0.0000 </r>
       <r>    0.3920    0.0000 </r>
       <r>    0.5140    0.0000 </r>
       <r>    0.7344    0.0000 </r>
       <r>    0.8670    0.0000 </r>
       <r>    1.0459    0.0000 </r>
       <r>    1.3196    0.0000 </r>
       <r>    1.4083    0.0000 </r>
       <r>    2.0886    0.0000 </r>
       <r>    2.2583    0.0000 </r>
       <r>    2.5522    0.0000 </r>
      </set>
      <set comment="kpoint 33">
       <r>  -17.5033    1.0000 </r>
       <r>  -17.2906    1.0000 </r>
       <r>  -16.8993    1.0000 </r>
       <r>  -16.6552    1.0000 </r>
       <r>  -16.4943    1.0000 </r>
       <r>  -16.4318    1.0000 </r>
       <r>  -16.2728    1.0000 </r>
       <r>  -16.2137    1.0000 </r>
       <r>  -16.2003    1.0000 </r>
       <r>  -16.0836    1.0000 </r>
       <r>  -15.9140    1.0000 </r>
       <r>  -15.8324    1.0000 </r>
       <r>  -15.7318    1.0000 </r>
       <r>  -15.6829    1.0000 </r>
       <r>  -15.6009    1.0000 </r>
       <r>  -15.5030    1.0000 </r>
       <r>  -15.3711    1.0000 </r>
       <r>  -15.2668    1.0000 </r>
       <r>   -9.7608    1.0000 </r>
       <r>   -9.4632    1.0000 </r>
       <r>   -9.3266    1.0000 </r>
       <r>   -8.9491    1.0000 </r>
       <r>   -8.8227    1.0000 </r>
       <r>   -8.6688    1.0000 </r>
       <r>   -8.5974    1.0000 </r>
       <r>   -8.5302    1.0000 </r>
       <r>   -8.4479    1.0000 </r>
       <r>   -8.3264    1.0000 </r>
       <r>   -8.2870    1.0000 </r>
       <r>   -8.1679    1.0000 </r>
       <r>   -8.0843    1.0000 </r>
       <r>   -8.0296    1.0000 </r>
       <r>   -7.9807    1.0000 </r>
       <r>   -7.8815    1.0000 </r>
       <r>   -7.7763    1.0000 </r>
       <r>   -7.6777    1.0000 </r>
       <r>   -7.5715    1.0000 </r>
       <r>   -7.4637    1.0000 </r>
       <r>   -7.4090    1.0000 </r>
       <r>   -7.2385    1.0000 </r>
       <r>   -7.1216    1.0000 </r>
       <r>   -7.0458    1.0000 </r>
       <r>   -6.9954    1.0000 </r>
       <r>   -6.9643    1.0000 </r>
       <r>   -6.8306    1.0000 </r>
       <r>   -6.7801    1.0000 </r>
       <r>   -6.7176    1.0000 </r>
       <r>   -6.6067    1.0000 </r>
       <r>   -6.5552    1.0000 </r>
       <r>   -6.4730    1.0000 </r>
       <r>   -6.4046    1.0000 </r>
       <r>   -6.3148    1.0000 </r>
       <r>   -6.2759    1.0000 </r>
       <r>   -6.2248    1.0000 </r>
       <r>   -6.1737    1.0000 </r>
       <r>   -6.0905    1.0000 </r>
       <r>   -6.0157    1.0000 </r>
       <r>   -5.9054    1.0000 </r>
       <r>   -5.8794    1.0000 </r>
       <r>   -5.7890    1.0000 </r>
       <r>   -5.7281    1.0000 </r>
       <r>   -5.6841    1.0000 </r>
       <r>   -5.5529    1.0000 </r>
       <r>   -5.3438    1.0000 </r>
       <r>   -5.2151    1.0000 </r>
       <r>   -5.1639    1.0000 </r>
       <r>   -5.0901    1.0000 </r>
       <r>   -4.8636    1.0000 </r>
       <r>   -4.7888    1.0000 </r>
       <r>   -4.6705    1.0000 </r>
       <r>   -4.4843    1.0000 </r>
       <r>   -4.4174    1.0000 </r>
       <r>   -4.3363    1.0000 </r>
       <r>   -4.2407    1.0000 </r>
       <r>   -4.1703    1.0000 </r>
       <r>   -4.1282    1.0000 </r>
       <r>   -3.9621    1.0000 </r>
       <r>   -3.7981    0.9994 </r>
       <r>   -3.6166    0.9761 </r>
       <r>   -3.3132    0.4338 </r>
       <r>   -2.9436    0.0027 </r>
       <r>   -2.7789    0.0000 </r>
       <r>   -2.6921    0.0000 </r>
       <r>   -2.5653    0.0000 </r>
       <r>   -2.4418    0.0000 </r>
       <r>   -2.3692    0.0000 </r>
       <r>   -2.2976    0.0000 </r>
       <r>   -2.2148    0.0000 </r>
       <r>   -2.0701    0.0000 </r>
       <r>   -1.9522    0.0000 </r>
       <r>   -1.8728    0.0000 </r>
       <r>   -1.4829    0.0000 </r>
       <r>   -1.3371    0.0000 </r>
       <r>   -1.2752    0.0000 </r>
       <r>   -1.2066    0.0000 </r>
       <r>   -1.1248    0.0000 </r>
       <r>   -1.0680    0.0000 </r>
       <r>   -0.9899    0.0000 </r>
       <r>   -0.9198    0.0000 </r>
       <r>   -0.8761    0.0000 </r>
       <r>   -0.8308    0.0000 </r>
       <r>   -0.7737    0.0000 </r>
       <r>   -0.6833    0.0000 </r>
       <r>   -0.5843    0.0000 </r>
       <r>   -0.4854    0.0000 </r>
       <r>   -0.3876    0.0000 </r>
       <r>   -0.2436    0.0000 </r>
       <r>   -0.1048    0.0000 </r>
       <r>    0.0295    0.0000 </r>
       <r>    0.1370    0.0000 </r>
       <r>    0.3393    0.0000 </r>
       <r>    0.5714    0.0000 </r>
       <r>    0.7224    0.0000 </r>
       <r>    0.8845    0.0000 </r>
       <r>    1.0638    0.0000 </r>
       <r>    1.2816    0.0000 </r>
       <r>    1.4626    0.0000 </r>
       <r>    2.1263    0.0000 </r>
       <r>    2.2904    0.0000 </r>
       <r>    2.3942    0.0000 </r>
      </set>
      <set comment="kpoint 34">
       <r>  -17.4515    1.0000 </r>
       <r>  -17.3819    1.0000 </r>
       <r>  -16.7122    1.0000 </r>
       <r>  -16.6985    1.0000 </r>
       <r>  -16.6371    1.0000 </r>
       <r>  -16.4501    1.0000 </r>
       <r>  -16.2521    1.0000 </r>
       <r>  -16.2277    1.0000 </r>
       <r>  -16.1688    1.0000 </r>
       <r>  -16.0854    1.0000 </r>
       <r>  -15.8975    1.0000 </r>
       <r>  -15.8143    1.0000 </r>
       <r>  -15.7382    1.0000 </r>
       <r>  -15.6725    1.0000 </r>
       <r>  -15.6047    1.0000 </r>
       <r>  -15.5087    1.0000 </r>
       <r>  -15.3657    1.0000 </r>
       <r>  -15.2797    1.0000 </r>
       <r>   -9.8046    1.0000 </r>
       <r>   -9.4139    1.0000 </r>
       <r>   -9.1622    1.0000 </r>
       <r>   -9.0733    1.0000 </r>
       <r>   -8.8247    1.0000 </r>
       <r>   -8.7646    1.0000 </r>
       <r>   -8.6593    1.0000 </r>
       <r>   -8.5813    1.0000 </r>
       <r>   -8.4495    1.0000 </r>
       <r>   -8.3436    1.0000 </r>
       <r>   -8.2181    1.0000 </r>
       <r>   -8.1367    1.0000 </r>
       <r>   -8.0760    1.0000 </r>
       <r>   -8.0126    1.0000 </r>
       <r>   -7.9086    1.0000 </r>
       <r>   -7.8334    1.0000 </r>
       <r>   -7.8062    1.0000 </r>
       <r>   -7.6082    1.0000 </r>
       <r>   -7.5908    1.0000 </r>
       <r>   -7.4771    1.0000 </r>
       <r>   -7.4424    1.0000 </r>
       <r>   -7.3117    1.0000 </r>
       <r>   -7.0751    1.0000 </r>
       <r>   -7.0650    1.0000 </r>
       <r>   -6.9949    1.0000 </r>
       <r>   -6.9133    1.0000 </r>
       <r>   -6.8115    1.0000 </r>
       <r>   -6.7357    1.0000 </r>
       <r>   -6.6696    1.0000 </r>
       <r>   -6.6148    1.0000 </r>
       <r>   -6.5837    1.0000 </r>
       <r>   -6.4943    1.0000 </r>
       <r>   -6.4504    1.0000 </r>
       <r>   -6.3421    1.0000 </r>
       <r>   -6.3226    1.0000 </r>
       <r>   -6.2424    1.0000 </r>
       <r>   -6.1418    1.0000 </r>
       <r>   -6.0677    1.0000 </r>
       <r>   -5.9877    1.0000 </r>
       <r>   -5.9680    1.0000 </r>
       <r>   -5.8997    1.0000 </r>
       <r>   -5.8086    1.0000 </r>
       <r>   -5.7429    1.0000 </r>
       <r>   -5.6937    1.0000 </r>
       <r>   -5.5788    1.0000 </r>
       <r>   -5.3269    1.0000 </r>
       <r>   -5.2408    1.0000 </r>
       <r>   -5.0940    1.0000 </r>
       <r>   -5.0334    1.0000 </r>
       <r>   -4.9112    1.0000 </r>
       <r>   -4.7273    1.0000 </r>
       <r>   -4.5968    1.0000 </r>
       <r>   -4.5222    1.0000 </r>
       <r>   -4.4039    1.0000 </r>
       <r>   -4.3634    1.0000 </r>
       <r>   -4.2363    1.0000 </r>
       <r>   -4.1791    1.0000 </r>
       <r>   -4.1457    1.0000 </r>
       <r>   -3.9488    1.0000 </r>
       <r>   -3.7805    0.9991 </r>
       <r>   -3.6753    0.9917 </r>
       <r>   -3.3010    0.4003 </r>
       <r>   -2.9008    0.0010 </r>
       <r>   -2.8209    0.0001 </r>
       <r>   -2.6963    0.0000 </r>
       <r>   -2.5912    0.0000 </r>
       <r>   -2.4486    0.0000 </r>
       <r>   -2.3786    0.0000 </r>
       <r>   -2.3058    0.0000 </r>
       <r>   -2.2323    0.0000 </r>
       <r>   -2.0682    0.0000 </r>
       <r>   -1.9573    0.0000 </r>
       <r>   -1.8424    0.0000 </r>
       <r>   -1.4629    0.0000 </r>
       <r>   -1.3270    0.0000 </r>
       <r>   -1.2555    0.0000 </r>
       <r>   -1.2247    0.0000 </r>
       <r>   -1.1043    0.0000 </r>
       <r>   -1.0308    0.0000 </r>
       <r>   -0.9724    0.0000 </r>
       <r>   -0.8827    0.0000 </r>
       <r>   -0.8767    0.0000 </r>
       <r>   -0.8357    0.0000 </r>
       <r>   -0.7793    0.0000 </r>
       <r>   -0.7360    0.0000 </r>
       <r>   -0.6174    0.0000 </r>
       <r>   -0.4897    0.0000 </r>
       <r>   -0.3904    0.0000 </r>
       <r>   -0.2314    0.0000 </r>
       <r>   -0.0894    0.0000 </r>
       <r>    0.0410    0.0000 </r>
       <r>    0.1230    0.0000 </r>
       <r>    0.2847    0.0000 </r>
       <r>    0.6439    0.0000 </r>
       <r>    0.6608    0.0000 </r>
       <r>    0.9228    0.0000 </r>
       <r>    1.0560    0.0000 </r>
       <r>    1.2863    0.0000 </r>
       <r>    1.4941    0.0000 </r>
       <r>    2.2096    0.0000 </r>
       <r>    2.2481    0.0000 </r>
       <r>    2.3851    0.0000 </r>
      </set>
     </set>
    </set>
   </array>
  </eigenvalues>
  <separator name="orbital magnetization" >
   <v name="MAGDIPOLOUT">      0.00000000      0.00000000      0.00000000</v>
  </separator>
 </calculation>
 <structure name="finalpos" >
  <crystal>
   <varray name="basis" >
    <v>       8.34510626       4.81687532       0.00000000 </v>
    <v>      -8.36788749       4.85625959       0.00000000 </v>
    <v>       0.00000000       0.00000000      30.00000000 </v>
   </varray>
   <i name="volume">   2424.99219135 </i>
   <varray name="rec_basis" >
    <v>       0.06007763       0.10352059       0.00000000 </v>
    <v>      -0.05959040       0.10323876       0.00000000 </v>
    <v>       0.00000000       0.00000000       0.03333333 </v>
   </varray>
  </crystal>
  <varray name="positions" >
   <v>       0.31728701       0.29851875      -0.00141469 </v>
   <v>       0.98611155       0.29501736      -0.00145464 </v>
   <v>       0.69022827       0.37371022       0.00251347 </v>
   <v>       0.00460694       0.69271279       0.00073814 </v>
   <v>      -0.00647256      -0.01221910      -0.00063583 </v>
   <v>       0.69749007       0.68749732       0.00031418 </v>
   <v>       0.30438844      -0.01744274      -0.00063338 </v>
   <v>       0.33386377       0.70012363       0.00163643 </v>
   <v>       0.67793411      -0.02162534      -0.00072180 </v>
   <v>       0.11033667       0.22028737       0.94778944 </v>
   <v>       0.22032419       0.11005652       0.05313404 </v>
   <v>       0.10647401       0.54729736       0.95558372 </v>
   <v>       0.21627640       0.44008480       0.04377714 </v>
   <v>       0.10881526       0.89073910       0.94278953 </v>
   <v>       0.21906516       0.78357745       0.05712582 </v>
   <v>       0.44781469       0.22540586       0.95149176 </v>
   <v>       0.56020493       0.11779681       0.04004648 </v>
   <v>       0.43990841       0.55222161       0.95932258 </v>
   <v>       0.55096515       0.44413353       0.04781342 </v>
   <v>       0.44635313       0.89632815       0.94685142 </v>
   <v>       0.55381543       0.77267980       0.05320794 </v>
   <v>       0.77416222       0.22248349       0.95274429 </v>
   <v>       0.88607607       0.10492325       0.05294292 </v>
   <v>       0.78335147       0.55959961       0.94693648 </v>
   <v>       0.89597624       0.44595285       0.04810813 </v>
   <v>       0.78130315       0.88706617       0.94275435 </v>
   <v>       0.89155428       0.78128784       0.05723855 </v>
  </varray>
 </structure>
</modeling>
