unknown system                          
           1
     8.852332    5.102975    0.000000
    -8.856288    5.109780    0.000000
     0.000000    0.000000   30.000000
   V    Mo   W    S 
   3   3   3  18
Direct configuration=     1
   0.33333334  0.33333334  0.00000000
   1.00000000  0.33333334  0.00000000
   0.66666669  0.33333334  0.00000000
   0.00000000  0.66666669  0.00000000
   0.00000000  0.00000000  0.00000000
   0.66666669  0.66666669  0.00000000
   0.33333334  0.00000000  0.00000000
   0.33333334  0.66666669  0.00000000
   0.66666669  0.00000000  0.00000000
   0.11068511  0.22244981  0.95539999
   0.22244981  0.11068511  0.04460000
   0.11068511  0.55578315  0.95539999
   0.22244981  0.44401845  0.04460000
   0.11068511  0.88911647  0.95539999
   0.22244981  0.77735180  0.04460000
   0.44401845  0.22244981  0.95539999
   0.55578315  0.11068511  0.04460000
   0.44401845  0.55578315  0.95539999
   0.55578315  0.44401845  0.04460000
   0.44401845  0.88911647  0.95539999
   0.55578315  0.77735180  0.04460000
   0.77735180  0.22244981  0.95539999
   0.88911647  0.11068511  0.04460000
   0.77735180  0.55578315  0.95539999
   0.88911647  0.44401845  0.04460000
   0.77735180  0.88911647  0.95539999
   0.88911647  0.77735180  0.04460000
unknown system                          
           1
     8.664429    4.997033    0.000000
    -8.667801    5.002829    0.000000
     0.000000    0.000000   30.000000
   V    Mo   W    S 
   3   3   3  18
Direct configuration=     2
   0.33329502  0.33324207 -0.00004253
   0.99996786  0.33324819 -0.00004475
   0.66784405  0.33578170  0.00009106
  -0.00152783  0.66791414  0.00022027
  -0.00123093 -0.00254512 -0.00027952
   0.66932772  0.66777899  0.00021286
   0.33047016 -0.00095045 -0.00018369
   0.33311288  0.66616367  0.00014757
   0.66846495 -0.00106893 -0.00019318
   0.11298016  0.22655566  0.95317880
   0.22481502  0.11512873  0.04806785
   0.10977432  0.55145497  0.95201463
   0.22063212  0.44090321  0.04690377
   0.11211908  0.88950375  0.95069237
   0.22287835  0.77793989  0.04929369
   0.44585151  0.22560872  0.95312417
   0.55719962  0.11469073  0.04796668
   0.44173418  0.55143741  0.95200146
   0.55352878  0.43994964  0.04686595
   0.44453008  0.88902108  0.95069394
   0.55490195  0.77792070  0.04928856
   0.77918917  0.22561411  0.95312937
   0.89006269  0.11510669  0.04805462
   0.77546454  0.55091899  0.95191499
   0.88679891  0.43994221  0.04686059
   0.77733194  0.88948547  0.95068942
   0.88869817  0.77746822  0.04933096
unknown system                          
           1
     8.482831    4.897546    0.000000
    -8.486032    4.903054    0.000000
     0.000000    0.000000   30.000000
   V    Mo   W    S 
   3   3   3  18
Direct configuration=     3
   0.33328489  0.33323689 -0.00009300
   0.99997292  0.33324058 -0.00009552
   0.66820217  0.33648880  0.00015382
  -0.00171458  0.66879442  0.00024131
  -0.00185136 -0.00378427 -0.00029201
   0.67039291  0.66866677  0.00023167
   0.32943788 -0.00163988 -0.00013934
   0.33327198  0.66646031  0.00009723
   0.66879639 -0.00175690 -0.00015218
   0.11303659  0.22662381  0.95325675
   0.22497644  0.11510519  0.04802711
   0.10992246  0.55148010  0.95211126
   0.22068542  0.44105488  0.04687647
   0.11231140  0.88960286  0.95052626
   0.22309459  0.77803947  0.04931257
   0.44577980  0.22544187  0.95320093
   0.55712639  0.11449594  0.04774855
   0.44157717  0.55146619  0.95209846
   0.55348626  0.43987840  0.04683513
   0.44452664  0.88905545  0.95075864
   0.55481910  0.77802125  0.04931168
   0.77913437  0.22544260  0.95320947
   0.88991756  0.11508518  0.04801365
   0.77537484  0.55077215  0.95184844
   0.88672493  0.43987294  0.04682705
   0.77721455  0.88958519  0.95052772
   0.88871274  0.77748425  0.04955777
unknown system                          
           1
     8.263428    4.770462    0.000000
    -8.277538    4.794865    0.000000
     0.000000    0.000000   30.000000
   V    Mo   W    S 
   3   3   3  18
Direct configuration=     4
   0.33322320  0.33323252 -0.00026598
   1.00001553  0.33324319 -0.00026859
   0.66946817  0.33897728  0.00034312
  -0.00171008  0.67291488  0.00021047
  -0.00451357 -0.00911906 -0.00023473
   0.67451854  0.67280319  0.00020325
   0.32537431 -0.00499576  0.00008696
   0.33427855  0.66843162 -0.00014102
   0.66944531 -0.00507071  0.00007376
   0.11349325  0.22734618  0.95228765
   0.22528572  0.11610902  0.04931347
   0.10916471  0.55060193  0.95107749
   0.22011594  0.44006457  0.04812885
   0.11204158  0.88940384  0.94822440
   0.22298649  0.77790357  0.05102912
   0.44633205  0.22628290  0.95217338
   0.55751224  0.11509916  0.04829449
   0.44132869  0.55057800  0.95106225
   0.55298179  0.43907284  0.04800951
   0.44458969  0.88932237  0.94937437
   0.55489631  0.77789627  0.05104322
   0.77957135  0.22626899  0.95218601
   0.89073391  0.11608672  0.04930078
   0.77476494  0.54960862  0.95019739
   0.88625628  0.43909222  0.04799452
   0.77723574  0.88940148  0.94823651
   0.88882382  0.77765863  0.05205926
unknown system                          
           1
     8.263722    4.771170    0.000000
    -8.291840    4.819842    0.000000
     0.000000    0.000000   30.000000
   V    Mo   W    S 
   3   3   3  18
Direct configuration=     5
   0.33319070  0.33320833 -0.00049531
   0.99998463  0.33320752 -0.00049676
   0.67217088  0.34434347  0.00058530
  -0.00096453  0.68117904  0.00007032
  -0.00956592 -0.01926163 -0.00005233
   0.68199152  0.68108780  0.00008326
   0.31652499 -0.01207290  0.00035882
   0.33654518  0.67284263 -0.00047756
   0.67113790 -0.01212138  0.00037171
   0.11324094  0.22656924  0.95096319
   0.22436832  0.11644292  0.05093242
   0.10792808  0.55035810  0.94987828
   0.21966136  0.43938205  0.04974693
   0.11104577  0.88903563  0.94482382
   0.22165525  0.77680455  0.05352325
   0.44665298  0.22652190  0.95089457
   0.55752329  0.11508772  0.04852939
   0.44231417  0.55031778  0.94985297
   0.55303158  0.43952491  0.04968043
   0.44509186  0.89036582  0.94756397
   0.55514830  0.77680066  0.05354086
   0.77973671  0.22651219  0.95090032
   0.89199524  0.11640471  0.05090551
   0.77467695  0.54940630  0.94797709
   0.88641124  0.43955422  0.04967175
   0.77790608  0.88903733  0.94484353
   0.88881098  0.77767556  0.05582416
unknown system                          
           1
     8.258859    4.768335    0.000000
    -8.287237    4.817457    0.000000
     0.000000    0.000000   30.000000
   V    Mo   W    S 
   3   3   3  18
Direct configuration=     6
   0.33326853  0.33307789 -0.00057302
   0.99975907  0.33307365 -0.00057934
   0.67347762  0.34696243  0.00068922
  -0.00051951  0.68129932  0.00024694
  -0.00935566 -0.01884380 -0.00015035
   0.68162063  0.68122808  0.00024572
   0.31425905 -0.01364470  0.00022624
   0.33723180  0.67417802 -0.00040200
   0.67186017 -0.01371747  0.00021988
   0.11257897  0.22526042  0.95110949
   0.22317587  0.11529561  0.05086052
   0.10796866  0.55134125  0.95009192
   0.21994759  0.43994338  0.04959952
   0.11065812  0.88923608  0.94455596
   0.22083727  0.77605479  0.05369333
   0.44633189  0.22566451  0.95113619
   0.55694168  0.11396665  0.04786730
   0.44328244  0.55129929  0.95006300
   0.55358323  0.44069844  0.04962027
   0.44551056  0.89117294  0.94761178
   0.55519834  0.77604639  0.05372571
   0.77919941  0.22565602  0.95114165
   0.89204682  0.11526623  0.05083955
   0.77523242  0.55052866  0.94792492
   0.88705768  0.44073458  0.04961418
   0.77849001  0.88924388  0.94458498
   0.88857180  0.77719189  0.05603634
unknown system                          
           1
     8.264968    4.771865    0.000000
    -8.297718    4.828559    0.000000
     0.000000    0.000000   30.000000
   V    Mo   W    S 
   3   3   3  18
Direct configuration=     7
   0.33326052  0.33274350 -0.00068191
   0.99941707  0.33273102 -0.00069068
   0.67509823  0.35021319  0.00074971
  -0.00014161  0.68238589  0.00023947
  -0.00985301 -0.01984210 -0.00007866
   0.68227652  0.68231539  0.00024494
   0.31123245 -0.01572293  0.00023641
   0.33812734  0.67588640 -0.00040706
   0.67280925 -0.01581128  0.00023707
   0.11225957  0.22460834  0.95114740
   0.22246903  0.11460710  0.05088526
   0.10804522  0.55183583  0.95025775
   0.22012053  0.44029829  0.04950467
   0.11014209  0.88898979  0.94417882
   0.22043707  0.77570020  0.05396520
   0.44618897  0.22508018  0.95133089
   0.55659578  0.11328687  0.04715433
   0.44371472  0.55178666  0.95022042
   0.55382867  0.44140688  0.04971134
   0.44575970  0.89165520  0.94759321
   0.55524168  0.77570757  0.05400284
   0.77877197  0.22507058  0.95133465
   0.89205579  0.11457846  0.05086408
   0.77553638  0.55113740  0.94779935
   0.88752003  0.44144622  0.04970736
   0.77877871  0.88900578  0.94419981
   0.88852178  0.77711403  0.05629325
unknown system                          
           1
     8.265828    4.773044    0.000000
    -8.306075    4.842730    0.000000
     0.000000    0.000000   30.000000
   V    Mo   W    S 
   3   3   3  18
Direct configuration=     8
   0.33315423  0.33214969 -0.00082223
   0.99884902  0.33210767 -0.00083727
   0.67707379  0.35407723  0.00088149
   0.00013629  0.68307014  0.00028658
  -0.01013736 -0.02037486 -0.00010446
   0.68263911  0.68301961  0.00029367
   0.30821592 -0.01760318  0.00021510
   0.33904309  0.67764763 -0.00038837
   0.67400750 -0.01765621  0.00021695
   0.11197677  0.22408327  0.95124530
   0.22173415  0.11381577  0.05091165
   0.10825040  0.55231541  0.95051821
   0.22027160  0.44063801  0.04930235
   0.10953869  0.88874739  0.94384444
   0.22000800  0.77525653  0.05420504
   0.44611845  0.22445676  0.95163952
   0.55625432  0.11261574  0.04618811
   0.44402244  0.55228933  0.95046065
   0.55406119  0.44210622  0.04975549
   0.44607764  0.89227447  0.94766772
   0.55522530  0.77528063  0.05425417
   0.77825686  0.22446498  0.95164741
   0.89200738  0.11382006  0.05088713
   0.77586797  0.55180839  0.94765831
   0.88800284  0.44212923  0.04974618
   0.77915588  0.88877004  0.94386228
   0.88840299  0.77690449  0.05646448
unknown system                          
           1
     8.279273    4.780457    0.000000
    -8.318910    4.849082    0.000000
     0.000000    0.000000   30.000000
   V    Mo   W    S 
   3   3   3  18
Direct configuration=     9
   0.33267436  0.33019682 -0.00111853
   0.99731162  0.33005691 -0.00114268
   0.68089011  0.36181172  0.00123559
   0.00034753  0.68430887  0.00036037
  -0.01057568 -0.02127320 -0.00018941
   0.68348170  0.68422574  0.00036581
   0.30272363 -0.02058054  0.00021871
   0.34101217  0.68123038 -0.00032650
   0.67649871 -0.02067782  0.00021579
   0.11168100  0.22347792  0.95140479
   0.22049863  0.11237328  0.05098612
   0.10885094  0.55300431  0.95113988
   0.22050602  0.44110414  0.04876390
   0.10821722  0.88805669  0.94324773
   0.21933783  0.77452795  0.05456713
   0.44624954  0.22348818  0.95235256
   0.55582775  0.11175308  0.04399594
   0.44411419  0.55293597  0.95105965
   0.55431926  0.44325506  0.04982355
   0.44670047  0.89345526  0.94794942
   0.55517243  0.77460309  0.05464276
   0.77714267  0.22347318  0.95234341
   0.89181295  0.11239303  0.05098361
   0.77648379  0.55306193  0.94734066
   0.88892850  0.44330317  0.04982690
   0.77979645  0.88809283  0.94325806
   0.88821067  0.77655653  0.05669468
unknown system                          
           1
     8.277980    4.779847    0.000000
    -8.318400    4.849829    0.000000
     0.000000    0.000000   30.000000
   V    Mo   W    S 
   3   3   3  18
Direct configuration=    10
   0.33234301  0.32943063 -0.00111144
   0.99683060  0.32923827 -0.00114208
   0.68079859  0.36160835  0.00127528
   0.00007979  0.68423500  0.00033068
  -0.01047006 -0.02106167 -0.00023863
   0.68361668  0.68413247  0.00033572
   0.30316843 -0.02009661  0.00019335
   0.34121248  0.68151431 -0.00028333
   0.67655829 -0.02016515  0.00019116
   0.11173115  0.22354307  0.95131996
   0.22042869  0.11236344  0.05108511
   0.10890318  0.55287466  0.95122656
   0.22046220  0.44099732  0.04868335
   0.10807111  0.88792182  0.94321274
   0.21931031  0.77452131  0.05458658
   0.44647653  0.22360218  0.95237019
   0.55597877  0.11205522  0.04380719
   0.44393144  0.55278887  0.95112968
   0.55423159  0.44336979  0.04986838
   0.44676482  0.89358433  0.94794404
   0.55519750  0.77460438  0.05467843
   0.77702560  0.22358526  0.95236331
   0.89185393  0.11236992  0.05108321
   0.77656475  0.55322258  0.94728090
   0.88910938  0.44342328  0.04986209
   0.77981699  0.88795722  0.94322435
   0.88821871  0.77659420  0.05672311
unknown system                          
           1
     8.281732    4.782154    0.000000
    -8.322412    4.852591    0.000000
     0.000000    0.000000   30.000000
   V    Mo   W    S 
   3   3   3  18
Direct configuration=    11
   0.33184607  0.32814193 -0.00114829
   0.99597694  0.32785840 -0.00118826
   0.68162275  0.36327721  0.00140575
  -0.00013367  0.68457010  0.00033121
  -0.01046092 -0.02105822 -0.00026905
   0.68404284  0.68443698  0.00033780
   0.30206892 -0.02049599  0.00018076
   0.34190700  0.68267722 -0.00024456
   0.67725767 -0.02057038  0.00017800
   0.11169824  0.22345812  0.95129521
   0.22011822  0.11199180  0.05113490
   0.10908560  0.55292534  0.95150097
   0.22047843  0.44102162  0.04845559
   0.10777269  0.88771618  0.94312940
   0.21918284  0.77445610  0.05460062
   0.44667345  0.22350702  0.95253622
   0.55601918  0.11213630  0.04319701
   0.44380490  0.55282253  0.95137892
   0.55425708  0.44370909  0.04985475
   0.44691615  0.89387370  0.94802921
   0.55527427  0.77456528  0.05471203
   0.77672800  0.22348626  0.95252511
   0.89179239  0.11200245  0.05114102
   0.77673778  0.55357624  0.94722626
   0.88942410  0.44377234  0.04984397
   0.77991594  0.88775416  0.94314066
   0.88820759  0.77660268  0.05671470
unknown system                          
           1
     8.282217    4.782501    0.000000
    -8.323128    4.853338    0.000000
     0.000000    0.000000   30.000000
   V    Mo   W    S 
   3   3   3  18
Direct configuration=    12
   0.33132204  0.32695018 -0.00115068
   0.99524355  0.32656740 -0.00119989
   0.68202674  0.36409408  0.00149528
  -0.00036454  0.68474897  0.00032123
  -0.01033994 -0.02082981 -0.00029917
   0.68433509  0.68458562  0.00032933
   0.30163983 -0.02056006  0.00016318
   0.34243135  0.68350663 -0.00021829
   0.67762129 -0.02063628  0.00015991
   0.11169118  0.22343927  0.95122687
   0.21994742  0.11179570  0.05120840
   0.10916795  0.55288213  0.95171285
   0.22046315  0.44099585  0.04829752
   0.10760361  0.88760453  0.94307667
   0.21911064  0.77445810  0.05460485
   0.44685412  0.22351425  0.95259805
   0.55610072  0.11229962  0.04285283
   0.44368907  0.55277318  0.95156165
   0.55425210  0.44393922  0.04984441
   0.44702461  0.89408107  0.94804977
   0.55536492  0.77459323  0.05473639
   0.77655481  0.22349301  0.95258401
   0.89176970  0.11181801  0.05121979
   0.77684302  0.55379248  0.94718852
   0.88966331  0.44400680  0.04982570
   0.77997906  0.88764416  0.94308842
   0.88821965  0.77665713  0.05672229
unknown system                          
           1
     8.276218    4.778852    0.000000
    -8.317768    4.850792    0.000000
     0.000000    0.000000   30.000000
   V    Mo   W    S 
   3   3   3  18
Direct configuration=    13
   0.33102006  0.32632286 -0.00114768
   0.99487699  0.32587922 -0.00120208
   0.68218795  0.36441733  0.00153514
  -0.00046205  0.68486614  0.00031572
  -0.01026511 -0.02068802 -0.00031293
   0.68448257  0.68468462  0.00032464
   0.30148362 -0.02058909  0.00015305
   0.34270356  0.68392617 -0.00020701
   0.67774837 -0.02066397  0.00014969
   0.11169144  0.22343448  0.95118271
   0.21988321  0.11171053  0.05124696
   0.10920227  0.55285770  0.95182319
   0.22046163  0.44099418  0.04822011
   0.10753197  0.88756414  0.94305456
   0.21908094  0.77446543  0.05460449
   0.44692364  0.22351408  0.95261788
   0.55613147  0.11236324  0.04271116
   0.44363635  0.55274520  0.95165523
   0.55424545  0.44405433  0.04983579
   0.44707938  0.89418514  0.94805169
   0.55541035  0.77461461  0.05474766
   0.77648391  0.22349181  0.95260148
   0.89174966  0.11173863  0.05126187
   0.77689403  0.55389775  0.94717201
   0.88978651  0.44412425  0.04981309
   0.78001376  0.88760439  0.94306637
   0.88823253  0.77669930  0.05672510
unknown system                          
           1
     8.288182    4.786187    0.000000
    -8.329571    4.857854    0.000000
     0.000000    0.000000   30.000000
   V    Mo   W    S 
   3   3   3  18
Direct configuration=    14
   0.33151087  0.32712901 -0.00117805
   0.99541481  0.32690961 -0.00121429
   0.68204257  0.36430360  0.00150150
  -0.00025541  0.68483591  0.00032480
  -0.01045686 -0.02113341 -0.00030898
   0.68432480  0.68467707  0.00033073
   0.30137094 -0.02068108  0.00017354
   0.34245304  0.68356802 -0.00022509
   0.67764256 -0.02088263  0.00016384
   0.11171926  0.22337035  0.95126321
   0.21984482  0.11175156  0.05119813
   0.10928736  0.55302639  0.95169619
   0.22053024  0.44101466  0.04829021
   0.10749402  0.88749903  0.94305445
   0.21907584  0.77439475  0.05460511
   0.44686775  0.22351709  0.95264948
   0.55607893  0.11224429  0.04271258
   0.44365477  0.55281667  0.95158446
   0.55421427  0.44400172  0.04987796
   0.44701856  0.89405483  0.94810652
   0.55533435  0.77452377  0.05473578
   0.77645236  0.22344252  0.95262482
   0.89179663  0.11169656  0.05122046
   0.77690492  0.55391116  0.94715285
   0.88972715  0.44410147  0.04987365
   0.77997707  0.88753584  0.94306478
   0.88818884  0.77658569  0.05672125
unknown system                          
           1
     8.289710    4.787058    0.000000
    -8.331026    4.858599    0.000000
     0.000000    0.000000   30.000000
   V    Mo   W    S 
   3   3   3  18
Direct configuration=    15
   0.32999579  0.32422310 -0.00113577
   0.99361716  0.32353943 -0.00121087
   0.68276576  0.36552276  0.00166769
  -0.00082209  0.68520108  0.00029618
  -0.00999091 -0.02014208 -0.00035863
   0.68495916  0.68496115  0.00030826
   0.30099449 -0.02066092  0.00011663
   0.34359392  0.68530080 -0.00016538
   0.67820496 -0.02069315  0.00011481
   0.11167802  0.22343114  0.95103229
   0.21967782  0.11142960  0.05138201
   0.10928136  0.55273772  0.95218726
   0.22043319  0.44097837  0.04796747
   0.10730225  0.88744583  0.94297174
   0.21897935  0.77449048  0.05461739
   0.44716264  0.22350427  0.95267767
   0.55624041  0.11259001  0.04225325
   0.44347465  0.55264460  0.95195341
   0.55423645  0.44442481  0.04980595
   0.44727121  0.89455534  0.94804181
   0.55556444  0.77468679  0.05479854
   0.77626123  0.22349564  0.95265793
   0.89168595  0.11150024  0.05140393
   0.77705030  0.55422241  0.94711917
   0.89018183  0.44449211  0.04976536
   0.78013867  0.88748931  0.94298426
   0.88827644  0.77684363  0.05674753
unknown system                          
           1
     8.281047    4.782940    0.000000
    -8.321258    4.852581    0.000000
     0.000000    0.000000   30.000000
   V    Mo   W    S 
   3   3   3  18
Direct configuration=    16
   0.32954180  0.32325379 -0.00112814
   0.99317944  0.32260647 -0.00120337
   0.68292979  0.36597574  0.00172135
  -0.00097251  0.68534021  0.00028775
  -0.00983041 -0.01987493 -0.00037913
   0.68514527  0.68508653  0.00030075
   0.30079507 -0.02061449  0.00010348
   0.34399173  0.68587908 -0.00013236
   0.67835807 -0.02073693  0.00009558
   0.11172439  0.22343785  0.95097436
   0.21960322  0.11134207  0.05143550
   0.10932464  0.55270413  0.95233444
   0.22045733  0.44096592  0.04785063
   0.10720343  0.88738946  0.94293301
   0.21894216  0.77449487  0.05461973
   0.44724346  0.22353108  0.95270272
   0.55629277  0.11268984  0.04206282
   0.44337274  0.55254520  0.95209354
   0.55417780  0.44456163  0.04978843
   0.44735734  0.89471049  0.94802465
   0.55562211  0.77471027  0.05482416
   0.77614988  0.22348620  0.95267558
   0.89165055  0.11137074  0.05146615
   0.77711964  0.55436794  0.94709468
   0.89035800  0.44465468  0.04974819
   0.78018290  0.88743315  0.94294598
   0.88829382  0.77690347  0.05675943
unknown system                          
           1
     8.283078    4.783991    0.000000
    -8.322420    4.852126    0.000000
     0.000000    0.000000   30.000000
   V    Mo   W    S 
   3   3   3  18
Direct configuration=    17
   0.33217393  0.32864850 -0.00121128
   0.99546752  0.32754277 -0.00126969
   0.68222186  0.36411761  0.00147321
  -0.00019417  0.68448301  0.00032244
  -0.01060702 -0.02116222 -0.00025649
   0.68405488  0.68422385  0.00033148
   0.30134734 -0.02061420  0.00022067
   0.34174239  0.68259507 -0.00027592
   0.67815106 -0.02039649  0.00023794
   0.11151571  0.22342745  0.95141906
   0.21984594  0.11169805  0.05107826
   0.10910828  0.55290977  0.95151192
   0.22026872  0.44089745  0.04844385
   0.10760398  0.88754314  0.94307953
   0.21911233  0.77434317  0.05463481
   0.44687572  0.22345789  0.95268496
   0.55602108  0.11216625  0.04284518
   0.44392045  0.55310253  0.95132905
   0.55450127  0.44383020  0.04989493
   0.44693723  0.89391187  0.94815721
   0.55522860  0.77448863  0.05468036
   0.77661486  0.22353141  0.95262728
   0.89195234  0.11197060  0.05112041
   0.77678623  0.55363166  0.94717754
   0.88951880  0.44382098  0.04989315
   0.77989260  0.88756659  0.94309209
   0.88815253  0.77647892  0.05675795
unknown system                          
           1
     8.285962    4.785386    0.000000
    -8.322638    4.848902    0.000000
     0.000000    0.000000   30.000000
   V    Mo   W    S 
   3   3   3  18
Direct configuration=    18
   0.33317558  0.33041482 -0.00124327
   0.99593024  0.32887613 -0.00129478
   0.68223177  0.36401787  0.00141260
  -0.00000267  0.68428700  0.00034461
  -0.01100307 -0.02186101 -0.00025871
   0.68383866  0.68397398  0.00034433
   0.30119853 -0.02080672  0.00023627
   0.34113167  0.68177044 -0.00030984
   0.67821163 -0.02042844  0.00025759
   0.11145745  0.22334666  0.95155657
   0.21978043  0.11179612  0.05100699
   0.10908677  0.55296087  0.95131286
   0.22021833  0.44087560  0.04856030
   0.10759789  0.88750556  0.94310487
   0.21910299  0.77427001  0.05463178
   0.44687175  0.22345003  0.95274196
   0.55595111  0.11203575  0.04287551
   0.44402734  0.55326863  0.95113270
   0.55457994  0.44370167  0.04996187
   0.44688299  0.89377317  0.94826572
   0.55513745  0.77439766  0.05462953
   0.77659927  0.22350827  0.95264286
   0.89215474  0.11210193  0.05108130
   0.77673633  0.55348128  0.94717916
   0.88939392  0.44368467  0.04996527
   0.77983343  0.88750171  0.94311751
   0.88808998  0.77631077  0.05674434
unknown system                          
           1
     8.294195    4.790144    0.000000
    -8.331616    4.854950    0.000000
     0.000000    0.000000   30.000000
   V    Mo   W    S 
   3   3   3  18
Direct configuration=    19
   0.33486225  0.33313080 -0.00131877
   0.99623571  0.33022604 -0.00136948
   0.68241212  0.36439459  0.00140507
   0.00044975  0.68420497  0.00038119
  -0.01182521 -0.02325790 -0.00027564
   0.68350342  0.68367816  0.00037131
   0.30036600 -0.02100445  0.00032539
   0.34028898  0.68068137 -0.00025722
   0.67900207 -0.02037764  0.00034921
   0.11146928  0.22314076  0.95190659
   0.21937503  0.11174264  0.05081668
   0.10912202  0.55295645  0.95117631
   0.22020210  0.44085195  0.04852251
   0.10728139  0.88717669  0.94304041
   0.21894197  0.77410813  0.05460857
   0.44693534  0.22353465  0.95297543
   0.55580738  0.11177553  0.04245552
   0.44399052  0.55345018  0.95096718
   0.55448333  0.44376665  0.05015186
   0.44695562  0.89386626  0.94848356
   0.55512168  0.77420098  0.05452451
   0.77644970  0.22344483  0.95275633
   0.89248012  0.11192923  0.05099722
   0.77696708  0.55379585  0.94707645
   0.88966749  0.44378833  0.05013856
   0.77974760  0.88710441  0.94305812
   0.88792171  0.77590501  0.05673302
unknown system                          
           1
     8.293481    4.789893    0.000000
    -8.330766    4.854465    0.000000
     0.000000    0.000000   30.000000
   V    Mo   W    S 
   3   3   3  18
Direct configuration=    20
   0.33419667  0.33142679 -0.00127640
   0.99525577  0.32841996 -0.00134920
   0.68280888  0.36531643  0.00149085
   0.00003713  0.68436140  0.00035087
  -0.01159663 -0.02284156 -0.00035527
   0.68382175  0.68375996  0.00034238
   0.30016006 -0.02104438  0.00021808
   0.34111945  0.68192230 -0.00024120
   0.67908088 -0.02050007  0.00023275
   0.11152014  0.22307823  0.95174790
   0.21923713  0.11163621  0.05096855
   0.10917870  0.55285437  0.95147090
   0.22025616  0.44087582  0.04834521
   0.10721052  0.88716187  0.94299758
   0.21892419  0.77419107  0.05464407
   0.44713942  0.22362128  0.95297109
   0.55595164  0.11205892  0.04219857
   0.44380883  0.55329313  0.95121384
   0.55441336  0.44396820  0.05010884
   0.44705677  0.89408776  0.94845447
   0.55525566  0.77430600  0.05461419
   0.77629369  0.22349192  0.95276797
   0.89243648  0.11173990  0.05115546
   0.77702254  0.55392956  0.94709805
   0.88986199  0.44400517  0.05006070
   0.77981211  0.88708350  0.94301495
   0.88795116  0.77601067  0.05675469
unknown system                          
           1
     8.293113    4.789897    0.000000
    -8.330954    4.855435    0.000000
     0.000000    0.000000   30.000000
   V    Mo   W    S 
   3   3   3  18
Direct configuration=    21
   0.33426221  0.33114759 -0.00126883
   0.99467880  0.32753373 -0.00136246
   0.68305485  0.36587259  0.00155320
  -0.00007569  0.68449129  0.00035787
  -0.01166804 -0.02292304 -0.00036423
   0.68391062  0.68373384  0.00035049
   0.29984945 -0.02107426  0.00022734
   0.34143557  0.68241921 -0.00021109
   0.67935189 -0.02051982  0.00023830
   0.11154228  0.22299337  0.95176733
   0.21905000  0.11147549  0.05095608
   0.10922679  0.55279560  0.95162284
   0.22027404  0.44090279  0.04823316
   0.10709379  0.88705327  0.94295749
   0.21889520  0.77425061  0.05462219
   0.44729111  0.22371447  0.95303033
   0.55599619  0.11215965  0.04194164
   0.44371109  0.55330117  0.95131005
   0.55441634  0.44410067  0.05012425
   0.44711369  0.89421473  0.94848968
   0.55535537  0.77437163  0.05459975
   0.77618435  0.22352625  0.95280456
   0.89242336  0.11152820  0.05118074
   0.77711435  0.55408222  0.94708726
   0.89000081  0.44414319  0.05004105
   0.77980115  0.88694671  0.94297557
   0.88792487  0.77597331  0.05673532
unknown system                          
           1
     8.291080    4.788492    0.000000
    -8.328026    4.852476    0.000000
     0.000000    0.000000   30.000000
   V    Mo   W    S 
   3   3   3  18
Direct configuration=    22
   0.33391960  0.33012672 -0.00124321
   0.99385925  0.32596144 -0.00136289
   0.68326080  0.36640722  0.00162652
  -0.00027519  0.68475215  0.00034973
  -0.01155768 -0.02269465 -0.00038835
   0.68409109  0.68382346  0.00034477
   0.29965745 -0.02106975  0.00020856
   0.34209083  0.68334653 -0.00018042
   0.67945678 -0.02059017  0.00021124
   0.11159000  0.22293464  0.95169373
   0.21891038  0.11130627  0.05100145
   0.10928624  0.55272595  0.95185613
   0.22031033  0.44094888  0.04809211
   0.10699754  0.88698641  0.94291970
   0.21886778  0.77434250  0.05460999
   0.44746970  0.22380470  0.95304744
   0.55607601  0.11232975  0.04171076
   0.44358422  0.55325582  0.95147359
   0.55441963  0.44428568  0.05012452
   0.44721030  0.89441961  0.94846912
   0.55548818  0.77448403  0.05462069
   0.77603041  0.22354573  0.95280878
   0.89234055  0.11130359  0.05126051
   0.77720309  0.55424891  0.94707187
   0.89018107  0.44434615  0.05000166
   0.77981544  0.88685227  0.94293840
   0.88793065  0.77603058  0.05673350
unknown system                          
           1
     8.299445    4.793517    0.000000
    -8.337241    4.858976    0.000000
     0.000000    0.000000   30.000000
   V    Mo   W    S 
   3   3   3  18
Direct configuration=    23
   0.33463550  0.33165232 -0.00129676
   0.99485720  0.32811280 -0.00137671
   0.68305649  0.36597140  0.00154682
   0.00007238  0.68440226  0.00036987
  -0.01179213 -0.02317011 -0.00036571
   0.68380355  0.68366734  0.00036059
   0.29969800 -0.02115941  0.00025162
   0.34122260  0.68221732 -0.00021349
   0.67940707 -0.02060747  0.00026363
   0.11153948  0.22292454  0.95184515
   0.21898911  0.11145389  0.05090911
   0.10927719  0.55286902  0.95154750
   0.22031663  0.44091852  0.04825688
   0.10706384  0.88699963  0.94295726
   0.21889939  0.77424350  0.05461335
   0.44729624  0.22373839  0.95307439
   0.55597661  0.11211050  0.04188544
   0.44369483  0.55333347  0.95127939
   0.55441285  0.44405596  0.05013786
   0.44708646  0.89415486  0.94855121
   0.55534703  0.77435612  0.05456285
   0.77616151  0.22353734  0.95283662
   0.89246969  0.11147195  0.05113971
   0.77710570  0.55406069  0.94708871
   0.88994361  0.44411821  0.05007466
   0.77977294  0.88690305  0.94297309
   0.88790070  0.77587833  0.05672683
unknown system                          
           1
     8.298312    4.792990    0.000000
    -8.335816    4.857945    0.000000
     0.000000    0.000000   30.000000
   V    Mo   W    S 
   3   3   3  18
Direct configuration=    24
   0.33404179  0.33006964 -0.00123968
   0.99354536  0.32553839 -0.00137239
   0.68338643  0.36667840  0.00164366
  -0.00032933  0.68476199  0.00033995
  -0.01163029 -0.02277161 -0.00041632
   0.68409359  0.68374838  0.00033345
   0.29952340 -0.02104793  0.00018359
   0.34220966  0.68357480 -0.00016151
   0.67962513 -0.02054986  0.00018324
   0.11159948  0.22287755  0.95171112
   0.21878672  0.11124723  0.05101799
   0.10930366  0.55266826  0.95191589
   0.22031246  0.44095223  0.04804590
   0.10694477  0.88692475  0.94288874
   0.21884735  0.77436170  0.05463707
   0.44758998  0.22386314  0.95306688
   0.55611263  0.11240938  0.04157967
   0.44352311  0.55325828  0.95150249
   0.55439664  0.44434956  0.05016832
   0.44726179  0.89453704  0.94847235