   27   27  100    1
  0.9710400E+02  0.1002848E-08  0.1002848E-08  0.3000000E-08  0.5000000E-15
  1.000000000000000E-004
  CAR 
 unknown system                          
    159     34    120
 
  0.0000000E+00  0.0000000E+00  0.0000000E+00  0.1562500E-01
    1      -17.794174   1.000000
    2      -16.693127   1.000000
    3      -16.587333   1.000000
    4      -16.566075   1.000000
    5      -16.496131   1.000000
    6      -16.421967   1.000000
    7      -16.367643   1.000000
    8      -16.314172   1.000000
    9      -16.161412   1.000000
   10      -16.098691   1.000000
   11      -16.077777   1.000000
   12      -16.017276   1.000000
   13      -15.826464   1.000000
   14      -15.735331   1.000000
   15      -15.622524   1.000000
   16      -15.523566   1.000000
   17      -15.473065   1.000000
   18      -15.377055   1.000000
   19       -9.199777   1.000000
   20       -8.927108   1.000000
   21       -8.839199   1.000000
   22       -8.821746   1.000000
   23       -8.750667   1.000000
   24       -8.669931   1.000000
   25       -8.599238   1.000000
   26       -8.552111   1.000000
   27       -8.508543   1.000000
   28       -8.389272   1.000000
   29       -8.380498   1.000000
   30       -8.341536   1.000000
   31       -8.298771   1.000000
   32       -8.221360   1.000000
   33       -8.201336   1.000000
   34       -8.044224   1.000000
   35       -7.880849   1.000000
   36       -7.826240   1.000000
   37       -7.708236   1.000000
   38       -7.548346   1.000000
   39       -7.451321   1.000000
   40       -7.352694   1.000000
   41       -7.318601   1.000000
   42       -7.301079   1.000000
   43       -7.164813   1.000000
   44       -6.983075   1.000000
   45       -6.843556   1.000000
   46       -6.772283   1.000000
   47       -6.752285   1.000000
   48       -6.645571   1.000000
   49       -6.526273   1.000000
   50       -6.522993   1.000000
   51       -6.482575   1.000000
   52       -6.381587   1.000000
   53       -6.340962   1.000000
   54       -6.299804   1.000000
   55       -6.182858   1.000000
   56       -6.070464   1.000000
   57       -6.012769   1.000000
   58       -5.912466   1.000000
   59       -5.689409   1.000000
   60       -5.600919   1.000000
   61       -5.569112   1.000000
   62       -5.401049   1.000000
   63       -5.344040   1.000000
   64       -5.132689   1.000000
   65       -5.120658   1.000000
   66       -5.000888   1.000000
   67       -4.869870   1.000000
   68       -4.786524   1.000000
   69       -4.734322   1.000000
   70       -4.668754   1.000000
   71       -4.581327   1.000000
   72       -4.564670   1.000000
   73       -4.528198   1.000000
   74       -4.248331   1.000000
   75       -4.178914   1.000000
   76       -4.028442   1.000000
   77       -3.625795   0.998337
   78       -3.556528   0.992781
   79       -3.451449   0.955728
   80       -3.392656   0.901024
   81       -3.277307   0.681451
   82       -2.860672   0.006675
   83       -2.677627   0.000082
   84       -2.592398   0.000006
   85       -2.553728   0.000002
   86       -2.426316   0.000000
   87       -2.262817   0.000000
   88       -2.213100   0.000000
   89       -2.085276   0.000000
   90       -1.922523   0.000000
   91       -1.787247   0.000000
   92       -1.738519   0.000000
   93       -1.584008   0.000000
   94       -1.411865   0.000000
   95       -1.334598   0.000000
   96       -1.105208   0.000000
   97       -1.010829   0.000000
   98       -0.946500   0.000000
   99       -0.707774   0.000000
  100       -0.684449   0.000000
  101       -0.517559   0.000000
  102       -0.463396   0.000000
  103       -0.346598   0.000000
  104       -0.324900   0.000000
  105       -0.175425   0.000000
  106       -0.090235   0.000000
  107        0.034082   0.000000
  108        0.061556   0.000000
  109        0.181880   0.000000
  110        0.203190   0.000000
  111        0.250705   0.000000
  112        0.395530   0.000000
  113        0.558659   0.000000
  114        0.698416   0.000000
  115        1.143274   0.000000
  116        1.239931   0.000000
  117        1.313519   0.000000
  118        1.647157   0.000000
  119        1.833177   0.000000
  120        2.163276   0.000000
 
  0.1250000E+00  0.2775558E-16  0.0000000E+00  0.3125000E-01
    1      -17.768442   1.000000
    2      -16.715228   1.000000
    3      -16.700126   1.000000
    4      -16.603887   1.000000
    5      -16.539189   1.000000
    6      -16.389903   1.000000
    7      -16.291718   1.000000
    8      -16.269700   1.000000
    9      -16.183892   1.000000
   10      -16.088366   1.000000
   11      -16.033318   1.000000
   12      -15.988412   1.000000
   13      -15.819582   1.000000
   14      -15.713256   1.000000
   15      -15.639095   1.000000
   16      -15.525163   1.000000
   17      -15.490503   1.000000
   18      -15.381524   1.000000
   19       -9.177622   1.000000
   20       -9.116073   1.000000
   21       -8.961147   1.000000
   22       -8.929763   1.000000
   23       -8.796747   1.000000
   24       -8.700044   1.000000
   25       -8.588271   1.000000
   26       -8.530872   1.000000
   27       -8.473492   1.000000
   28       -8.441705   1.000000
   29       -8.328500   1.000000
   30       -8.294879   1.000000
   31       -8.220522   1.000000
   32       -8.126489   1.000000
   33       -8.050784   1.000000
   34       -7.975133   1.000000
   35       -7.820512   1.000000
   36       -7.738709   1.000000
   37       -7.653783   1.000000
   38       -7.586427   1.000000
   39       -7.513042   1.000000
   40       -7.423230   1.000000
   41       -7.296100   1.000000
   42       -7.198151   1.000000
   43       -7.139813   1.000000
   44       -7.041576   1.000000
   45       -6.924004   1.000000
   46       -6.827007   1.000000
   47       -6.727828   1.000000
   48       -6.604265   1.000000
   49       -6.546823   1.000000
   50       -6.491987   1.000000
   51       -6.452818   1.000000
   52       -6.403227   1.000000
   53       -6.313379   1.000000
   54       -6.293658   1.000000
   55       -6.220134   1.000000
   56       -6.130901   1.000000
   57       -5.942629   1.000000
   58       -5.922120   1.000000
   59       -5.685296   1.000000
   60       -5.579396   1.000000
   61       -5.521450   1.000000
   62       -5.481175   1.000000
   63       -5.324937   1.000000
   64       -5.210429   1.000000
   65       -5.119007   1.000000
   66       -5.052222   1.000000
   67       -4.926971   1.000000
   68       -4.878412   1.000000
   69       -4.765482   1.000000
   70       -4.685881   1.000000
   71       -4.618452   1.000000
   72       -4.564648   1.000000
   73       -4.398187   1.000000
   74       -4.151851   1.000000
   75       -4.049403   1.000000
   76       -3.975803   1.000000
   77       -3.793380   0.999981
   78       -3.703580   0.999755
   79       -3.478322   0.970831
   80       -3.309748   0.758397
   81       -3.153491   0.343199
   82       -2.844212   0.004789
   83       -2.695347   0.000135
   84       -2.614042   0.000012
   85       -2.548231   0.000001
   86       -2.398301   0.000000
   87       -2.269569   0.000000
   88       -2.202986   0.000000
   89       -2.055895   0.000000
   90       -1.927612   0.000000
   91       -1.784669   0.000000
   92       -1.744830   0.000000
   93       -1.585130   0.000000
   94       -1.388727   0.000000
   95       -1.333128   0.000000
   96       -1.110886   0.000000
   97       -0.977224   0.000000
   98       -0.929629   0.000000
   99       -0.758687   0.000000
  100       -0.698167   0.000000
  101       -0.600009   0.000000
  102       -0.525019   0.000000
  103       -0.465087   0.000000
  104       -0.294942   0.000000
  105       -0.248270   0.000000
  106       -0.205696   0.000000
  107       -0.032197   0.000000
  108        0.050006   0.000000
  109        0.176311   0.000000
  110        0.242572   0.000000
  111        0.296672   0.000000
  112        0.448431   0.000000
  113        0.630839   0.000000
  114        0.805750   0.000000
  115        1.132896   0.000000
  116        1.199420   0.000000
  117        1.321314   0.000000
  118        1.691889   0.000000
  119        1.872315   0.000000
  120        2.198622   0.000000
 
  0.2500000E+00  0.5551115E-16  0.0000000E+00  0.3125000E-01
    1      -17.692411   1.000000
    2      -16.946683   1.000000
    3      -16.725008   1.000000
    4      -16.648319   1.000000
    5      -16.565094   1.000000
    6      -16.354601   1.000000
    7      -16.286806   1.000000
    8      -16.187250   1.000000
    9      -16.151096   1.000000
   10      -16.071642   1.000000
   11      -15.989246   1.000000
   12      -15.892489   1.000000
   13      -15.802727   1.000000
   14      -15.691773   1.000000
   15      -15.647273   1.000000
   16      -15.549905   1.000000
   17      -15.513583   1.000000
   18      -15.394933   1.000000
   19       -9.452130   1.000000
   20       -9.155482   1.000000
   21       -9.109798   1.000000
   22       -8.986265   1.000000
   23       -8.883153   1.000000
   24       -8.820483   1.000000
   25       -8.581622   1.000000
   26       -8.503982   1.000000
   27       -8.449749   1.000000
   28       -8.376066   1.000000
   29       -8.277782   1.000000
   30       -8.223594   1.000000
   31       -8.136293   1.000000
   32       -8.073563   1.000000
   33       -7.909640   1.000000
   34       -7.844721   1.000000
   35       -7.774377   1.000000
   36       -7.662328   1.000000
   37       -7.602507   1.000000
   38       -7.505885   1.000000
   39       -7.438036   1.000000
   40       -7.401217   1.000000
   41       -7.267365   1.000000
   42       -7.156395   1.000000
   43       -7.124196   1.000000
   44       -7.002302   1.000000
   45       -6.952682   1.000000
   46       -6.853927   1.000000
   47       -6.760787   1.000000
   48       -6.616424   1.000000
   49       -6.585541   1.000000
   50       -6.491604   1.000000
   51       -6.456056   1.000000
   52       -6.387273   1.000000
   53       -6.294648   1.000000
   54       -6.243162   1.000000
   55       -6.170673   1.000000
   56       -6.128125   1.000000
   57       -5.982511   1.000000
   58       -5.857997   1.000000
   59       -5.728134   1.000000
   60       -5.663829   1.000000
   61       -5.593767   1.000000
   62       -5.531636   1.000000
   63       -5.397186   1.000000
   64       -5.329753   1.000000
   65       -5.261509   1.000000
   66       -5.076431   1.000000
   67       -4.956117   1.000000
   68       -4.928880   1.000000
   69       -4.783852   1.000000
   70       -4.697523   1.000000
   71       -4.544723   1.000000
   72       -4.447952   1.000000
   73       -4.305110   1.000000
   74       -4.244618   1.000000
   75       -4.032146   1.000000
   76       -3.930444   1.000000
   77       -3.863221   0.999998
   78       -3.736658   0.999900
   79       -3.486636   0.974527
   80       -3.185515   0.429634
   81       -3.041829   0.116373
   82       -2.825790   0.003255
   83       -2.743151   0.000474
   84       -2.618879   0.000014
   85       -2.529972   0.000001
   86       -2.399400   0.000000
   87       -2.276349   0.000000
   88       -2.142215   0.000000
   89       -1.999431   0.000000
   90       -1.924130   0.000000
   91       -1.817784   0.000000
   92       -1.713068   0.000000
   93       -1.589402   0.000000
   94       -1.355867   0.000000
   95       -1.322903   0.000000
   96       -1.111582   0.000000
   97       -0.957977   0.000000
   98       -0.892388   0.000000
   99       -0.859005   0.000000
  100       -0.799364   0.000000
  101       -0.705334   0.000000
  102       -0.656269   0.000000
  103       -0.564879   0.000000
  104       -0.487513   0.000000
  105       -0.334154   0.000000
  106       -0.275631   0.000000
  107       -0.136242   0.000000
  108       -0.079929   0.000000
  109        0.147865   0.000000
  110        0.280078   0.000000
  111        0.422939   0.000000
  112        0.518719   0.000000
  113        0.776443   0.000000
  114        0.909249   0.000000
  115        1.090052   0.000000
  116        1.225432   0.000000
  117        1.365405   0.000000
  118        1.815721   0.000000
  119        1.984970   0.000000
  120        2.303569   0.000000
 
  0.3750000E+00  0.0000000E+00  0.0000000E+00  0.3125000E-01
    1      -17.571005   1.000000
    2      -17.173752   1.000000
    3      -16.750472   1.000000
    4      -16.685306   1.000000
    5      -16.561562   1.000000
    6      -16.365604   1.000000
    7      -16.287063   1.000000
    8      -16.148544   1.000000
    9      -16.102742   1.000000
   10      -16.023695   1.000000
   11      -15.932806   1.000000
   12      -15.840411   1.000000
   13      -15.768047   1.000000
   14      -15.734611   1.000000
   15      -15.637403   1.000000
   16      -15.589625   1.000000
   17      -15.499040   1.000000
   18      -15.407876   1.000000
   19       -9.683210   1.000000
   20       -9.263636   1.000000
   21       -9.171703   1.000000
   22       -8.955555   1.000000
   23       -8.932197   1.000000
   24       -8.867091   1.000000
   25       -8.547344   1.000000
   26       -8.469374   1.000000
   27       -8.387001   1.000000
   28       -8.349364   1.000000
   29       -8.298818   1.000000
   30       -8.213476   1.000000
   31       -8.145459   1.000000
   32       -8.015948   1.000000
   33       -7.918868   1.000000
   34       -7.885251   1.000000
   35       -7.701166   1.000000
   36       -7.637275   1.000000
   37       -7.555873   1.000000
   38       -7.461510   1.000000
   39       -7.350978   1.000000
   40       -7.280860   1.000000
   41       -7.214943   1.000000
   42       -7.120415   1.000000
   43       -7.047746   1.000000
   44       -6.950450   1.000000
   45       -6.867747   1.000000
   46       -6.827926   1.000000
   47       -6.683627   1.000000
   48       -6.637883   1.000000
   49       -6.608100   1.000000
   50       -6.507862   1.000000
   51       -6.406323   1.000000
   52       -6.320173   1.000000
   53       -6.282350   1.000000
   54       -6.227754   1.000000
   55       -6.093826   1.000000
   56       -6.051871   1.000000
   57       -6.014715   1.000000
   58       -5.939623   1.000000
   59       -5.863263   1.000000
   60       -5.791474   1.000000
   61       -5.735670   1.000000
   62       -5.659766   1.000000
   63       -5.542197   1.000000
   64       -5.432051   1.000000
   65       -5.237934   1.000000
   66       -5.053778   1.000000
   67       -4.924619   1.000000
   68       -4.888614   1.000000
   69       -4.779162   1.000000
   70       -4.728047   1.000000
   71       -4.622941   1.000000
   72       -4.503163   1.000000
   73       -4.308341   1.000000
   74       -4.250612   1.000000
   75       -4.140713   1.000000
   76       -3.894728   0.999999
   77       -3.782535   0.999974
   78       -3.529192   0.987866
   79       -3.494774   0.977757
   80       -3.126575   0.276232
   81       -2.977938   0.049975
   82       -2.836123   0.004050
   83       -2.770301   0.000925
   84       -2.595813   0.000007
   85       -2.508551   0.000000
   86       -2.433781   0.000000
   87       -2.274269   0.000000
   88       -2.074319   0.000000
   89       -1.983173   0.000000
   90       -1.879198   0.000000
   91       -1.824329   0.000000
   92       -1.691654   0.000000
   93       -1.589214   0.000000
   94       -1.350543   0.000000
   95       -1.312778   0.000000
   96       -1.123647   0.000000
   97       -1.035271   0.000000
   98       -0.974587   0.000000
   99       -0.899995   0.000000
  100       -0.836793   0.000000
  101       -0.776148   0.000000
  102       -0.703987   0.000000
  103       -0.648114   0.000000
  104       -0.580861   0.000000
  105       -0.464614   0.000000
  106       -0.332618   0.000000
  107       -0.215885   0.000000
  108       -0.164726   0.000000
  109        0.106550   0.000000
  110        0.299719   0.000000
  111        0.449317   0.000000
  112        0.565076   0.000000
  113        0.902909   0.000000
  114        0.929651   0.000000
  115        1.043247   0.000000
  116        1.314356   0.000000
  117        1.457575   0.000000
  118        2.000323   0.000000
  119        2.161057   0.000000
  120        2.475293   0.000000
 
  0.5000000E+00  0.1110223E-15  0.0000000E+00  0.1562500E-01
    1      -17.453163   1.000000
    2      -17.328276   1.000000
    3      -16.760598   1.000000
    4      -16.699107   1.000000
    5      -16.555570   1.000000
    6      -16.378343   1.000000
    7      -16.284991   1.000000
    8      -16.145146   1.000000
    9      -16.072543   1.000000
   10      -16.000652   1.000000
   11      -15.894728   1.000000
   12      -15.832179   1.000000
   13      -15.771912   1.000000
   14      -15.722636   1.000000
   15      -15.676448   1.000000
   16      -15.594318   1.000000
   17      -15.487110   1.000000
   18      -15.408676   1.000000
   19       -9.765435   1.000000
   20       -9.305296   1.000000
   21       -9.203133   1.000000
   22       -8.978445   1.000000
   23       -8.953686   1.000000
   24       -8.774425   1.000000
   25       -8.554566   1.000000
   26       -8.499224   1.000000
   27       -8.402646   1.000000
   28       -8.325572   1.000000
   29       -8.283045   1.000000
   30       -8.212195   1.000000
   31       -8.122866   1.000000
   32       -7.993370   1.000000
   33       -7.923197   1.000000
   34       -7.899758   1.000000
   35       -7.764533   1.000000
   36       -7.623007   1.000000
   37       -7.586066   1.000000
   38       -7.409981   1.000000
   39       -7.376351   1.000000
   40       -7.210536   1.000000
   41       -7.126520   1.000000
   42       -7.090492   1.000000
   43       -6.945497   1.000000
   44       -6.911708   1.000000
   45       -6.885102   1.000000
   46       -6.761796   1.000000
   47       -6.738567   1.000000
   48       -6.630418   1.000000
   49       -6.562066   1.000000
   50       -6.425854   1.000000
   51       -6.395453   1.000000
   52       -6.338644   1.000000
   53       -6.327109   1.000000
   54       -6.187870   1.000000
   55       -6.162168   1.000000
   56       -6.050922   1.000000
   57       -6.015423   1.000000
   58       -5.927496   1.000000
   59       -5.904381   1.000000
   60       -5.846803   1.000000
   61       -5.768145   1.000000
   62       -5.623122   1.000000
   63       -5.528299   1.000000
   64       -5.489703   1.000000
   65       -5.357593   1.000000
   66       -5.151776   1.000000
   67       -4.919843   1.000000
   68       -4.881095   1.000000
   69       -4.821002   1.000000
   70       -4.721933   1.000000
   71       -4.578860   1.000000
   72       -4.501874   1.000000
   73       -4.366747   1.000000
   74       -4.243314   1.000000
   75       -4.134929   1.000000
   76       -3.870284   0.999998
   77       -3.726969   0.999870
   78       -3.531204   0.988308
   79       -3.418822   0.929547
   80       -3.125160   0.272895
   81       -2.957483   0.036748
   82       -2.844325   0.004800
   83       -2.774409   0.001020
   84       -2.580985   0.000004
   85       -2.496352   0.000000
   86       -2.450104   0.000000
   87       -2.275885   0.000000
   88       -2.057334   0.000000
   89       -1.959169   0.000000
   90       -1.891229   0.000000
   91       -1.792977   0.000000
   92       -1.690226   0.000000
   93       -1.582688   0.000000
   94       -1.345665   0.000000
   95       -1.322416   0.000000
   96       -1.152310   0.000000
   97       -1.082165   0.000000
   98       -1.007720   0.000000
   99       -0.925633   0.000000
  100       -0.837261   0.000000
  101       -0.787068   0.000000
  102       -0.713961   0.000000
  103       -0.678951   0.000000
  104       -0.595641   0.000000
  105       -0.533122   0.000000
  106       -0.348118   0.000000
  107       -0.239895   0.000000
  108       -0.202194   0.000000
  109        0.090356   0.000000
  110        0.303800   0.000000
  111        0.436436   0.000000
  112        0.583759   0.000000
  113        0.926146   0.000000
  114        0.968575   0.000000
  115        1.022108   0.000000
  116        1.343270   0.000000
  117        1.507153   0.000000
  118        2.212988   0.000000
  119        2.261847   0.000000
  120        2.371004   0.000000
 
  0.0000000E+00  0.1250000E+00  0.0000000E+00  0.3125000E-01
    1      -17.768729   1.000000
    2      -16.765949   1.000000
    3      -16.652568   1.000000
    4      -16.606951   1.000000
    5      -16.507706   1.000000
    6      -16.382923   1.000000
    7      -16.315798   1.000000
    8      -16.269485   1.000000
    9      -16.169653   1.000000
   10      -16.148831   1.000000
   11      -16.022974   1.000000
   12      -15.949657   1.000000
   13      -15.815680   1.000000
   14      -15.731223   1.000000
   15      -15.636546   1.000000
   16      -15.539393   1.000000
   17      -15.475745   1.000000
   18      -15.382112   1.000000
   19       -9.217319   1.000000
   20       -9.078486   1.000000
   21       -8.956930   1.000000
   22       -8.871813   1.000000
   23       -8.815916   1.000000
   24       -8.698909   1.000000
   25       -8.665651   1.000000
   26       -8.532143   1.000000
   27       -8.507244   1.000000
   28       -8.412062   1.000000
   29       -8.312244   1.000000
   30       -8.253849   1.000000
   31       -8.192915   1.000000
   32       -8.151330   1.000000
   33       -8.028455   1.000000
   34       -7.975769   1.000000
   35       -7.824210   1.000000
   36       -7.768571   1.000000
   37       -7.676104   1.000000
   38       -7.591092   1.000000
   39       -7.513883   1.000000
   40       -7.404942   1.000000
   41       -7.296707   1.000000
   42       -7.208969   1.000000
   43       -7.132325   1.000000
   44       -7.036313   1.000000
   45       -6.886284   1.000000
   46       -6.816050   1.000000
   47       -6.739605   1.000000
   48       -6.622344   1.000000
   49       -6.570869   1.000000
   50       -6.520866   1.000000
   51       -6.444146   1.000000
   52       -6.374132   1.000000
   53       -6.328271   1.000000
   54       -6.294741   1.000000
   55       -6.197182   1.000000
   56       -6.115348   1.000000
   57       -5.981827   1.000000
   58       -5.902010   1.000000
   59       -5.728586   1.000000
   60       -5.578284   1.000000
   61       -5.510968   1.000000
   62       -5.436969   1.000000
   63       -5.335421   1.000000
   64       -5.239611   1.000000
   65       -5.159350   1.000000
   66       -5.017496   1.000000
   67       -4.941642   1.000000
   68       -4.846294   1.000000
   69       -4.772790   1.000000
   70       -4.704333   1.000000
   71       -4.595950   1.000000
   72       -4.540945   1.000000
   73       -4.355046   1.000000
   74       -4.188094   1.000000
   75       -4.058234   1.000000
   76       -3.995521   1.000000
   77       -3.776029   0.999968
   78       -3.697404   0.999712
   79       -3.520969   0.985908
   80       -3.268375   0.658585
   81       -3.156906   0.352120
   82       -2.864108   0.007143
   83       -2.668566   0.000063
   84       -2.624428   0.000017
   85       -2.543448   0.000001
   86       -2.438659   0.000000
   87       -2.238666   0.000000
   88       -2.202943   0.000000
   89       -2.065486   0.000000
   90       -1.925371   0.000000
   91       -1.775909   0.000000
   92       -1.721369   0.000000
   93       -1.583889   0.000000
   94       -1.411630   0.000000
   95       -1.324037   0.000000
   96       -1.100241   0.000000
   97       -1.009943   0.000000
   98       -0.929601   0.000000
   99       -0.742617   0.000000
  100       -0.702403   0.000000
  101       -0.588903   0.000000
  102       -0.533052   0.000000
  103       -0.399142   0.000000
  104       -0.366901   0.000000
  105       -0.276618   0.000000
  106       -0.256457   0.000000
  107       -0.043776   0.000000
  108        0.099633   0.000000
  109        0.210839   0.000000
  110        0.250498   0.000000
  111        0.313948   0.000000
  112        0.444885   0.000000
  113        0.652496   0.000000
  114        0.789856   0.000000
  115        1.152556   0.000000
  116        1.220435   0.000000
  117        1.254443   0.000000
  118        1.690392   0.000000
  119        1.873059   0.000000
  120        2.198130   0.000000
 
  0.1250000E+00  0.1250000E+00  0.0000000E+00  0.3125000E-01
    1      -17.718096   1.000000
    2      -16.854960   1.000000
    3      -16.799616   1.000000
    4      -16.627282   1.000000
    5      -16.467406   1.000000
    6      -16.379905   1.000000
    7      -16.268742   1.000000
    8      -16.238063   1.000000
    9      -16.169117   1.000000
   10      -16.100275   1.000000
   11      -16.001068   1.000000
   12      -15.906853   1.000000
   13      -15.791274   1.000000
   14      -15.697328   1.000000
   15      -15.661299   1.000000
   16      -15.552247   1.000000
   17      -15.504759   1.000000
   18      -15.382476   1.000000
   19       -9.338810   1.000000
   20       -9.232222   1.000000
   21       -9.061311   1.000000
   22       -9.011482   1.000000
   23       -8.801883   1.000000
   24       -8.719648   1.000000
   25       -8.626775   1.000000
   26       -8.516470   1.000000
   27       -8.465473   1.000000
   28       -8.380475   1.000000
   29       -8.300979   1.000000
   30       -8.219704   1.000000
   31       -8.136511   1.000000
   32       -8.043906   1.000000
   33       -7.979138   1.000000
   34       -7.885526   1.000000
   35       -7.782189   1.000000
   36       -7.717151   1.000000
   37       -7.640645   1.000000
   38       -7.524720   1.000000
   39       -7.461323   1.000000
   40       -7.376465   1.000000
   41       -7.322301   1.000000
   42       -7.139419   1.000000
   43       -7.096142   1.000000
   44       -7.030714   1.000000
   45       -6.975984   1.000000
   46       -6.847237   1.000000
   47       -6.742981   1.000000
   48       -6.629229   1.000000
   49       -6.548833   1.000000
   50       -6.486707   1.000000
   51       -6.442714   1.000000
   52       -6.403076   1.000000
   53       -6.298953   1.000000
   54       -6.249580   1.000000
   55       -6.216896   1.000000
   56       -6.159739   1.000000
   57       -5.973345   1.000000
   58       -5.882611   1.000000
   59       -5.744198   1.000000
   60       -5.646010   1.000000
   61       -5.507470   1.000000
   62       -5.442572   1.000000
   63       -5.385570   1.000000
   64       -5.311422   1.000000
   65       -5.191636   1.000000
   66       -5.100421   1.000000
   67       -5.049554   1.000000
   68       -4.920193   1.000000
   69       -4.814383   1.000000
   70       -4.609012   1.000000
   71       -4.549879   1.000000
   72       -4.452850   1.000000
   73       -4.339592   1.000000
   74       -4.218132   1.000000
   75       -3.979196   1.000000
   76       -3.957840   1.000000
   77       -3.876095   0.999999
   78       -3.760662   0.999950
   79       -3.520369   0.985755
   80       -3.171479   0.391061
   81       -3.057242   0.139109
   82       -2.851516   0.005558
   83       -2.721065   0.000269
   84       -2.622814   0.000016
   85       -2.539150   0.000001
   86       -2.425667   0.000000
   87       -2.244814   0.000000
   88       -2.158974   0.000000
   89       -2.020209   0.000000
   90       -1.928828   0.000000
   91       -1.781607   0.000000
   92       -1.708580   0.000000
   93       -1.581088   0.000000
   94       -1.392436   0.000000
   95       -1.324558   0.000000
   96       -1.117783   0.000000
   97       -0.952057   0.000000
   98       -0.907321   0.000000
   99       -0.815192   0.000000
  100       -0.732421   0.000000
  101       -0.696199   0.000000
  102       -0.628330   0.000000
  103       -0.554187   0.000000
  104       -0.454250   0.000000
  105       -0.384523   0.000000
  106       -0.287480   0.000000
  107       -0.094035   0.000000
  108       -0.006779   0.000000
  109        0.187668   0.000000
  110        0.289659   0.000000
  111        0.429091   0.000000
  112        0.476708   0.000000
  113        0.793584   0.000000
  114        0.931921   0.000000
  115        1.114429   0.000000
  116        1.151106   0.000000
  117        1.267511   0.000000
  118        1.773462   0.000000
  119        1.949198   0.000000
  120        2.267852   0.000000
 
  0.2500000E+00  0.1250000E+00  0.0000000E+00  0.3125000E-01
    1      -17.619086   1.000000
    2      -17.049472   1.000000
    3      -16.900331   1.000000
    4      -16.611072   1.000000
    5      -16.463725   1.000000
    6      -16.361473   1.000000
    7      -16.286180   1.000000
    8      -16.195503   1.000000
    9      -16.118451   1.000000
   10      -16.053460   1.000000
   11      -15.953708   1.000000
   12      -15.872130   1.000000
   13      -15.760168   1.000000
   14      -15.711695   1.000000
   15      -15.644500   1.000000
   16      -15.596943   1.000000
   17      -15.501900   1.000000
   18      -15.389762   1.000000
   19       -9.579047   1.000000
   20       -9.358936   1.000000
   21       -9.195830   1.000000
   22       -8.965602   1.000000
   23       -8.850175   1.000000
   24       -8.718194   1.000000
   25       -8.545269   1.000000
   26       -8.452813   1.000000
   27       -8.415731   1.000000
   28       -8.362740   1.000000
   29       -8.283766   1.000000
   30       -8.209307   1.000000
   31       -8.174307   1.000000
   32       -8.091854   1.000000
   33       -7.939189   1.000000
   34       -7.879814   1.000000
   35       -7.785870   1.000000
   36       -7.603806   1.000000
   37       -7.539826   1.000000
   38       -7.446032   1.000000
   39       -7.408914   1.000000
   40       -7.300325   1.000000
   41       -7.226982   1.000000
   42       -7.114280   1.000000
   43       -7.064444   1.000000
   44       -6.993509   1.000000
   45       -6.893156   1.000000
   46       -6.801458   1.000000
   47       -6.746264   1.000000