       N       E                     dE             d eps       ncg     rms          rms(c)
DAV:   1     0.112368257828E+04    0.11237E+04   -0.35872E+04  8160   0.577E+02
DAV:   2    -0.338912039451E+01   -0.11271E+04   -0.10847E+04 11320   0.173E+02
DAV:   3    -0.199959625411E+03   -0.19657E+03   -0.18880E+03 10880   0.820E+01
DAV:   4    -0.209013957995E+03   -0.90543E+01   -0.88111E+01 12280   0.261E+01
DAV:   5    -0.209307776629E+03   -0.29382E+00   -0.29299E+00 11240   0.344E+00    0.275E+01
DAV:   6    -0.236790664784E+03   -0.27483E+02   -0.11019E+02 12640   0.603E+01    0.595E+01
DAV:   7    -0.196507013664E+03    0.40284E+02   -0.17785E+02 13240   0.152E+02    0.200E+01
DAV:   8    -0.189483788302E+03    0.70232E+01   -0.17591E+01 12040   0.128E+01    0.127E+01
DAV:   9    -0.188168672778E+03    0.13151E+01   -0.31229E+00 12520   0.630E+00    0.915E+00
DAV:  10    -0.187033709330E+03    0.11350E+01   -0.21286E+00 13520   0.740E+00    0.303E+00
DAV:  11    -0.186942485906E+03    0.91223E-01   -0.59132E-01 12320   0.231E+00    0.231E+00
DAV:  12    -0.187047287064E+03   -0.10480E+00   -0.66087E-01 12720   0.409E+00    0.448E+00
DAV:  13    -0.186881348319E+03    0.16594E+00   -0.44334E-01 12680   0.389E+00    0.208E+00
DAV:  14    -0.186845743159E+03    0.35605E-01   -0.10642E-01 13320   0.178E+00    0.124E+00
DAV:  15    -0.186840009896E+03    0.57333E-02   -0.61546E-02 12080   0.147E+00    0.108E+00
DAV:  16    -0.186829742156E+03    0.10268E-01   -0.18821E-02 12640   0.682E-01    0.464E-01
DAV:  17    -0.186827628036E+03    0.21141E-02   -0.90042E-03 12720   0.464E-01    0.243E-01
DAV:  18    -0.186827283045E+03    0.34499E-03   -0.20986E-03 11800   0.139E-01    0.175E-01
DAV:  19    -0.186826929524E+03    0.35352E-03   -0.94957E-04 10000   0.127E-01    0.515E-02
DAV:  20    -0.186827519856E+03   -0.59033E-03   -0.61413E-04  9360   0.576E-02    0.548E-02
DAV:  21    -0.186828178772E+03   -0.65892E-03   -0.40243E-04  9000   0.570E-02    0.436E-02
DAV:  22    -0.186829361664E+03   -0.11829E-02   -0.22915E-04  7560   0.595E-02    0.410E-02
DAV:  23    -0.186830624533E+03   -0.12629E-02   -0.15311E-04  7480   0.465E-02    0.115E-02
DAV:  24    -0.186831222360E+03   -0.59783E-03   -0.31791E-05  6640   0.141E-02    0.904E-03
DAV:  25    -0.186831607739E+03   -0.38538E-03   -0.17697E-05  5640   0.135E-02    0.559E-03
DAV:  26    -0.186831825187E+03   -0.21745E-03   -0.85362E-06  6840   0.747E-03    0.208E-03
DAV:  27    -0.186831932600E+03   -0.10741E-03   -0.39605E-06  6880   0.442E-03    0.127E-03
DAV:  28    -0.186831977854E+03   -0.45253E-04   -0.21147E-06  7280   0.348E-03
   1 F= -.18683198E+03 E0= -.18665923E+03  d E =-.186832E+03
       N       E                     dE             d eps       ncg     rms          rms(c)
DAV:   1    -0.187464366873E+03   -0.63243E+00   -0.27303E+02  8160   0.351E+01    0.463E+00
DAV:   2    -0.189361493871E+03   -0.18971E+01   -0.20256E+01 12200   0.153E+01    0.867E+00
DAV:   3    -0.189343557003E+03    0.17937E-01   -0.40204E+00 12480   0.120E+01    0.670E+00
DAV:   4    -0.188739530697E+03    0.60403E+00   -0.64047E-01 12680   0.469E+00    0.185E+00
DAV:   5    -0.188745006754E+03   -0.54761E-02   -0.29611E-01 11080   0.148E+00    0.228E+00
DAV:   6    -0.188671488109E+03    0.73519E-01   -0.28723E-01 11240   0.162E+00    0.138E+00
DAV:   7    -0.188689037649E+03   -0.17550E-01   -0.15414E-01 12160   0.225E+00    0.233E+00
DAV:   8    -0.188647415557E+03    0.41622E-01   -0.78510E-02 13080   0.171E+00    0.537E-01
DAV:   9    -0.188644372956E+03    0.30426E-02   -0.94187E-03 11160   0.465E-01    0.400E-01
DAV:  10    -0.188644139383E+03    0.23357E-03   -0.56239E-03 13560   0.423E-01    0.350E-01
DAV:  11    -0.188643157471E+03    0.98191E-03   -0.32800E-03 12920   0.275E-01    0.130E-01
DAV:  12    -0.188643202158E+03   -0.44686E-04   -0.10029E-03 12240   0.938E-02    0.107E-01
DAV:  13    -0.188643111760E+03    0.90398E-04   -0.32131E-04  7600   0.620E-02
   2 F= -.18864311E+03 E0= -.18850076E+03  d E =-.181113E+01
       N       E                     dE             d eps       ncg     rms          rms(c)
DAV:   1    -0.190562949759E+03   -0.19197E+01   -0.31196E+01  9240   0.142E+01    0.445E+00
DAV:   2    -0.190550404377E+03    0.12545E-01   -0.28449E+00 11400   0.969E+00    0.744E+00
DAV:   3    -0.190037300140E+03    0.51310E+00   -0.13545E+00 12360   0.865E+00    0.413E+00
DAV:   4    -0.189831872881E+03    0.20543E+00   -0.70735E-01 12720   0.407E+00    0.246E+00
DAV:   5    -0.189744323020E+03    0.87550E-01   -0.29101E-01 11640   0.187E+00    0.819E-01
DAV:   6    -0.189729326911E+03    0.14996E-01   -0.38993E-02 10600   0.656E-01    0.215E-01
DAV:   7    -0.189730587054E+03   -0.12601E-02   -0.70318E-03 12240   0.358E-01    0.349E-01
DAV:   8    -0.189729865979E+03    0.72108E-03   -0.27369E-03 11520   0.334E-01    0.197E-01
DAV:   9    -0.189729841062E+03    0.24917E-04   -0.11184E-03 10080   0.171E-01    0.130E-01
DAV:  10    -0.189729789233E+03    0.51829E-04   -0.52969E-04  9680   0.950E-02
   3 F= -.18972979E+03 E0= -.18960925E+03  d E =-.108668E+01
       N       E                     dE             d eps       ncg     rms          rms(c)
DAV:   1    -0.191291749001E+03   -0.15619E+01   -0.74963E+01  8160   0.198E+01    0.463E+00
DAV:   2    -0.191190722987E+03    0.10103E+00   -0.55195E+00 13120   0.845E+00    0.531E+00
DAV:   3    -0.191197119128E+03   -0.63961E-02   -0.16493E+00 12160   0.926E+00    0.628E+00
DAV:   4    -0.190861114794E+03    0.33600E+00   -0.13400E+00 12880   0.722E+00    0.317E+00
DAV:   5    -0.190846967268E+03    0.14148E-01   -0.55057E-01 11920   0.479E+00    0.333E+00
DAV:   6    -0.190712002016E+03    0.13497E+00   -0.22177E-01 12240   0.331E+00    0.951E-01
DAV:   7    -0.190703230491E+03    0.87715E-02   -0.42646E-02 12360   0.985E-01    0.467E-01
DAV:   8    -0.190702606234E+03    0.62426E-03   -0.11489E-02 11360   0.670E-01    0.545E-01
DAV:   9    -0.190699946452E+03    0.26598E-02   -0.43722E-03 11440   0.490E-01    0.149E-01
DAV:  10    -0.190700205796E+03   -0.25934E-03   -0.11117E-03 10400   0.134E-01    0.114E-01
DAV:  11    -0.190700083604E+03    0.12219E-03   -0.80040E-04 10520   0.978E-02    0.515E-02
DAV:  12    -0.190700067657E+03    0.15947E-04   -0.15531E-04  7920   0.457E-02
   4 F= -.19070007E+03 E0= -.19059564E+03  d E =-.970278E+00
       N       E                     dE             d eps       ncg     rms          rms(c)
DAV:   1    -0.192020996356E+03   -0.13209E+01   -0.15610E+02  8160   0.279E+01    0.565E+00
DAV:   2    -0.191883079936E+03    0.13792E+00   -0.94985E+00 12240   0.932E+00    0.502E+00
DAV:   3    -0.192208362726E+03   -0.32528E+00   -0.24451E+00 11440   0.109E+01    0.936E+00
DAV:   4    -0.191577376680E+03    0.63099E+00   -0.28227E+00 12080   0.113E+01    0.399E+00
DAV:   5    -0.191510317803E+03    0.67059E-01   -0.80039E-01 12240   0.581E+00    0.367E+00
DAV:   6    -0.191332925533E+03    0.17739E+00   -0.29078E-01 12240   0.394E+00    0.967E-01
DAV:   7    -0.191326223660E+03    0.67019E-02   -0.56153E-02 12240   0.118E+00    0.588E-01
DAV:   8    -0.191324467744E+03    0.17559E-02   -0.19841E-02 11920   0.864E-01    0.644E-01
DAV:   9    -0.191320589267E+03    0.38785E-02   -0.68381E-03 11840   0.592E-01    0.178E-01
DAV:  10    -0.191321024651E+03   -0.43538E-03   -0.20564E-03 11000   0.173E-01    0.125E-01
DAV:  11    -0.191320786863E+03    0.23779E-03   -0.80363E-04 11280   0.107E-01    0.481E-02
DAV:  12    -0.191320788717E+03   -0.18540E-05   -0.11836E-04  6520   0.405E-02
   5 F= -.19132079E+03 E0= -.19122023E+03  d E =-.620721E+00
       N       E                     dE             d eps       ncg     rms          rms(c)
DAV:   1    -0.191361646805E+03   -0.40860E-01   -0.37242E+00  8160   0.406E+00    0.511E-01
DAV:   2    -0.191402724368E+03   -0.41078E-01   -0.20281E-01 12600   0.231E+00    0.181E+00
DAV:   3    -0.191373286613E+03    0.29438E-01   -0.70298E-02 12120   0.181E+00    0.450E-01
DAV:   4    -0.191373190793E+03    0.95820E-04   -0.93943E-03 11040   0.665E-01    0.452E-01
DAV:   5    -0.191371120776E+03    0.20700E-02   -0.50546E-03 10280   0.514E-01    0.192E-01
DAV:   6    -0.191371002360E+03    0.11842E-03   -0.15925E-03 10280   0.218E-01    0.159E-01
DAV:   7    -0.191371361966E+03   -0.35961E-03   -0.21001E-03 10480   0.328E-01    0.248E-01
DAV:   8    -0.191370721430E+03    0.64054E-03   -0.10419E-03  9080   0.223E-01    0.331E-02
DAV:   9    -0.191370735264E+03   -0.13834E-04   -0.88161E-05  5880   0.367E-02
   6 F= -.19137074E+03 E0= -.19126842E+03  d E =-.499465E-01
       N       E                     dE             d eps       ncg     rms          rms(c)
DAV:   1    -0.191414896417E+03   -0.44175E-01   -0.47318E+00  8160   0.457E+00    0.515E-01
DAV:   2    -0.191446212835E+03   -0.31316E-01   -0.15800E-01 12920   0.181E+00    0.164E+00
DAV:   3    -0.191422994672E+03    0.23218E-01   -0.65421E-02 12200   0.173E+00    0.524E-01
DAV:   4    -0.191421550052E+03    0.14446E-02   -0.93337E-03 11080   0.593E-01    0.402E-01
DAV:   5    -0.191420267229E+03    0.12828E-02   -0.53535E-03 10840   0.524E-01    0.255E-01
DAV:   6    -0.191419872300E+03    0.39493E-03   -0.24759E-03 10120   0.306E-01    0.189E-01
DAV:   7    -0.191420123485E+03   -0.25119E-03   -0.24012E-03 11000   0.347E-01    0.240E-01
DAV:   8    -0.191419527082E+03    0.59640E-03   -0.11097E-03  9160   0.229E-01    0.437E-02
DAV:   9    -0.191419518822E+03    0.82598E-05   -0.99628E-05  5640   0.435E-02
   7 F= -.19141952E+03 E0= -.19131587E+03  d E =-.487836E-01
       N       E                     dE             d eps       ncg     rms          rms(c)
DAV:   1    -0.191432104326E+03   -0.12577E-01   -0.28349E-01  8160   0.114E+00    0.157E-01
DAV:   2    -0.191434153261E+03   -0.20489E-02   -0.11752E-02 12120   0.540E-01    0.438E-01
DAV:   3    -0.191432379831E+03    0.17734E-02   -0.43215E-03 11520   0.463E-01    0.137E-01
DAV:   4    -0.191432446302E+03   -0.66470E-04   -0.96032E-04  8840   0.219E-01
   8 F= -.19143245E+03 E0= -.19132855E+03  d E =-.129275E-01
       N       E                     dE             d eps       ncg     rms          rms(c)
DAV:   1    -0.191404150920E+03    0.28229E-01   -0.16919E+00  8160   0.275E+00    0.314E-01
DAV:   2    -0.191411893030E+03   -0.77421E-02   -0.60704E-02 12240   0.103E+00    0.691E-01
DAV:   3    -0.191406915850E+03    0.49772E-02   -0.13707E-02 12200   0.830E-01    0.258E-01
DAV:   4    -0.191407114159E+03   -0.19831E-03   -0.40035E-03 11080   0.398E-01    0.322E-01
DAV:   5    -0.191406238640E+03    0.87552E-03   -0.29390E-03  9880   0.366E-01    0.158E-01
DAV:   6    -0.191406049046E+03    0.18959E-03   -0.10094E-03  9800   0.170E-01    0.804E-02
DAV:   7    -0.191406071107E+03   -0.22061E-04   -0.46788E-04  9080   0.133E-01
   9 F= -.19140607E+03 E0= -.19130263E+03  d E =0.263752E-01
       N       E                     dE             d eps       ncg     rms          rms(c)
DAV:   1    -0.191430183891E+03   -0.24135E-01   -0.17269E+00  8160   0.277E+00    0.308E-01
DAV:   2    -0.191440068549E+03   -0.98847E-02   -0.56141E-02 12400   0.100E+00    0.906E-01
DAV:   3    -0.191433133139E+03    0.69354E-02   -0.21814E-02 12240   0.992E-01    0.346E-01
DAV:   4    -0.191432182186E+03    0.95095E-03   -0.31690E-03 11080   0.329E-01    0.206E-01
DAV:   5    -0.191431959795E+03    0.22239E-03   -0.17971E-03 10280   0.303E-01    0.170E-01
DAV:   6    -0.191431778725E+03    0.18107E-03   -0.11107E-03 10880   0.206E-01    0.120E-01
DAV:   7    -0.191431855490E+03   -0.76764E-04   -0.91984E-04  9400   0.214E-01
  10 F= -.19143186E+03 E0= -.19132799E+03  d E =-.257844E-01
       N       E                     dE             d eps       ncg     rms          rms(c)
DAV:   1    -0.191451921155E+03   -0.20142E-01   -0.73560E-01  8160   0.186E+00    0.261E-01
DAV:   2    -0.191453832071E+03   -0.19109E-02   -0.24878E-02 13520   0.646E-01    0.442E-01
DAV:   3    -0.191452515300E+03    0.13168E-02   -0.78090E-03 12080   0.634E-01    0.301E-01
DAV:   4    -0.191452010458E+03    0.50484E-03   -0.32071E-03 11040   0.384E-01    0.236E-01
DAV:   5    -0.191451695967E+03    0.31449E-03   -0.21734E-03  9720   0.333E-01    0.189E-01
DAV:   6    -0.191451326164E+03    0.36980E-03   -0.92810E-04  9680   0.194E-01    0.611E-02
DAV:   7    -0.191451321034E+03    0.51299E-05   -0.27689E-04  6520   0.954E-02
  11 F= -.19145132E+03 E0= -.19134719E+03  d E =-.194655E-01
       N       E                     dE             d eps       ncg     rms          rms(c)
DAV:   1    -0.191495120597E+03   -0.43794E-01   -0.34049E+00  8160   0.391E+00    0.476E-01
DAV:   2    -0.191516795382E+03   -0.21675E-01   -0.12198E-01 13000   0.170E+00    0.139E+00
DAV:   3    -0.191499855300E+03    0.16940E-01   -0.43303E-02 12280   0.146E+00    0.428E-01
DAV:   4    -0.191499998053E+03   -0.14275E-03   -0.86059E-03 11480   0.636E-01    0.466E-01
DAV:   5    -0.191497995662E+03    0.20024E-02   -0.63196E-03 10760   0.573E-01    0.251E-01
DAV:   6    -0.191497783437E+03    0.21222E-03   -0.29561E-03 10800   0.318E-01    0.216E-01
DAV:   7    -0.191497742627E+03    0.40811E-04   -0.25343E-03 10120   0.343E-01    0.208E-01
DAV:   8    -0.191497246299E+03    0.49633E-03   -0.83313E-04  8280   0.184E-01    0.317E-02
DAV:   9    -0.191497246186E+03    0.11255E-06   -0.83104E-05  6240   0.350E-02
  12 F= -.19149725E+03 E0= -.19139310E+03  d E =-.459252E-01
       N       E                     dE             d eps       ncg     rms          rms(c)
DAV:   1    -0.191510194522E+03   -0.12948E-01   -0.26687E-01  8160   0.109E+00    0.112E-01
DAV:   2    -0.191511383240E+03   -0.11887E-02   -0.73148E-03 12560   0.364E-01    0.303E-01
DAV:   3    -0.191510576839E+03    0.80640E-03   -0.22421E-03 10480   0.333E-01    0.111E-01
DAV:   4    -0.191510522454E+03    0.54385E-04   -0.32913E-04  7400   0.110E-01
  13 F= -.19151052E+03 E0= -.19140671E+03  d E =-.132763E-01
       N       E                     dE             d eps       ncg     rms          rms(c)
DAV:   1    -0.191499221541E+03    0.11355E-01   -0.36314E-01  8160   0.133E+00    0.265E-01
DAV:   2    -0.191504342653E+03   -0.51211E-02   -0.25208E-02 11800   0.938E-01    0.740E-01
DAV:   3    -0.191498620154E+03    0.57225E-02   -0.11126E-02 10600   0.767E-01    0.204E-01
DAV:   4    -0.191498878229E+03   -0.25808E-03   -0.31669E-03 10480   0.371E-01    0.282E-01
DAV:   5    -0.191498233215E+03    0.64501E-03   -0.25523E-03  9560   0.341E-01    0.153E-01
DAV:   6    -0.191498036293E+03    0.19692E-03   -0.87822E-04  9520   0.165E-01    0.963E-02
DAV:   7    -0.191497996173E+03    0.40120E-04   -0.41241E-04  8600   0.144E-01
  14 F= -.19149800E+03 E0= -.19139421E+03  d E =0.125263E-01
       N       E                     dE             d eps       ncg     rms          rms(c)
DAV:   1    -0.191563173055E+03   -0.65137E-01   -0.65752E+00  8160   0.545E+00    0.638E-01
DAV:   2    -0.191595717625E+03   -0.32545E-01   -0.21200E-01 12880   0.209E+00    0.167E+00
DAV:   3    -0.191572089436E+03    0.23628E-01   -0.69522E-02 12280   0.187E+00    0.610E-01
DAV:   4    -0.191570816808E+03    0.12726E-02   -0.15359E-02 12160   0.810E-01    0.555E-01
DAV:   5    -0.191568343319E+03    0.24735E-02   -0.10946E-02 11360   0.757E-01    0.391E-01
DAV:   6    -0.191567460024E+03    0.88330E-03   -0.59562E-03 11400   0.464E-01    0.271E-01
DAV:   7    -0.191567537522E+03   -0.77498E-04   -0.45524E-03 11400   0.455E-01    0.290E-01
DAV:   8    -0.191566602453E+03    0.93507E-03   -0.16837E-03  9560   0.267E-01    0.459E-02
DAV:   9    -0.191566582397E+03    0.20056E-04   -0.12915E-04  5800   0.452E-02
  15 F= -.19156658E+03 E0= -.19146407E+03  d E =-.685862E-01
       N       E                     dE             d eps       ncg     rms          rms(c)
DAV:   1    -0.191613653807E+03   -0.47051E-01   -0.31603E+00  8160   0.377E+00    0.425E-01
DAV:   2    -0.191631696873E+03   -0.18043E-01   -0.10459E-01 12720   0.147E+00    0.125E+00
DAV:   3    -0.191618449198E+03    0.13248E-01   -0.35700E-02 12200   0.130E+00    0.379E-01
DAV:   4    -0.191618009118E+03    0.44008E-03   -0.55955E-03 11440   0.476E-01    0.354E-01
DAV:   5    -0.191617067961E+03    0.94116E-03   -0.43361E-03 11160   0.469E-01    0.240E-01
DAV:   6    -0.191616886079E+03    0.18188E-03   -0.25756E-03 10920   0.304E-01    0.184E-01
DAV:   7    -0.191616792837E+03    0.93243E-04   -0.17983E-03 10280   0.294E-01    0.161E-01
DAV:   8    -0.191616467444E+03    0.32539E-03   -0.53670E-04  8400   0.155E-01    0.263E-02
DAV:   9    -0.191616466383E+03    0.10610E-05   -0.59156E-05  6560   0.298E-02
  16 F= -.19161647E+03 E0= -.19151551E+03  d E =-.498840E-01
       N       E                     dE             d eps       ncg     rms          rms(c)
DAV:   1    -0.191600364866E+03    0.16103E-01   -0.29987E-01  8160   0.116E+00    0.133E-01
DAV:   2    -0.191602238163E+03   -0.18733E-02   -0.10218E-02 12760   0.469E-01    0.399E-01
DAV:   3    -0.191600759600E+03    0.14786E-02   -0.34552E-03 11400   0.412E-01    0.110E-01
DAV:   4    -0.191600685440E+03    0.74160E-04   -0.37191E-04  8320   0.116E-01
  17 F= -.19160069E+03 E0= -.19149912E+03  d E =0.157809E-01
       N       E                     dE             d eps       ncg     rms          rms(c)
DAV:   1    -0.191531144642E+03    0.69615E-01   -0.62954E+00  8160   0.535E+00    0.618E-01
DAV:   2    -0.191571901409E+03   -0.40757E-01   -0.20739E-01 13400   0.210E+00    0.191E+00
DAV:   3    -0.191539949025E+03    0.31952E-01   -0.78102E-02 12120   0.195E+00    0.526E-01
DAV:   4    -0.191538011297E+03    0.19377E-02   -0.84661E-03 11520   0.525E-01    0.358E-01
DAV:   5    -0.191537496651E+03    0.51465E-03   -0.65149E-03 11800   0.575E-01    0.371E-01
DAV:   6    -0.191536661496E+03    0.83515E-03   -0.47658E-03 10840   0.443E-01    0.221E-01
DAV:   7    -0.191536891381E+03   -0.22989E-03   -0.31895E-03 12280   0.378E-01    0.278E-01
DAV:   8    -0.191536051128E+03    0.84025E-03   -0.14415E-03  9880   0.265E-01    0.390E-02
DAV:   9    -0.191536059183E+03   -0.80553E-05   -0.10052E-04  5880   0.447E-02
  18 F= -.19153606E+03 E0= -.19143308E+03  d E =0.646263E-01
       N       E                     dE             d eps       ncg     rms          rms(c)
DAV:   1    -0.191570431725E+03   -0.34381E-01   -0.23831E+00  8160   0.326E+00    0.337E-01
DAV:   2    -0.191578039737E+03   -0.76080E-02   -0.73791E-02 11760   0.977E-01    0.634E-01
DAV:   3    -0.191576033942E+03    0.20058E-02   -0.17635E-02 12320   0.920E-01    0.484E-01
DAV:   4    -0.191573748465E+03    0.22855E-02   -0.38842E-03 10880   0.408E-01    0.137E-01
DAV:   5    -0.191574002254E+03   -0.25379E-03   -0.19530E-03 10440   0.264E-01    0.239E-01
DAV:   6    -0.191573752820E+03    0.24943E-03   -0.22228E-03 10000   0.317E-01    0.169E-01
DAV:   7    -0.191573479075E+03    0.27374E-03   -0.76216E-04  8600   0.165E-01    0.532E-02
DAV:   8    -0.191573471368E+03    0.77073E-05   -0.18479E-04  7680   0.923E-02
  19 F= -.19157347E+03 E0= -.19147195E+03  d E =-.374122E-01
       N       E                     dE             d eps       ncg     rms          rms(c)
DAV:   1    -0.191598144045E+03   -0.24665E-01   -0.89903E-01  8160   0.203E+00    0.267E-01
DAV:   2    -0.191604283679E+03   -0.61396E-02   -0.34622E-02 13240   0.902E-01    0.758E-01
DAV:   3    -0.191599154141E+03    0.51295E-02   -0.12595E-02 11840   0.804E-01    0.230E-01
DAV:   4    -0.191598986780E+03    0.16736E-03   -0.21910E-03 11360   0.310E-01    0.217E-01
DAV:   5    -0.191598667306E+03    0.31947E-03   -0.17353E-03 10440   0.305E-01    0.158E-01
DAV:   6    -0.191598553359E+03    0.11395E-03   -0.10060E-03  9520   0.195E-01    0.124E-01
DAV:   7    -0.191598472721E+03    0.80638E-04   -0.65504E-04  8160   0.180E-01
  20 F= -.19159847E+03 E0= -.19149766E+03  d E =-.250014E-01
       N       E                     dE             d eps       ncg     rms          rms(c)
DAV:   1    -0.191652874901E+03   -0.54322E-01   -0.48963E+00  8160   0.470E+00    0.517E-01
DAV:   2    -0.191679022386E+03   -0.26147E-01   -0.15910E-01 12800   0.175E+00    0.145E+00
DAV:   3    -0.191660921345E+03    0.18101E-01   -0.52048E-02 12240   0.158E+00    0.473E-01
DAV:   4    -0.191659701688E+03    0.12197E-02   -0.74680E-03 11480   0.521E-01    0.376E-01
DAV:   5    -0.191658901311E+03    0.80038E-03   -0.59146E-03 12000   0.541E-01    0.322E-01
DAV:   6    -0.191658313207E+03    0.58810E-03   -0.37808E-03 11280   0.376E-01    0.182E-01
DAV:   7    -0.191658268798E+03    0.44409E-04   -0.20627E-03 11080   0.302E-01    0.184E-01
DAV:   8    -0.191657861470E+03    0.40733E-03   -0.70962E-04  9160   0.195E-01    0.354E-02
DAV:   9    -0.191657853404E+03    0.80669E-05   -0.76348E-05  5960   0.389E-02
  21 F= -.19165785E+03 E0= -.19155920E+03  d E =-.593807E-01
       N       E                     dE             d eps       ncg     rms          rms(c)
DAV:   1    -0.191635486870E+03    0.22375E-01   -0.63860E-01  8160   0.170E+00    0.185E-01
DAV:   2    -0.191638508844E+03   -0.30220E-02   -0.19396E-02 13000   0.600E-01    0.488E-01
DAV:   3    -0.191636380304E+03    0.21285E-02   -0.60659E-03 11680   0.544E-01    0.172E-01
DAV:   4    -0.191636143255E+03    0.23705E-03   -0.80552E-04  9680   0.162E-01    0.938E-02
DAV:   5    -0.191636160617E+03   -0.17362E-04   -0.60723E-04  9320   0.168E-01
  22 F= -.19163616E+03 E0= -.19153686E+03  d E =0.216928E-01
       N       E                     dE             d eps       ncg     rms          rms(c)
DAV:   1    -0.191631002043E+03    0.51412E-02   -0.60455E-01  8160   0.169E+00    0.245E-01
DAV:   2    -0.191633229114E+03   -0.22271E-02   -0.21066E-02 12720   0.610E-01    0.496E-01
DAV:   3    -0.191631600578E+03    0.16285E-02   -0.88435E-03 12000   0.639E-01    0.300E-01
DAV:   4    -0.191630783135E+03    0.81744E-03   -0.25212E-03 10720   0.305E-01    0.144E-01
DAV:   5    -0.191630808270E+03   -0.25135E-04   -0.13772E-03  9760   0.266E-01    0.175E-01
DAV:   6    -0.191630555024E+03    0.25325E-03   -0.89232E-04 10040   0.211E-01    0.889E-02
DAV:   7    -0.191630519633E+03    0.35391E-04   -0.38047E-04  8160   0.129E-01
  23 F= -.19163052E+03 E0= -.19153170E+03  d E =0.564098E-02
       N       E                     dE             d eps       ncg     rms          rms(c)
DAV:   1    -0.191687408917E+03   -0.56854E-01   -0.47315E+00  8160   0.470E+00    0.576E-01
DAV:   2    -0.191712689018E+03   -0.25280E-01   -0.16716E-01 12680   0.176E+00    0.154E+00
DAV:   3    -0.191694185146E+03    0.18504E-01   -0.62756E-02 12040   0.168E+00    0.557E-01
DAV:   4    -0.191691320185E+03    0.28650E-02   -0.96498E-03 11520   0.559E-01    0.349E-01
DAV:   5    -0.191691295242E+03    0.24943E-04   -0.78980E-03 12360   0.609E-01    0.418E-01
DAV:   6    -0.191689907548E+03    0.13877E-02   -0.59018E-03 11480   0.493E-01    0.179E-01
DAV:   7    -0.191689525780E+03    0.38177E-03   -0.14654E-03 10200   0.181E-01    0.798E-02
DAV:   8    -0.191689464602E+03    0.61178E-04   -0.31687E-04  9200   0.126E-01
  24 F= -.19168946E+03 E0= -.19159245E+03  d E =-.589450E-01
       N       E                     dE             d eps       ncg     rms          rms(c)
DAV:   1    -0.191726232095E+03   -0.36706E-01   -0.20391E+00  8160   0.304E+00    0.329E-01
DAV:   2    -0.191735086320E+03   -0.88542E-02   -0.66139E-02 12400   0.103E+00    0.793E-01
DAV:   3    -0.191730003106E+03    0.50832E-02   -0.19728E-02 12200   0.944E-01    0.335E-01
DAV:   4    -0.191729079867E+03    0.92324E-03   -0.28778E-03 11120   0.323E-01    0.190E-01
DAV:   5    -0.191729098986E+03   -0.19120E-04   -0.21790E-03 10600   0.327E-01    0.225E-01
DAV:   6    -0.191728764452E+03    0.33453E-03   -0.16874E-03 10000   0.264E-01    0.106E-01
DAV:   7    -0.191728642956E+03    0.12150E-03   -0.51418E-04  8680   0.124E-01    0.563E-02
DAV:   8    -0.191728610065E+03    0.32891E-04   -0.13408E-04  6840   0.869E-02
  25 F= -.19172861E+03 E0= -.19163327E+03  d E =-.391455E-01
       N       E                     dE             d eps       ncg     rms          rms(c)
DAV:   1    -0.191726080672E+03    0.25623E-02   -0.48663E-02  8160   0.515E-01    0.112E-01
DAV:   2    -0.191726562878E+03   -0.48221E-03   -0.35816E-03 10520   0.332E-01    0.256E-01
DAV:   3    -0.191725907064E+03    0.65581E-03   -0.15884E-03 10000   0.296E-01    0.876E-02
DAV:   4    -0.191725894325E+03    0.12739E-04   -0.49799E-04  8160   0.145E-01
  26 F= -.19172589E+03 E0= -.19163055E+03  d E =0.271574E-02
       N       E                     dE             d eps       ncg     rms          rms(c)
DAV:   1    -0.191727607308E+03   -0.17002E-02   -0.50185E-03  9400   0.207E-01    0.757E-02
DAV:   2    -0.191728864951E+03   -0.12576E-02   -0.26528E-03 11360   0.386E-01    0.333E-01
DAV:   3    -0.191727539155E+03    0.13258E-02   -0.18420E-03  9840   0.327E-01    0.420E-02
DAV:   4    -0.191727556660E+03   -0.17506E-04   -0.61138E-05  5720   0.543E-02
  27 F= -.19172756E+03 E0= -.19163239E+03  d E =-.166234E-02
       N       E                     dE             d eps       ncg     rms          rms(c)
DAV:   1    -0.191778095071E+03   -0.50556E-01   -0.35056E+00  8160   0.400E+00    0.440E-01
DAV:   2    -0.191795752066E+03   -0.17657E-01   -0.11308E-01 13320   0.146E+00    0.117E+00
DAV:   3    -0.191783468708E+03    0.12283E-01   -0.36287E-02 12320   0.132E+00    0.395E-01
DAV:   4    -0.191782988376E+03    0.48033E-03   -0.60594E-03 11120   0.517E-01    0.372E-01
DAV:   5    -0.191781748803E+03    0.12396E-02   -0.45412E-03 12640   0.502E-01    0.197E-01
DAV:   6    -0.191781775870E+03   -0.27066E-04   -0.22723E-03 11480   0.298E-01    0.194E-01
DAV:   7    -0.191781543347E+03    0.23252E-03   -0.14742E-03 10440   0.285E-01    0.135E-01
DAV:   8    -0.191781301241E+03    0.24211E-03   -0.35574E-04  8280   0.132E-01    0.203E-02
DAV:   9    -0.191781307017E+03   -0.57757E-05   -0.54154E-05  6560   0.285E-02
  28 F= -.19178131E+03 E0= -.19168905E+03  d E =-.537504E-01
       N       E                     dE             d eps       ncg     rms          rms(c)
DAV:   1    -0.191744580838E+03    0.36720E-01   -0.14491E+00  8160   0.258E+00    0.289E-01
DAV:   2    -0.191752228911E+03   -0.76481E-02   -0.46529E-02 13200   0.975E-01    0.780E-01
DAV:   3    -0.191746569249E+03    0.56597E-02   -0.14626E-02 12440   0.862E-01    0.243E-01
DAV:   4    -0.191746305041E+03    0.26421E-03   -0.22451E-03 10520   0.290E-01    0.200E-01
DAV:   5    -0.191745987269E+03    0.31777E-03   -0.14785E-03 10240   0.291E-01    0.131E-01
DAV:   6    -0.191745881199E+03    0.10607E-03   -0.71999E-04 10240   0.161E-01    0.699E-02
DAV:   7    -0.191745885752E+03   -0.45530E-05   -0.41236E-04 10160   0.133E-01
  29 F= -.19174589E+03 E0= -.19165195E+03  d E =0.354213E-01
       N       E                     dE             d eps       ncg     rms          rms(c)
DAV:   1    -0.191680209630E+03    0.65672E-01   -0.55696E+00  8160   0.508E+00    0.589E-01
DAV:   2    -0.191711031140E+03   -0.30822E-01   -0.18262E-01 13480   0.196E+00    0.159E+00
DAV:   3    -0.191688145802E+03    0.22885E-01   -0.62519E-02 12320   0.176E+00    0.509E-01
DAV:   4    -0.191688177121E+03   -0.31319E-04   -0.11348E-02 11480   0.702E-01    0.527E-01
DAV:   5    -0.191685366374E+03    0.28107E-02   -0.70267E-03 11640   0.642E-01    0.241E-01
DAV:   6    -0.191685003021E+03    0.36335E-03   -0.25785E-03 10960   0.271E-01    0.122E-01
DAV:   7    -0.191684858209E+03    0.14481E-03   -0.10785E-03 11520   0.188E-01    0.129E-01
DAV:   8    -0.191684697577E+03    0.16063E-03   -0.43047E-04  8720   0.144E-01    0.405E-02
DAV:   9    -0.191684687703E+03    0.98735E-05   -0.67739E-05  5960   0.459E-02
  30 F= -.19168469E+03 E0= -.19158827E+03  d E =0.611980E-01
       N       E                     dE             d eps       ncg     rms          rms(c)
DAV:   1    -0.191671838269E+03    0.12859E-01   -0.23700E+00  8160   0.333E+00    0.394E-01
DAV:   2    -0.191681957159E+03   -0.10119E-01   -0.68777E-02 12760   0.122E+00    0.886E-01
DAV:   3    -0.191674451719E+03    0.75054E-02   -0.21939E-02 11760   0.107E+00    0.350E-01
DAV:   4    -0.191674800806E+03   -0.34909E-03   -0.59769E-03 11200   0.535E-01    0.414E-01
DAV:   5    -0.191673246445E+03    0.15544E-02   -0.41684E-03  9920   0.489E-01    0.203E-01
DAV:   6    -0.191672879253E+03    0.36719E-03   -0.16077E-03 10000   0.229E-01    0.103E-01
DAV:   7    -0.191673046011E+03   -0.16676E-03   -0.10405E-03 10800   0.222E-01    0.177E-01
DAV:   8    -0.191672712941E+03    0.33307E-03   -0.51557E-04  8480   0.164E-01    0.220E-02
DAV:   9    -0.191672719928E+03   -0.69871E-05   -0.37329E-05  5680   0.253E-02
  31 F= -.19167272E+03 E0= -.19157709E+03  d E =0.119678E-01
       N       E                     dE             d eps       ncg     rms          rms(c)
DAV:   1    -0.191654847979E+03    0.17865E-01   -0.65616E+00  8160   0.555E+00    0.632E-01
DAV:   2    -0.191678077854E+03   -0.23230E-01   -0.16887E-01 11480   0.172E+00    0.135E+00
DAV:   3    -0.191662627374E+03    0.15450E-01   -0.61333E-02 11680   0.172E+00    0.622E-01
DAV:   4    -0.191661537120E+03    0.10903E-02   -0.13947E-02 12120   0.812E-01    0.557E-01
DAV:   5    -0.191658666022E+03    0.28711E-02   -0.86000E-03 11360   0.736E-01    0.330E-01
DAV:   6    -0.191657740256E+03    0.92577E-03   -0.39044E-03 11160   0.387E-01    0.163E-01
DAV:   7    -0.191657997619E+03   -0.25736E-03   -0.20130E-03 12160   0.317E-01    0.262E-01
DAV:   8    -0.191657325191E+03    0.67243E-03   -0.10265E-03  8760   0.244E-01    0.413E-02
DAV:   9    -0.191657328579E+03   -0.33886E-05   -0.91095E-05  5600   0.446E-02
  32 F= -.19165733E+03 E0= -.19156382E+03  d E =0.153913E-01
       N       E                     dE             d eps       ncg     rms          rms(c)
DAV:   1    -0.191688960121E+03   -0.31635E-01   -0.32641E+00  8160   0.386E+00    0.489E-01
DAV:   2    -0.191719606779E+03   -0.30647E-01   -0.13585E-01 13480   0.192E+00    0.164E+00
DAV:   3    -0.191693047191E+03    0.26560E-01   -0.56334E-02 12240   0.170E+00    0.311E-01
DAV:   4    -0.191692333380E+03    0.71381E-03   -0.42359E-03 11400   0.356E-01    0.296E-01
DAV:   5    -0.191692059638E+03    0.27374E-03   -0.36965E-03 12560   0.463E-01    0.279E-01
DAV:   6    -0.191691575813E+03    0.48382E-03   -0.20498E-03 11040   0.294E-01    0.135E-01
DAV:   7    -0.191691454219E+03    0.12159E-03   -0.94498E-04 10520   0.222E-01    0.118E-01
DAV:   8    -0.191691286968E+03    0.16725E-03   -0.31389E-04  8800   0.135E-01    0.268E-02
DAV:   9    -0.191691281440E+03    0.55277E-05   -0.40189E-05  6520   0.303E-02
  33 F= -.19169128E+03 E0= -.19159857E+03  d E =-.339529E-01
       N       E                     dE             d eps       ncg     rms          rms(c)
DAV:   1    -0.191716445766E+03   -0.25159E-01   -0.20371E+00  8160   0.300E+00    0.338E-01
DAV:   2    -0.191730940563E+03   -0.14495E-01   -0.74130E-02 12920   0.131E+00    0.104E+00
DAV:   3    -0.191719704877E+03    0.11236E-01   -0.23835E-02 12320   0.114E+00    0.238E-01
DAV:   4    -0.191719324430E+03    0.38045E-03   -0.20118E-03 11400   0.275E-01    0.174E-01
DAV:   5    -0.191719222408E+03    0.10202E-03   -0.15365E-03 11400   0.306E-01    0.164E-01
DAV:   6    -0.191719025559E+03    0.19685E-03   -0.82016E-04 10080   0.189E-01    0.736E-02
DAV:   7    -0.191718983107E+03    0.42452E-04   -0.29117E-04  7680   0.106E-01
  34 F= -.19171898E+03 E0= -.19162772E+03  d E =-.277017E-01
       N       E                     dE             d eps       ncg     rms          rms(c)
DAV:   1    -0.191733803096E+03   -0.14778E-01   -0.66137E-01  8160   0.173E+00    0.225E-01
DAV:   2    -0.191739615752E+03   -0.58127E-02   -0.28721E-02 13520   0.867E-01    0.698E-01
DAV:   3    -0.191734705208E+03    0.49105E-02   -0.10355E-02 11840   0.750E-01    0.146E-01
DAV:   4    -0.191734505029E+03    0.20018E-03   -0.82654E-04 10080   0.142E-01    0.797E-02
DAV:   5    -0.191734492507E+03    0.12522E-04   -0.47529E-04 10720   0.130E-01
  35 F= -.19173449E+03 E0= -.19164365E+03  d E =-.155094E-01
       N       E                     dE             d eps       ncg     rms          rms(c)
DAV:   1    -0.191770646729E+03   -0.36142E-01   -0.51515E+00  8160   0.481E+00    0.606E-01
DAV:   2    -0.191818168669E+03   -0.47522E-01   -0.21426E-01 13200   0.245E+00    0.205E+00
DAV:   3    -0.191777314350E+03    0.40854E-01   -0.88212E-02 12240   0.211E+00    0.370E-01
DAV:   4    -0.191777741360E+03   -0.42701E-03   -0.86004E-03 11480   0.590E-01    0.523E-01
DAV:   5    -0.191775344895E+03    0.23965E-02   -0.67348E-03 12240   0.634E-01    0.243E-01
DAV:   6    -0.191775247195E+03    0.97699E-04   -0.26728E-03 11800   0.310E-01    0.184E-01
DAV:   7    -0.191774938252E+03    0.30894E-03   -0.14554E-03 10560   0.291E-01    0.125E-01
DAV:   8    -0.191774730581E+03    0.20767E-03   -0.36472E-04  8760   0.140E-01    0.277E-02
DAV:   9    -0.191774727303E+03    0.32782E-05   -0.58413E-05  6560   0.334E-02
  36 F= -.19177473E+03 E0= -.19168516E+03  d E =-.402348E-01
       N       E                     dE             d eps       ncg     rms          rms(c)
DAV:   1    -0.191786352472E+03   -0.11622E-01   -0.50184E-01  8160   0.153E+00    0.231E-01
DAV:   2    -0.191790227717E+03   -0.38752E-02   -0.25570E-02 11520   0.826E-01    0.552E-01
DAV:   3    -0.191786834197E+03    0.33935E-02   -0.78965E-03 12120   0.682E-01    0.184E-01
DAV:   4    -0.191786808396E+03    0.25800E-04   -0.19060E-03  9960   0.298E-01    0.203E-01
DAV:   5    -0.191786498295E+03    0.31010E-03   -0.14594E-03  9960   0.274E-01    0.135E-01
DAV:   6    -0.191786375930E+03    0.12237E-03   -0.62433E-04  9600   0.159E-01    0.845E-02
DAV:   7    -0.191786366048E+03    0.98820E-05   -0.38033E-04  8160   0.144E-01
  37 F= -.19178637E+03 E0= -.19169710E+03  d E =-.116387E-01
       N       E                     dE             d eps       ncg     rms          rms(c)
DAV:   1    -0.191800430508E+03   -0.14055E-01   -0.73338E-01  8160   0.183E+00    0.242E-01
DAV:   2    -0.191806562726E+03   -0.61322E-02   -0.31475E-02 13280   0.914E-01    0.713E-01
DAV:   3    -0.191801317336E+03    0.52454E-02   -0.11263E-02 12120   0.792E-01    0.159E-01
DAV:   4    -0.191801076014E+03    0.24132E-03   -0.11621E-03 10120   0.157E-01    0.963E-02
DAV:   5    -0.191801017082E+03    0.58932E-04   -0.74895E-04 11440   0.154E-01
  38 F= -.19180102E+03 E0= -.19171222E+03  d E =-.146510E-01
       N       E                     dE             d eps       ncg     rms          rms(c)
DAV:   1    -0.191824811428E+03   -0.23735E-01   -0.25371E+00  8160   0.339E+00    0.422E-01
DAV:   2    -0.191846236815E+03   -0.21425E-01   -0.97795E-02 13320   0.166E+00    0.128E+00
DAV:   3    -0.191828488178E+03    0.17749E-01   -0.32537E-02 12040   0.143E+00    0.284E-01
DAV:   4    -0.191829041937E+03   -0.55376E-03   -0.48040E-03 10680   0.514E-01    0.381E-01
DAV:   5    -0.191827456015E+03    0.15859E-02   -0.33209E-03 12160   0.457E-01    0.135E-01
DAV:   6    -0.191828072959E+03   -0.61694E-03   -0.21202E-03 10560   0.313E-01    0.268E-01
DAV:   7    -0.191827367015E+03    0.70594E-03   -0.14608E-03  9760   0.273E-01    0.672E-02
DAV:   8    -0.191827299359E+03    0.67656E-04   -0.13118E-04  5560   0.616E-02
  39 F= -.19182730E+03 E0= -.19173842E+03  d E =-.262823E-01
       N       E                     dE             d eps       ncg     rms          rms(c)
DAV:   1    -0.191847701139E+03   -0.20334E-01   -0.17671E+00  8160   0.283E+00    0.331E-01
DAV:   2    -0.191858306637E+03   -0.10605E-01   -0.61951E-02 13440   0.119E+00    0.854E-01
DAV:   3    -0.191850434298E+03    0.78723E-02   -0.18015E-02 12120   0.104E+00    0.256E-01
DAV:   4    -0.191850285921E+03    0.14838E-03   -0.30650E-03 10680   0.358E-01    0.238E-01
DAV:   5    -0.191849718761E+03    0.56716E-03   -0.18469E-03 11280   0.334E-01    0.132E-01
DAV:   6    -0.191849687304E+03    0.31456E-04   -0.84046E-04 10520   0.185E-01
  40 F= -.19184969E+03 E0= -.19176074E+03  d E =-.223879E-01
       N       E                     dE             d eps       ncg     rms          rms(c)
DAV:   1    -0.191836811566E+03    0.12907E-01   -0.53724E-01  8160   0.158E+00    0.206E-01
DAV:   2    -0.191842872257E+03   -0.60607E-02   -0.23540E-02 13280   0.829E-01    0.711E-01
DAV:   3    -0.191837328821E+03    0.55434E-02   -0.95797E-03 10960   0.724E-01    0.115E-01
DAV:   4    -0.191837327039E+03    0.17818E-05   -0.89293E-04  9800   0.162E-01
  41 F= -.19183733E+03 E0= -.19174829E+03  d E =0.123603E-01
       N       E                     dE             d eps       ncg     rms          rms(c)
DAV:   1    -0.191832456011E+03    0.48728E-02   -0.33887E-01  8160   0.130E+00    0.220E-01
DAV:   2    -0.191832225975E+03    0.23004E-03   -0.98562E-03 11440   0.357E-01    0.211E-01
DAV:   3    -0.191832630561E+03   -0.40459E-03   -0.35085E-03 12040   0.456E-01    0.320E-01
DAV:   4    -0.191831740129E+03    0.89043E-03   -0.25439E-03 11400   0.379E-01    0.155E-01
DAV:   5    -0.191831770151E+03   -0.30022E-04   -0.13636E-03 10080   0.272E-01    0.171E-01
DAV:   6    -0.191831441064E+03    0.32909E-03   -0.66187E-04  8720   0.203E-01    0.451E-02
DAV:   7    -0.191831446922E+03   -0.58578E-05   -0.12108E-04  6480   0.773E-02
  42 F= -.19183145E+03 E0= -.19174287E+03  d E =0.588012E-02
       N       E                     dE             d eps       ncg     rms          rms(c)
DAV:   1    -0.191855217583E+03   -0.23777E-01   -0.21458E+00  8160   0.317E+00    0.401E-01
DAV:   2    -0.191866174906E+03   -0.10957E-01   -0.68865E-02 13360   0.128E+00    0.962E-01
DAV:   3    -0.191857034706E+03    0.91402E-02   -0.23582E-02 12240   0.118E+00    0.315E-01
DAV:   4    -0.191856278744E+03    0.75596E-03   -0.39752E-03 11040   0.376E-01    0.246E-01
DAV:   5    -0.191855935934E+03    0.34281E-03   -0.29407E-03 12480   0.427E-01    0.212E-01
DAV:   6    -0.191855689059E+03    0.24687E-03   -0.17453E-03 10640   0.294E-01    0.154E-01
DAV:   7    -0.191855557273E+03    0.13179E-03   -0.10535E-03 10400   0.225E-01    0.122E-01
DAV:   8    -0.191855399262E+03    0.15801E-03   -0.28972E-04  7800   0.122E-01    0.279E-02
DAV:   9    -0.191855391036E+03    0.82259E-05   -0.38605E-05  6440   0.283E-02
  43 F= -.19185539E+03 E0= -.19176630E+03  d E =-.239441E-01
       N       E                     dE             d eps       ncg     rms          rms(c)
DAV:   1    -0.191873118069E+03   -0.17719E-01   -0.11249E+00  8160   0.227E+00    0.274E-01
DAV:   2    -0.191879077516E+03   -0.59594E-02   -0.36586E-02 13520   0.904E-01    0.670E-01
DAV:   3    -0.191874479754E+03    0.45978E-02   -0.11629E-02 12120   0.827E-01    0.236E-01
DAV:   4    -0.191874366891E+03    0.11286E-03   -0.25051E-03 10160   0.324E-01    0.220E-01
DAV:   5    -0.191873943074E+03    0.42382E-03   -0.17049E-03 11240   0.318E-01    0.141E-01
DAV:   6    -0.191873876265E+03    0.66809E-04   -0.90956E-04 10120   0.204E-01
  44 F= -.19187388E+03 E0= -.19178496E+03  d E =-.184852E-01
       N       E                     dE             d eps       ncg     rms          rms(c)
DAV:   1    -0.191867805932E+03    0.61371E-02   -0.10824E-01  8160   0.723E-01    0.117E-01
DAV:   2    -0.191870206372E+03   -0.24004E-02   -0.71696E-03 12680   0.517E-01    0.449E-01
DAV:   3    -0.191867856623E+03    0.23497E-02   -0.37109E-03 11280   0.456E-01    0.700E-02
DAV:   4    -0.191867848671E+03    0.79518E-05   -0.28961E-04  7720   0.998E-02
  45 F= -.19186785E+03 E0= -.19177855E+03  d E =0.602759E-02
       N       E                     dE             d eps       ncg     rms          rms(c)
DAV:   1    -0.191835170906E+03    0.32686E-01   -0.34959E+00  8160   0.403E+00    0.488E-01
DAV:   2    -0.191853225900E+03   -0.18055E-01   -0.10735E-01 13040   0.162E+00    0.118E+00
DAV:   3    -0.191838794613E+03    0.14431E-01   -0.33681E-02 11920   0.145E+00    0.369E-01
DAV:   4    -0.191838350542E+03    0.44407E-03   -0.59988E-03 12160   0.520E-01    0.344E-01
DAV:   5    -0.191837464884E+03    0.88566E-03   -0.45168E-03 11800   0.526E-01    0.248E-01
DAV:   6    -0.191837003534E+03    0.46135E-03   -0.22691E-03 11120   0.316E-01    0.131E-01
DAV:   7    -0.191836994264E+03    0.92699E-05   -0.11665E-03 10840   0.225E-01    0.161E-01
DAV:   8    -0.191836728020E+03    0.26624E-03   -0.50142E-04  8560   0.158E-01    0.344E-02
DAV:   9    -0.191836721679E+03    0.63410E-05   -0.54698E-05  5840   0.357E-02
  46 F= -.19183672E+03 E0= -.19174737E+03  d E =0.311270E-01
       N       E                     dE             d eps       ncg     rms          rms(c)
DAV:   1    -0.191867742572E+03   -0.31015E-01   -0.40182E+00  8160   0.429E+00    0.527E-01
DAV:   2    -0.191890860335E+03   -0.23118E-01   -0.13525E-01 12680   0.188E+00    0.128E+00
DAV:   3    -0.191872207543E+03    0.18653E-01   -0.38187E-02 11920   0.157E+00    0.398E-01
DAV:   4    -0.191872264725E+03   -0.57182E-04   -0.79553E-03 11200   0.652E-01    0.437E-01
DAV:   5    -0.191870446873E+03    0.18179E-02   -0.59051E-03 11560   0.603E-01    0.230E-01
DAV:   6    -0.191870234489E+03    0.21238E-03   -0.24865E-03 12720   0.315E-01    0.181E-01
DAV:   7    -0.191870247986E+03   -0.13497E-04   -0.19590E-03 11120   0.313E-01    0.203E-01
DAV:   8    -0.191869809095E+03    0.43889E-03   -0.70805E-04  8360   0.182E-01    0.308E-02
DAV:   9    -0.191869810636E+03   -0.15402E-05   -0.71666E-05  5560   0.342E-02
  47 F= -.19186981E+03 E0= -.19178060E+03  d E =-.330890E-01
       N       E                     dE             d eps       ncg     rms          rms(c)
DAV:   1    -0.191868542880E+03    0.12662E-02   -0.22978E-02  8160   0.340E-01    0.605E-02
DAV:   2    -0.191868570352E+03   -0.27472E-04   -0.86935E-04 11000   0.127E-01
  48 F= -.19186857E+03 E0= -.19177898E+03  d E =0.124028E-02
       N       E                     dE             d eps       ncg     rms          rms(c)
DAV:   1    -0.191892803080E+03   -0.24260E-01   -0.19006E+00  8160   0.297E+00    0.334E-01
DAV:   2    -0.191898599712E+03   -0.57966E-02   -0.51557E-02 13320   0.931E-01    0.638E-01
DAV:   3    -0.191895390884E+03    0.32088E-02   -0.13966E-02 11840   0.891E-01    0.342E-01
DAV:   4    -0.191894373080E+03    0.10178E-02   -0.31254E-03 11000   0.369E-01    0.194E-01
DAV:   5    -0.191894386375E+03   -0.13295E-04   -0.23517E-03 11080   0.357E-01    0.231E-01
DAV:   6    -0.191894028320E+03    0.35805E-03   -0.16698E-03 10280   0.290E-01    0.121E-01
DAV:   7    -0.191893938416E+03    0.89904E-04   -0.64409E-04  8360   0.172E-01
  49 F= -.19189394E+03 E0= -.19180425E+03  d E =-.253681E-01
       N       E                     dE             d eps       ncg     rms          rms(c)
DAV:   1    -0.191900329480E+03   -0.63012E-02   -0.16668E-01  8160   0.879E-01    0.132E-01
DAV:   2    -0.191900781498E+03   -0.45202E-03   -0.63602E-03 12960   0.309E-01    0.207E-01
DAV:   3    -0.191900517391E+03    0.26411E-03   -0.19505E-03 11080   0.323E-01    0.157E-01
DAV:   4    -0.191900322533E+03    0.19486E-03   -0.72519E-04  8640   0.187E-01    0.854E-02
DAV:   5    -0.191900256782E+03    0.65750E-04   -0.40252E-04  7600   0.121E-01
  50 F= -.19190026E+03 E0= -.19181019E+03  d E =-.631837E-02
       N       E                     dE             d eps       ncg     rms          rms(c)
DAV:   1    -0.191916615567E+03   -0.16293E-01   -0.59595E-01  8160   0.169E+00    0.245E-01
DAV:   2    -0.191918894125E+03   -0.22786E-02   -0.19146E-02 12320   0.709E-01    0.471E-01
DAV:   3    -0.191916545634E+03    0.23485E-02   -0.56361E-03 12080   0.618E-01    0.195E-01
DAV:   4    -0.191916729028E+03   -0.18339E-03   -0.21359E-03 10360   0.338E-01    0.258E-01
DAV:   5    -0.191916184287E+03    0.54474E-03   -0.18102E-03 10040   0.341E-01    0.132E-01
DAV:   6    -0.191916009006E+03    0.17528E-03   -0.64587E-04  9680   0.156E-01    0.571E-02
DAV:   7    -0.191916034755E+03   -0.25748E-04   -0.27084E-04  8400   0.120E-01
  51 F= -.19191603E+03 E0= -.19182687E+03  d E =-.157780E-01
       N       E                     dE             d eps       ncg     rms          rms(c)
DAV:   1    -0.191891992678E+03    0.24016E-01   -0.12939E+00  8160   0.245E+00    0.304E-01
DAV:   2    -0.191899220590E+03   -0.72279E-02   -0.39195E-02 13120   0.939E-01    0.814E-01
DAV:   3    -0.191893253757E+03    0.59668E-02   -0.16616E-02 11880   0.910E-01    0.271E-01
DAV:   4    -0.191892970858E+03    0.28290E-03   -0.27443E-03 11000   0.337E-01    0.216E-01
DAV:   5    -0.191892485329E+03    0.48553E-03   -0.16542E-03 10640   0.326E-01    0.127E-01
DAV:   6    -0.191892377485E+03    0.10784E-03   -0.61131E-04 10080   0.170E-01    0.654E-02
DAV:   7    -0.191892309193E+03    0.68292E-04   -0.19827E-04  7840   0.730E-02
  52 F= -.19189231E+03 E0= -.19180339E+03  d E =0.237256E-01
       N       E                     dE             d eps       ncg     rms          rms(c)
DAV:   1    -0.191843518585E+03    0.48859E-01   -0.11113E+01  8160   0.726E+00    0.857E-01
DAV:   2    -0.191890069705E+03   -0.46551E-01   -0.30448E-01 12440   0.252E+00    0.201E+00
DAV:   3    -0.191856588066E+03    0.33482E-01   -0.11692E-01 11880   0.238E+00    0.841E-01
DAV:   4    -0.191857885249E+03   -0.12972E-02   -0.30877E-02 12360   0.130E+00    0.902E-01
DAV:   5    -0.191848695094E+03    0.91902E-02   -0.18609E-02 11840   0.112E+00    0.328E-01
DAV:   6    -0.191847913875E+03    0.78122E-03   -0.51585E-03 10640   0.387E-01    0.186E-01
DAV:   7    -0.191847823830E+03    0.90044E-04   -0.25032E-03 12880   0.334E-01    0.235E-01
DAV:   8    -0.191847220149E+03    0.60368E-03   -0.10229E-03  9240   0.256E-01    0.452E-02
DAV:   9    -0.191847213491E+03    0.66578E-05   -0.96766E-05  5880   0.473E-02
  53 F= -.19184721E+03 E0= -.19175911E+03  d E =0.450957E-01
       N       E                     dE             d eps       ncg     rms          rms(c)
DAV:   1    -0.191849211134E+03   -0.19910E-02   -0.59919E-01  8160   0.167E+00    0.186E-01
DAV:   2    -0.191850118706E+03   -0.90757E-03   -0.14386E-02 12240   0.365E-01    0.195E-01
DAV:   3    -0.191850283216E+03   -0.16451E-03   -0.31446E-03 11800   0.382E-01    0.260E-01
DAV:   4    -0.191849742042E+03    0.54117E-03   -0.17207E-03 10880   0.296E-01    0.131E-01
DAV:   5    -0.191849593634E+03    0.14841E-03   -0.65915E-04  8480   0.177E-01    0.104E-01
DAV:   6    -0.191849586895E+03    0.67389E-05   -0.53081E-04  8880   0.176E-01
  54 F= -.19184959E+03 E0= -.19176169E+03  d E =-.237340E-02
       N       E                     dE             d eps       ncg     rms          rms(c)
DAV:   1    -0.191862023517E+03   -0.12430E-01   -0.17495E+00  8160   0.279E+00    0.294E-01
DAV:   2    -0.191867410220E+03   -0.53867E-02   -0.55608E-02 12560   0.792E-01    0.453E-01
DAV:   3    -0.191865843749E+03    0.15665E-02   -0.11463E-02 11960   0.741E-01    0.349E-01
DAV:   4    -0.191864937845E+03    0.90590E-03   -0.35981E-03 11360   0.434E-01    0.197E-01
DAV:   5    -0.191864531460E+03    0.40638E-03   -0.16116E-03 10040   0.249E-01    0.148E-01
DAV:   6    -0.191864544150E+03   -0.12690E-04   -0.10174E-03 10320   0.236E-01    0.140E-01
DAV:   7    -0.191864500951E+03    0.43199E-04   -0.70797E-04  8520   0.190E-01
  55 F= -.19186450E+03 E0= -.19177490E+03  d E =-.149141E-01
       N       E                     dE             d eps       ncg     rms          rms(c)
DAV:   1    -0.191873531478E+03   -0.89873E-02   -0.12951E+00  8160   0.243E+00    0.298E-01
DAV:   2    -0.191878141004E+03   -0.46095E-02   -0.45081E-02 13480   0.790E-01    0.512E-01
DAV:   3    -0.191875875519E+03    0.22655E-02   -0.11658E-02 12320   0.774E-01    0.332E-01
DAV:   4    -0.191875050883E+03    0.82464E-03   -0.35095E-03 11680   0.409E-01    0.187E-01
DAV:   5    -0.191874531522E+03    0.51936E-03   -0.14128E-03 10240   0.204E-01    0.113E-01
DAV:   6    -0.191874748106E+03   -0.21658E-03   -0.11059E-03 10200   0.244E-01    0.180E-01
DAV:   7    -0.191874488469E+03    0.25964E-03   -0.74244E-04  8480   0.191E-01    0.842E-02
DAV:   8    -0.191874420386E+03    0.68083E-04   -0.15829E-04  5760   0.106E-01
  56 F= -.19187442E+03 E0= -.19178405E+03  d E =-.991944E-02
       N       E                     dE             d eps       ncg     rms          rms(c)
DAV:   1    -0.191879552998E+03   -0.50645E-02   -0.35837E-01  8160   0.127E+00    0.165E-01
DAV:   2    -0.191881627079E+03   -0.20741E-02   -0.14370E-02 12720   0.590E-01    0.362E-01
DAV:   3    -0.191879950491E+03    0.16766E-02   -0.36500E-03 11200   0.463E-01    0.109E-01
DAV:   4    -0.191879897144E+03    0.53348E-04   -0.57914E-04  9920   0.160E-01
  57 F= -.19187990E+03 E0= -.19178868E+03  d E =-.547676E-02
       N       E                     dE             d eps       ncg     rms          rms(c)
DAV:   1    -0.191884947100E+03   -0.49966E-02   -0.35462E-01  8160   0.126E+00    0.168E-01
DAV:   2    -0.191887752643E+03   -0.28055E-02   -0.13153E-02 13600   0.557E-01    0.469E-01
DAV:   3    -0.191885323236E+03    0.24294E-02   -0.51790E-03 11440   0.546E-01    0.127E-01
DAV:   4    -0.191885272248E+03    0.50988E-04   -0.80092E-04  9680   0.148E-01
  58 F= -.19188527E+03 E0= -.19179348E+03  d E =-.537510E-02
       N       E                     dE             d eps       ncg     rms          rms(c)
DAV:   1    -0.191885695134E+03   -0.37190E-03   -0.87432E-03  8160   0.230E-01    0.632E-02
DAV:   2    -0.191886231490E+03   -0.53636E-03   -0.12567E-03 11560   0.269E-01    0.219E-01
DAV:   3    -0.191885677931E+03    0.55356E-03   -0.87222E-04  8520   0.238E-01    0.503E-02
DAV:   4    -0.191885691129E+03   -0.13198E-04   -0.10096E-04  5800   0.743E-02
  59 F= -.19188569E+03 E0= -.19179408E+03  d E =-.418880E-03
       N       E                     dE             d eps       ncg     rms          rms(c)
DAV:   1    -0.191890986138E+03   -0.53082E-02   -0.54842E-01  8160   0.157E+00    0.185E-01
DAV:   2    -0.191893046906E+03   -0.20608E-02   -0.19376E-02 12680   0.566E-01    0.319E-01
DAV:   3    -0.191891972821E+03    0.10741E-02   -0.37375E-03 11040   0.471E-01    0.161E-01
DAV:   4    -0.191891809547E+03    0.16327E-03   -0.89205E-04 10040   0.220E-01    0.125E-01
DAV:   5    -0.191891752086E+03    0.57461E-04   -0.71900E-04  8960   0.195E-01
  60 F= -.19189175E+03 E0= -.19179965E+03  d E =-.606096E-02
       N       E                     dE             d eps       ncg     rms          rms(c)
DAV:   1    -0.191891087227E+03    0.72232E-03   -0.11290E-01  8160   0.786E-01    0.157E-01
DAV:   2    -0.191892662462E+03   -0.15752E-02   -0.82589E-03 10480   0.496E-01    0.452E-01
DAV:   3    -0.191890823693E+03    0.18388E-02   -0.46167E-03 10960   0.462E-01    0.133E-01
DAV:   4    -0.191890686104E+03    0.13759E-03   -0.80977E-04  8800   0.169E-01    0.910E-02
DAV:   5    -0.191890656615E+03    0.29490E-04   -0.55125E-04  9320   0.173E-01
  61 F= -.19189066E+03 E0= -.19179784E+03  d E =0.109547E-02
       N       E                     dE             d eps       ncg     rms          rms(c)
DAV:   1    -0.191897742003E+03   -0.70559E-02   -0.10627E+00  8160   0.218E+00    0.252E-01
DAV:   2    -0.191902994339E+03   -0.52523E-02   -0.34282E-02 13520   0.792E-01    0.596E-01
DAV:   3    -0.191899494105E+03    0.35002E-02   -0.10670E-02 12040   0.752E-01    0.266E-01
DAV:   4    -0.191899260727E+03    0.23338E-03   -0.28443E-03 10760   0.340E-01    0.207E-01
DAV:   5    -0.191898939403E+03    0.32132E-03   -0.16588E-03 10040   0.301E-01    0.149E-01
DAV:   6    -0.191898758261E+03    0.18114E-03   -0.64464E-04  9080   0.183E-01    0.820E-02
DAV:   7    -0.191898847898E+03   -0.89637E-04   -0.47921E-04  8200   0.167E-01
  62 F= -.19189885E+03 E0= -.19180511E+03  d E =-.819128E-02
       N       E                     dE             d eps       ncg     rms          rms(c)
DAV:   1    -0.191905288722E+03   -0.65305E-02   -0.71162E-01  8160   0.180E+00    0.212E-01
DAV:   2    -0.191908219411E+03   -0.29307E-02   -0.22717E-02 13320   0.665E-01    0.432E-01
DAV:   3    -0.191906363735E+03    0.18557E-02   -0.60143E-03 12160   0.558E-01    0.211E-01
DAV:   4    -0.191906461096E+03   -0.97362E-04   -0.22565E-03 10000   0.311E-01    0.226E-01
DAV:   5    -0.191905990856E+03    0.47024E-03   -0.13776E-03  9840   0.280E-01    0.101E-01
DAV:   6    -0.191905921660E+03    0.69195E-04   -0.35761E-04  8400   0.119E-01
  63 F= -.19190592E+03 E0= -.19181229E+03  d E =-.707376E-02
       N       E                     dE             d eps       ncg     rms          rms(c)
DAV:   1    -0.191903727561E+03    0.22633E-02   -0.36643E-01  8160   0.134E+00    0.233E-01
DAV:   2    -0.191904975254E+03   -0.12477E-02   -0.16098E-02 11400   0.584E-01    0.451E-01
DAV:   3    -0.191903497860E+03    0.14774E-02   -0.69617E-03 11120   0.574E-01    0.254E-01
DAV:   4    -0.191903236086E+03    0.26177E-03   -0.26827E-03 11080   0.357E-01    0.225E-01
DAV:   5    -0.191902792311E+03    0.44378E-03   -0.16773E-03 10000   0.327E-01    0.126E-01
DAV:   6    -0.191902574980E+03    0.21733E-03   -0.57037E-04  9400   0.146E-01    0.428E-02
DAV:   7    -0.191902590284E+03   -0.15304E-04   -0.14437E-04  6560   0.920E-02
  64 F= -.19190259E+03 E0= -.19180828E+03  d E =0.333138E-02
       N       E                     dE             d eps       ncg     rms          rms(c)
DAV:   1    -0.191906543802E+03   -0.39688E-02   -0.23457E-01  8160   0.103E+00    0.124E-01
DAV:   2    -0.191907746089E+03   -0.12023E-02   -0.80997E-03 12800   0.438E-01    0.279E-01
DAV:   3    -0.191906848719E+03    0.89737E-03   -0.21678E-03 12120   0.346E-01    0.104E-01
DAV:   4    -0.191906877179E+03   -0.28460E-04   -0.62972E-04  8240   0.158E-01
  65 F= -.19190688E+03 E0= -.19181290E+03  d E =-.428690E-02
       N       E                     dE             d eps       ncg     rms          rms(c)
DAV:   1    -0.191910809823E+03   -0.39611E-02   -0.21445E-01  8160   0.990E-01    0.137E-01
DAV:   2    -0.191912101500E+03   -0.12917E-02   -0.73418E-03 13240   0.352E-01    0.321E-01
DAV:   3    -0.191911137327E+03    0.96417E-03   -0.33230E-03 11280   0.387E-01    0.175E-01
DAV:   4    -0.191910913096E+03    0.22423E-03   -0.87353E-04  8880   0.168E-01    0.727E-02
DAV:   5    -0.191910885549E+03    0.27547E-04   -0.31528E-04  7560   0.110E-01
  66 F= -.19191089E+03 E0= -.19181626E+03  d E =-.400837E-02
       N       E                     dE             d eps       ncg     rms          rms(c)
DAV:   1    -0.191914312068E+03   -0.33990E-02   -0.14148E-01  8160   0.811E-01    0.116E-01
DAV:   2    -0.191915503677E+03   -0.11916E-02   -0.54360E-03 13520   0.409E-01    0.296E-01
DAV:   3    -0.191914383333E+03    0.11203E-02   -0.19168E-03 10960   0.358E-01    0.706E-02
DAV:   4    -0.191914446615E+03   -0.63282E-04   -0.36157E-04  8240   0.129E-01
  67 F= -.19191445E+03 E0= -.19181935E+03  d E =-.356107E-02
       N       E                     dE             d eps       ncg     rms          rms(c)
DAV:   1    -0.191912888830E+03    0.14945E-02   -0.64275E-02  8160   0.594E-01    0.110E-01
DAV:   2    -0.191914261930E+03   -0.13731E-02   -0.48123E-03 12520   0.440E-01    0.373E-01
DAV:   3    -0.191912802801E+03    0.14591E-02   -0.27752E-03 10080   0.393E-01    0.864E-02
DAV:   4    -0.191912854508E+03   -0.51707E-04   -0.47022E-04  8280   0.146E-01
  68 F= -.19191285E+03 E0= -.19181881E+03  d E =0.159211E-02
       N       E                     dE             d eps       ncg     rms          rms(c)
DAV:   1    -0.191917806418E+03   -0.50036E-02   -0.41474E-01  8160   0.137E+00    0.177E-01
DAV:   2    -0.191919916431E+03   -0.21100E-02   -0.14293E-02 12600   0.596E-01    0.402E-01
DAV:   3    -0.191918169377E+03    0.17471E-02   -0.41723E-03 12200   0.487E-01    0.142E-01
DAV:   4    -0.191918334692E+03   -0.16532E-03   -0.13458E-03  9800   0.246E-01    0.193E-01
DAV:   5    -0.191917988839E+03    0.34585E-03   -0.10144E-03  8760   0.240E-01    0.870E-02
DAV:   6    -0.191917984547E+03    0.42920E-05   -0.36619E-04  7880   0.125E-01
  69 F= -.19191798E+03 E0= -.19182357E+03  d E =-.513004E-02
       N       E                     dE             d eps       ncg     rms          rms(c)
DAV:   1    -0.191918890454E+03   -0.90161E-03   -0.22389E-02  8160   0.380E-01    0.101E-01
DAV:   2    -0.191919226486E+03   -0.33603E-03   -0.22665E-03 11400   0.302E-01    0.224E-01
DAV:   3    -0.191918699674E+03    0.52681E-03   -0.13134E-03 10160   0.295E-01    0.847E-02
DAV:   4    -0.191918630030E+03    0.69644E-04   -0.29810E-04  7360   0.101E-01
  70 F= -.19191863E+03 E0= -.19182389E+03  d E =-.645483E-03
       N       E                     dE             d eps       ncg     rms          rms(c)
DAV:   1    -0.191926066224E+03   -0.73666E-02   -0.14876E+00  8160   0.279E+00    0.571E-01
DAV:   2    -0.191935045377E+03   -0.89792E-02   -0.95300E-02 11680   0.151E+00    0.114E+00
DAV:   3    -0.191923108102E+03    0.11937E-01   -0.39159E-02 12240   0.145E+00    0.528E-01
DAV:   4    -0.191921626795E+03    0.14813E-02   -0.13010E-02 11360   0.697E-01    0.501E-01
DAV:   5    -0.191920093240E+03    0.15336E-02   -0.97031E-03 10920   0.734E-01    0.353E-01
DAV:   6    -0.191918649201E+03    0.14440E-02   -0.34323E-03 11480   0.378E-01    0.897E-02
DAV:   7    -0.191918608620E+03    0.40582E-04   -0.64347E-04 10280   0.138E-01
  71 F= -.19191861E+03 E0= -.19182599E+03  d E =0.214098E-04
       N       E                     dE             d eps       ncg     rms          rms(c)
DAV:   1    -0.191947524939E+03   -0.28876E-01   -0.27168E+00  8160   0.382E+00    0.909E-01
DAV:   2    -0.191958303638E+03   -0.10779E-01   -0.19758E-01 12240   0.206E+00    0.180E+00
DAV:   3    -0.191936687355E+03    0.21616E-01   -0.11673E-01 12240   0.227E+00    0.936E-01
DAV:   4    -0.191932425410E+03    0.42619E-02   -0.38020E-02 12240   0.130E+00    0.880E-01
DAV:   5    -0.191926733244E+03    0.56922E-02   -0.28381E-02 11560   0.127E+00    0.622E-01
DAV:   6    -0.191922869510E+03    0.38637E-02   -0.12278E-02 11760   0.712E-01    0.263E-01
DAV:   7    -0.191922256819E+03    0.61269E-03   -0.27262E-03 11040   0.389E-01    0.158E-01
DAV:   8    -0.191922023827E+03    0.23299E-03   -0.82453E-04  9920   0.205E-01    0.686E-02
DAV:   9    -0.191921928008E+03    0.95819E-04   -0.15080E-04  6600   0.639E-02
  72 F= -.19192193E+03 E0= -.19182590E+03  d E =-.331939E-02
       N       E                     dE             d eps       ncg     rms          rms(c)
DAV:   1    -0.191931368383E+03   -0.93446E-02   -0.92717E-01  8160   0.206E+00    0.266E-01
DAV:   2    -0.191936216603E+03   -0.48482E-02   -0.33997E-02 12520   0.882E-01    0.623E-01
DAV:   3    -0.191932367035E+03    0.38496E-02   -0.10303E-02 12240   0.712E-01    0.241E-01
DAV:   4    -0.191932610964E+03   -0.24393E-03   -0.34379E-03 11120   0.397E-01    0.288E-01
DAV:   5    -0.191931793528E+03    0.81744E-03   -0.22871E-03 10000   0.365E-01    0.126E-01
DAV:   6    -0.191931749783E+03    0.43746E-04   -0.84001E-04 10200   0.181E-01
  73 F= -.19193175E+03 E0= -.19183616E+03  d E =-.982177E-02
       N       E                     dE             d eps       ncg     rms          rms(c)
DAV:   1    -0.191936972683E+03   -0.51792E-02   -0.24913E-01  8160   0.107E+00    0.146E-01
DAV:   2    -0.191939225244E+03   -0.22526E-02   -0.89337E-03 13120   0.545E-01    0.418E-01
DAV:   3    -0.191937179025E+03    0.20462E-02   -0.34904E-03 11920   0.468E-01    0.112E-01
DAV:   4    -0.191937325649E+03   -0.14662E-03   -0.85003E-04  8200   0.206E-01    0.152E-01
DAV:   5    -0.191937096482E+03    0.22917E-03   -0.48460E-04  9520   0.166E-01    0.436E-02
DAV:   6    -0.191937149438E+03   -0.52956E-04   -0.15297E-04  6720   0.912E-02
  74 F= -.19193715E+03 E0= -.19184244E+03  d E =-.539966E-02
       N       E                     dE             d eps       ncg     rms          rms(c)
DAV:   1    -0.191936560511E+03    0.53597E-03   -0.22907E-03  8520   0.139E-01    0.328E-02
DAV:   2    -0.191936735961E+03   -0.17545E-03   -0.45414E-04  9120   0.149E-01    0.122E-01
DAV:   3    -0.191936552394E+03    0.18357E-03   -0.28100E-04  7960   0.136E-01    0.239E-02
DAV:   4    -0.191936550642E+03    0.17516E-05   -0.22262E-05  5520   0.263E-02
  75 F= -.19193655E+03 E0= -.19184152E+03  d E =0.598796E-03
       N       E                     dE             d eps       ncg     rms          rms(c)
DAV:   1    -0.191948443264E+03   -0.11891E-01   -0.99610E-01  8160   0.213E+00    0.236E-01
DAV:   2    -0.191951654430E+03   -0.32112E-02   -0.25921E-02 12720   0.614E-01    0.459E-01
DAV:   3    -0.191949924030E+03    0.17304E-02   -0.80368E-03 12400   0.623E-01    0.288E-01
DAV:   4    -0.191949675683E+03    0.24835E-03   -0.29398E-03 10760   0.352E-01    0.221E-01
DAV:   5    -0.191949201553E+03    0.47413E-03   -0.15048E-03  9880   0.305E-01    0.114E-01
DAV:   6    -0.191949113555E+03    0.87998E-04   -0.45720E-04  9600   0.145E-01
  76 F= -.19194911E+03 E0= -.19185484E+03  d E =-.125629E-01
       N       E                     dE             d eps       ncg     rms          rms(c)
DAV:   1    -0.191922515096E+03    0.26686E-01   -0.43943E+00  8160   0.449E+00    0.496E-01
DAV:   2    -0.191936618053E+03   -0.14103E-01   -0.10753E-01 13040   0.132E+00    0.102E+00
DAV:   3    -0.191928650629E+03    0.79674E-02   -0.39106E-02 11960   0.133E+00    0.603E-01
DAV:   4    -0.191927379732E+03    0.12709E-02   -0.12570E-02 12280   0.734E-01    0.459E-01
DAV:   5    -0.191925259567E+03    0.21202E-02   -0.66534E-03 11160   0.641E-01    0.242E-01
DAV:   6    -0.191924700969E+03    0.55860E-03   -0.19254E-03 11480   0.281E-01    0.105E-01
DAV:   7    -0.191924556883E+03    0.14409E-03   -0.65308E-04 11360   0.106E-01    0.432E-02
DAV:   8    -0.191924518502E+03    0.38381E-04   -0.92278E-05  6880   0.438E-02
  77 F= -.19192452E+03 E0= -.19182906E+03  d E =0.245951E-01
       N       E                     dE             d eps       ncg     rms          rms(c)
DAV:   1    -0.191914260290E+03    0.10297E-01   -0.18730E+00  8160   0.295E+00    0.347E-01
DAV:   2    -0.191920171144E+03   -0.59109E-02   -0.49064E-02 13200   0.998E-01    0.637E-01
DAV:   3    -0.191915937913E+03    0.42332E-02   -0.13011E-02 12280   0.876E-01    0.295E-01
DAV:   4    -0.191916282279E+03   -0.34437E-03   -0.47498E-03 10960   0.436E-01    0.368E-01
DAV:   5    -0.191915263191E+03    0.10191E-02   -0.44637E-03 11800   0.464E-01    0.212E-01
DAV:   6    -0.191914877814E+03    0.38538E-03   -0.12939E-03  9840   0.225E-01    0.851E-02
DAV:   7    -0.191914913273E+03   -0.35460E-04   -0.58533E-04  9520   0.162E-01
  78 F= -.19191491E+03 E0= -.19181891E+03  d E =0.960523E-02
       N       E                     dE             d eps       ncg     rms          rms(c)
DAV:   1    -0.191914039252E+03    0.83856E-03   -0.41034E-01  8160   0.139E+00    0.158E-01
DAV:   2    -0.191914300345E+03   -0.26109E-03   -0.81854E-03 11360   0.243E-01    0.124E-01
DAV:   3    -0.191914568692E+03   -0.26835E-03   -0.18321E-03 11560   0.285E-01    0.204E-01
DAV:   4    -0.191914184602E+03    0.38409E-03   -0.10634E-03 10080   0.263E-01    0.109E-01
DAV:   5    -0.191914162229E+03    0.22373E-04   -0.57013E-04  8320   0.165E-01
  79 F= -.19191416E+03 E0= -.19181878E+03  d E =0.751044E-03
       N       E                     dE             d eps       ncg     rms          rms(c)
DAV:   1    -0.191918752985E+03   -0.45684E-02   -0.48226E-01  8160   0.147E+00    0.169E-01
DAV:   2    -0.191920253215E+03   -0.15002E-02   -0.14855E-02 12400   0.402E-01    0.248E-01
DAV:   3    -0.191919437643E+03    0.81557E-03   -0.39794E-03 11200   0.375E-01    0.174E-01
DAV:   4    -0.191919321172E+03    0.11647E-03   -0.13040E-03 10280   0.268E-01    0.141E-01
DAV:   5    -0.191919155117E+03    0.16605E-03   -0.56493E-04  8480   0.157E-01    0.966E-02
DAV:   6    -0.191919104921E+03    0.50196E-04   -0.31186E-04  7160   0.134E-01
  80 F= -.19191910E+03 E0= -.19182339E+03  d E =-.494269E-02
       N       E                     dE             d eps       ncg     rms          rms(c)
DAV:   1    -0.191921059136E+03   -0.19040E-02   -0.68657E-02  8160   0.565E-01    0.103E-01
DAV:   2    -0.191922729860E+03   -0.16707E-02   -0.44830E-03 12200   0.462E-01    0.375E-01
DAV:   3    -0.191921049237E+03    0.16806E-02   -0.22795E-03 10040   0.390E-01    0.573E-02
DAV:   4    -0.191921107054E+03   -0.57817E-04   -0.26042E-04  7560   0.112E-01
  81 F= -.19192111E+03 E0= -.19182521E+03  d E =-.200213E-02
       N       E                     dE             d eps       ncg     rms          rms(c)
DAV:   1    -0.191917449609E+03    0.35996E-02   -0.37140E-01  8160   0.130E+00    0.145E-01
DAV:   2    -0.191919085733E+03   -0.16361E-02   -0.94030E-03 12840   0.438E-01    0.353E-01
DAV:   3    -0.191917801190E+03    0.12845E-02   -0.34505E-03 11400   0.425E-01    0.144E-01
DAV:   4    -0.191917809771E+03   -0.85807E-05   -0.97684E-04  8520   0.198E-01
  82 F= -.19191781E+03 E0= -.19182232E+03  d E =0.329728E-02
       N       E                     dE             d eps       ncg     rms          rms(c)
DAV:   1    -0.191922157762E+03   -0.43566E-02   -0.47980E-01  8160   0.147E+00    0.169E-01
DAV:   2    -0.191925349835E+03   -0.31921E-02   -0.15725E-02 13040   0.635E-01    0.465E-01
DAV:   3    -0.191922772135E+03    0.25777E-02   -0.45024E-03 11320   0.542E-01    0.109E-01
DAV:   4    -0.191922835282E+03   -0.63147E-04   -0.75362E-04  9000   0.188E-01
  83 F= -.19192284E+03 E0= -.19182758E+03  d E =-.502551E-02
       N       E                     dE             d eps       ncg     rms          rms(c)
DAV:   1    -0.191922961709E+03   -0.18957E-03   -0.74611E-03  8160   0.250E-01    0.663E-02
DAV:   2    -0.191923479133E+03   -0.51742E-03   -0.11185E-03 11360   0.257E-01    0.218E-01
DAV:   3    -0.191922936244E+03    0.54289E-03   -0.82915E-04  8800   0.236E-01    0.584E-02
DAV:   4    -0.191922940037E+03   -0.37930E-05   -0.13003E-04  5680   0.827E-02
  84 F= -.19192294E+03 E0= -.19182742E+03  d E =-.104755E-03
       N       E                     dE             d eps       ncg     rms          rms(c)
DAV:   1    -0.191924165487E+03   -0.12292E-02   -0.63327E-02  8160   0.539E-01    0.743E-02
DAV:   2    -0.191924641461E+03   -0.47597E-03   -0.22682E-03 13000   0.262E-01    0.195E-01
DAV:   3    -0.191924228443E+03    0.41302E-03   -0.85514E-04  8920   0.236E-01    0.571E-02
DAV:   4    -0.191924214210E+03    0.14233E-04   -0.12905E-04  5440   0.703E-02
  85 F= -.19192421E+03 E0= -.19182896E+03  d E =-.127417E-02
       N       E                     dE             d eps       ncg     rms          rms(c)
DAV:   1    -0.191929710186E+03   -0.54817E-02   -0.67268E-01  8160   0.176E+00    0.233E-01
DAV:   2    -0.191934991990E+03   -0.52818E-02   -0.24753E-02 12760   0.801E-01    0.654E-01
DAV:   3    -0.191930551800E+03    0.44402E-02   -0.10016E-02 12040   0.742E-01    0.199E-01
DAV:   4    -0.191930485372E+03    0.66427E-04   -0.17764E-03  9960   0.248E-01    0.185E-01
DAV:   5    -0.191930255489E+03    0.22988E-03   -0.11679E-03 10160   0.261E-01    0.135E-01
DAV:   6    -0.191930097663E+03    0.15783E-03   -0.47186E-04  8200   0.142E-01    0.486E-02
DAV:   7    -0.191930076230E+03    0.21434E-04   -0.15062E-04  6680   0.530E-02
  86 F= -.19193008E+03 E0= -.19183477E+03  d E =-.586202E-02
       N       E                     dE             d eps       ncg     rms          rms(c)
DAV:   1    -0.191932204421E+03   -0.21068E-02   -0.73372E-02  8160   0.582E-01    0.712E-02
DAV:   2    -0.191932603040E+03   -0.39862E-03   -0.23421E-03 12760   0.218E-01    0.177E-01
DAV:   3    -0.191932303355E+03    0.29969E-03   -0.84919E-04  9800   0.212E-01    0.702E-02
DAV:   4    -0.191932290361E+03    0.12994E-04   -0.17361E-04  5640   0.823E-02
  87 F= -.19193229E+03 E0= -.19183700E+03  d E =-.221413E-02
       N       E                     dE             d eps       ncg     rms          rms(c)
DAV:   1    -0.191921901962E+03    0.10401E-01   -0.26869E+00  8160   0.351E+00    0.454E-01
DAV:   2    -0.191946092838E+03   -0.24191E-01   -0.92259E-02 12600   0.176E+00    0.147E+00
DAV:   3    -0.191923958699E+03    0.22134E-01   -0.45773E-02 12440   0.160E+00    0.313E-01
DAV:   4    -0.191924780955E+03   -0.82226E-03   -0.64354E-03 11360   0.513E-01    0.450E-01
DAV:   5    -0.191923049388E+03    0.17316E-02   -0.50904E-03 11800   0.520E-01    0.209E-01
DAV:   6    -0.191922744521E+03    0.30487E-03   -0.14227E-03 10320   0.248E-01    0.125E-01
DAV:   7    -0.191922758478E+03   -0.13956E-04   -0.82209E-04 10720   0.238E-01
  88 F= -.19192276E+03 E0= -.19182696E+03  d E =0.953188E-02
       N       E                     dE             d eps       ncg     rms          rms(c)
DAV:   1    -0.191930801866E+03   -0.80573E-02   -0.15363E+00  8160   0.266E+00    0.306E-01
DAV:   2    -0.191935795441E+03   -0.49936E-02   -0.40806E-02 13480   0.789E-01    0.566E-01
DAV:   3    -0.191932988036E+03    0.28074E-02   -0.11919E-02 12200   0.832E-01    0.358E-01
DAV:   4    -0.191931934955E+03    0.10531E-02   -0.36545E-03 11000   0.379E-01    0.180E-01
DAV:   5    -0.191931889960E+03    0.44995E-04   -0.22226E-03 11160   0.309E-01    0.228E-01
DAV:   6    -0.191931518178E+03    0.37178E-03   -0.14463E-03 10000   0.266E-01    0.108E-01
DAV:   7    -0.191931462923E+03    0.55255E-04   -0.49341E-04  8280   0.142E-01
  89 F= -.19193146E+03 E0= -.19183547E+03  d E =-.870445E-02
       N       E                     dE             d eps       ncg     rms          rms(c)
DAV:   1    -0.191933392026E+03   -0.18738E-02   -0.11515E-01  8160   0.731E-01    0.828E-02
DAV:   2    -0.191933682689E+03   -0.29066E-03   -0.34100E-03 12520   0.200E-01    0.108E-01
DAV:   3    -0.191933550732E+03    0.13196E-03   -0.70026E-04 10440   0.166E-01    0.786E-02
DAV:   4    -0.191933523998E+03    0.26734E-04   -0.22746E-04  7200   0.116E-01
  90 F= -.19193352E+03 E0= -.19183782E+03  d E =-.206108E-02
       N       E                     dE             d eps       ncg     rms          rms(c)
DAV:   1    -0.191937600727E+03   -0.40500E-02   -0.28245E-01  8160   0.114E+00    0.153E-01
DAV:   2    -0.191940123493E+03   -0.25228E-02   -0.11237E-02 12720   0.544E-01    0.457E-01
DAV:   3    -0.191937954939E+03    0.21686E-02   -0.45706E-03 11120   0.486E-01    0.132E-01
DAV:   4    -0.191937950881E+03    0.40575E-05   -0.86796E-04  8760   0.179E-01
  91 F= -.19193795E+03 E0= -.19184214E+03  d E =-.442688E-02
       N       E                     dE             d eps       ncg     rms          rms(c)
DAV:   1    -0.191939501099E+03   -0.15462E-02   -0.49212E-02  8160   0.505E-01    0.107E-01
DAV:   2    -0.191941049845E+03   -0.15487E-02   -0.41082E-03 12440   0.410E-01    0.385E-01
DAV:   3    -0.191939491347E+03    0.15585E-02   -0.28110E-03 10040   0.395E-01    0.930E-02
DAV:   4    -0.191939442091E+03    0.49256E-04   -0.35849E-04  7680   0.100E-01
  92 F= -.19193944E+03 E0= -.19184399E+03  d E =-.149121E-02
       N       E                     dE             d eps       ncg     rms          rms(c)
DAV:   1    -0.191948305655E+03   -0.88143E-02   -0.15167E+00  8160   0.263E+00    0.312E-01
DAV:   2    -0.191954468334E+03   -0.61627E-02   -0.45200E-02 13360   0.770E-01    0.623E-01
DAV:   3    -0.191951063392E+03    0.34049E-02   -0.14978E-02 11400   0.827E-01    0.407E-01
DAV:   4    -0.191950109924E+03    0.95347E-03   -0.49959E-03 11680   0.420E-01    0.230E-01
DAV:   5    -0.191949749494E+03    0.36043E-03   -0.22628E-03 10560   0.351E-01    0.192E-01
DAV:   6    -0.191949486676E+03    0.26282E-03   -0.11662E-03 10360   0.247E-01    0.113E-01
DAV:   7    -0.191949547074E+03   -0.60398E-04   -0.70820E-04 10120   0.206E-01
  93 F= -.19194955E+03 E0= -.19185458E+03  d E =-.101050E-01
       N       E                     dE             d eps       ncg     rms          rms(c)
DAV:   1    -0.191953167389E+03   -0.36807E-02   -0.22400E-01  8160   0.102E+00    0.111E-01
DAV:   2    -0.191953731204E+03   -0.56381E-03   -0.60350E-03 12960   0.256E-01    0.160E-01
DAV:   3    -0.191953578495E+03    0.15271E-03   -0.14212E-03 10920   0.255E-01    0.144E-01
DAV:   4    -0.191953475316E+03    0.10318E-03   -0.66227E-04  8360   0.165E-01    0.957E-02
DAV:   5    -0.191953410246E+03    0.65070E-04   -0.34397E-04  7440   0.136E-01
  94 F= -.19195341E+03 E0= -.19185851E+03  d E =-.386317E-02
       N       E                     dE             d eps       ncg     rms          rms(c)
DAV:   1    -0.191942437531E+03    0.11038E-01   -0.15251E+00  8160   0.264E+00    0.280E-01
DAV:   2    -0.191947762785E+03   -0.53253E-02   -0.43076E-02 12800   0.825E-01    0.549E-01
DAV:   3    -0.191944882736E+03    0.28800E-02   -0.10749E-02 12280   0.762E-01    0.304E-01
DAV:   4    -0.191944644423E+03    0.23831E-03   -0.37767E-03 10880   0.407E-01    0.258E-01
DAV:   5    -0.191944096595E+03    0.54783E-03   -0.22379E-03  9840   0.345E-01    0.163E-01
DAV:   6    -0.191943892369E+03    0.20423E-03   -0.84119E-04 10160   0.203E-01    0.919E-02
DAV:   7    -0.191944008552E+03   -0.11618E-03   -0.61362E-04  9440   0.190E-01    0.131E-01
DAV:   8    -0.191943796660E+03    0.21189E-03   -0.28174E-04  8200   0.133E-01    0.158E-02
DAV:   9    -0.191943803530E+03   -0.68705E-05   -0.26992E-05  5760   0.226E-02
  95 F= -.19194380E+03 E0= -.19184816E+03  d E =0.960672E-02
       N       E                     dE             d eps       ncg     rms          rms(c)
DAV:   1    -0.191944643597E+03   -0.84694E-03   -0.95326E-02  8160   0.663E-01    0.769E-02
DAV:   2    -0.191944917539E+03   -0.27394E-03   -0.23419E-03 12600   0.202E-01    0.144E-01
DAV:   3    -0.191944747356E+03    0.17018E-03   -0.65838E-04  9080   0.196E-01    0.792E-02
DAV:   4    -0.191944717085E+03    0.30271E-04   -0.20926E-04  6000   0.972E-02
  96 F= -.19194472E+03 E0= -.19184915E+03  d E =-.913555E-03
       N       E                     dE             d eps       ncg     rms          rms(c)
DAV:   1    -0.191945533501E+03   -0.78615E-03   -0.14532E-02  8160   0.275E-01    0.641E-02
DAV:   2    -0.191946317356E+03   -0.78385E-03   -0.18576E-03 11320   0.288E-01    0.283E-01
DAV:   3    -0.191945501548E+03    0.81581E-03   -0.12855E-03  9640   0.259E-01    0.344E-02
DAV:   4    -0.191945514146E+03   -0.12598E-04   -0.55577E-05  5800   0.470E-02
  97 F= -.19194551E+03 E0= -.19185001E+03  d E =-.797061E-03
       N       E                     dE             d eps       ncg     rms          rms(c)
DAV:   1    -0.191951667344E+03   -0.61658E-02   -0.57075E-01  8160   0.162E+00    0.200E-01
DAV:   2    -0.191955216177E+03   -0.35488E-02   -0.18972E-02 12800   0.630E-01    0.505E-01
DAV:   3    -0.191952496978E+03    0.27192E-02   -0.67570E-03 12040   0.607E-01    0.197E-01
DAV:   4    -0.191952368935E+03    0.12804E-03   -0.16613E-03  9640   0.246E-01    0.159E-01
DAV:   5    -0.191952191676E+03    0.17726E-03   -0.90328E-04  9240   0.226E-01    0.116E-01
DAV:   6    -0.191952086883E+03    0.10479E-03   -0.40233E-04  8360   0.139E-01    0.667E-02
DAV:   7    -0.191952119163E+03   -0.32279E-04   -0.26389E-04  7920   0.133E-01
  98 F= -.19195212E+03 E0= -.19185700E+03  d E =-.660502E-02
       N       E                     dE             d eps       ncg     rms          rms(c)
DAV:   1    -0.191946965284E+03    0.51216E-02   -0.31118E-01  8160   0.120E+00    0.139E-01
DAV:   2    -0.191948501091E+03   -0.15358E-02   -0.98175E-03 12720   0.413E-01    0.329E-01
DAV:   3    -0.191947495438E+03    0.10057E-02   -0.34002E-03 11640   0.407E-01    0.155E-01
DAV:   4    -0.191947372619E+03    0.12282E-03   -0.81353E-04  8480   0.176E-01    0.110E-01
DAV:   5    -0.191947280113E+03    0.92506E-04   -0.41343E-04  8200   0.158E-01
  99 F= -.19194728E+03 E0= -.19185170E+03  d E =0.483905E-02
       N       E                     dE             d eps       ncg     rms          rms(c)
DAV:   1    -0.191933066623E+03    0.14306E-01   -0.25001E+00  8160   0.340E+00    0.413E-01
DAV:   2    -0.191943640301E+03   -0.10574E-01   -0.79280E-02 13400   0.111E+00    0.885E-01
DAV:   3    -0.191937845278E+03    0.57950E-02   -0.29733E-02 11640   0.113E+00    0.513E-01
DAV:   4    -0.191936183364E+03    0.16619E-02   -0.79306E-03 11600   0.538E-01    0.313E-01
DAV:   5    -0.191935362013E+03    0.82135E-03   -0.36698E-03 11280   0.456E-01    0.241E-01
DAV:   6    -0.191934990859E+03    0.37115E-03   -0.20647E-03 11240   0.316E-01    0.145E-01
DAV:   7    -0.191934995450E+03   -0.45907E-05   -0.11574E-03 10640   0.246E-01    0.141E-01
DAV:   8    -0.191934748974E+03    0.24648E-03   -0.38070E-04  8920   0.169E-01    0.309E-02
DAV:   9    -0.191934739504E+03    0.94694E-05   -0.40350E-05  6240   0.355E-02
 100 F= -.19193474E+03 E0= -.19183853E+03  d E =0.125406E-01
