<?xml version="1.0" encoding="ISO-8859-1"?>
<modeling>
 <generator>
  <i name="program" type="string">vasp </i>
  <i name="version" type="string">5.4.1  </i>
  <i name="subversion" type="string">05Feb16 (build Jul 05 2020 17:13:04) complex                          parallel </i>
  <i name="platform" type="string">IFC91_ompi </i>
  <i name="date" type="string">2024 04 21 </i>
  <i name="time" type="string">14:02:28 </i>
 </generator>
 <incar>
  <i type="int" name="ISTART">     0</i>
  <i type="string" name="PREC">normal</i>
  <i type="string" name="ALGO"> Normal</i>
  <i type="int" name="ISPIN">     1</i>
  <i type="int" name="ICHARG">     2</i>
  <i type="int" name="IBRION">     1</i>
  <i type="int" name="NSW">   100</i>
  <i type="int" name="ISIF">     3</i>
  <i type="int" name="ISYM">     0</i>
  <i name="SYMPREC">      0.00000001</i>
  <i name="POTIM">      0.50000000</i>
  <i type="logical" name="LREAL"> F  </i>
  <i type="logical" name="LPLANE"> F  </i>
  <i type="int" name="ISMEAR">     0</i>
  <i type="logical" name="LWAVE"> F  </i>
  <i type="logical" name="LCHARG"> F  </i>
  <v type="int" name="KPOINT_BSE">    -1     0     0     0</v>
 </incar>
 <kpoints>
  <generation param="Gamma">
   <v type="int" name="divisions">       8        8        1 </v>
   <v name="usershift">      0.00000000       0.00000000       0.00000000 </v>
   <v name="genvec1">      0.12500000       0.00000000       0.00000000 </v>
   <v name="genvec2">     -0.00000000       0.12500000       0.00000000 </v>
   <v name="genvec3">      0.00000000       0.00000000       1.00000000 </v>
   <v name="shift">      0.00000000       0.00000000       0.00000000 </v>
  </generation>
  <varray name="kpointlist" >
   <v>       0.00000000       0.00000000       0.00000000 </v>
   <v>       0.12500000       0.00000000       0.00000000 </v>
   <v>       0.25000000       0.00000000       0.00000000 </v>
   <v>       0.37500000       0.00000000       0.00000000 </v>
   <v>       0.50000000       0.00000000       0.00000000 </v>
   <v>       0.00000000       0.12500000       0.00000000 </v>
   <v>       0.12500000       0.12500000       0.00000000 </v>
   <v>       0.25000000       0.12500000       0.00000000 </v>
   <v>       0.37500000       0.12500000       0.00000000 </v>
   <v>       0.50000000       0.12500000       0.00000000 </v>
   <v>      -0.37500000       0.12500000       0.00000000 </v>
   <v>      -0.25000000       0.12500000       0.00000000 </v>
   <v>      -0.12500000       0.12500000       0.00000000 </v>
   <v>       0.00000000       0.25000000       0.00000000 </v>
   <v>       0.12500000       0.25000000       0.00000000 </v>
   <v>       0.25000000       0.25000000       0.00000000 </v>
   <v>       0.37500000       0.25000000       0.00000000 </v>
   <v>       0.50000000       0.25000000       0.00000000 </v>
   <v>      -0.37500000       0.25000000       0.00000000 </v>
   <v>      -0.25000000       0.25000000       0.00000000 </v>
   <v>      -0.12500000       0.25000000       0.00000000 </v>
   <v>      -0.00000000       0.37500000       0.00000000 </v>
   <v>       0.12500000       0.37500000       0.00000000 </v>
   <v>       0.25000000       0.37500000       0.00000000 </v>
   <v>       0.37500000       0.37500000       0.00000000 </v>
   <v>       0.50000000       0.37500000       0.00000000 </v>
   <v>      -0.37500000       0.37500000       0.00000000 </v>
   <v>      -0.25000000       0.37500000       0.00000000 </v>
   <v>      -0.12500000       0.37500000       0.00000000 </v>
   <v>       0.00000000       0.50000000       0.00000000 </v>
   <v>       0.12500000       0.50000000       0.00000000 </v>
   <v>       0.25000000       0.50000000       0.00000000 </v>
   <v>       0.37500000       0.50000000       0.00000000 </v>
   <v>       0.50000000       0.50000000       0.00000000 </v>
  </varray>
  <varray name="weights" >
   <v>       0.01562500 </v>
   <v>       0.03125000 </v>
   <v>       0.03125000 </v>
   <v>       0.03125000 </v>
   <v>       0.01562500 </v>
   <v>       0.03125000 </v>
   <v>       0.03125000 </v>
   <v>       0.03125000 </v>
   <v>       0.03125000 </v>
   <v>       0.03125000 </v>
   <v>       0.03125000 </v>
   <v>       0.03125000 </v>
   <v>       0.03125000 </v>
   <v>       0.03125000 </v>
   <v>       0.03125000 </v>
   <v>       0.03125000 </v>
   <v>       0.03125000 </v>
   <v>       0.03125000 </v>
   <v>       0.03125000 </v>
   <v>       0.03125000 </v>
   <v>       0.03125000 </v>
   <v>       0.03125000 </v>
   <v>       0.03125000 </v>
   <v>       0.03125000 </v>
   <v>       0.03125000 </v>
   <v>       0.03125000 </v>
   <v>       0.03125000 </v>
   <v>       0.03125000 </v>
   <v>       0.03125000 </v>
   <v>       0.01562500 </v>
   <v>       0.03125000 </v>
   <v>       0.03125000 </v>
   <v>       0.03125000 </v>
   <v>       0.01562500 </v>
  </varray>
 </kpoints>
 <parameters>
  <separator name="general" >
   <i type="string" name="SYSTEM">unknown system</i>
   <i type="logical" name="LCOMPAT"> F  </i>
  </separator>
  <separator name="electronic" >
   <i type="string" name="PREC">normal</i>
   <i name="ENMAX">    280.00000000</i>
   <i name="ENAUG">    373.43800000</i>
   <i name="EDIFF">      0.00010000</i>
   <i type="int" name="IALGO">    38</i>
   <i type="int" name="IWAVPR">    11</i>
   <i type="int" name="NBANDS">   120</i>
   <i name="NELECT">    159.00000000</i>
   <i type="int" name="TURBO">     0</i>
   <i type="int" name="IRESTART">     0</i>
   <i type="int" name="NREBOOT">     0</i>
   <i type="int" name="NMIN">     0</i>
   <i name="EREF">      0.00000000</i>
   <separator name="electronic smearing" >
    <i type="int" name="ISMEAR">     0</i>
    <i name="SIGMA">      0.20000000</i>
    <i name="KSPACING">      0.50000000</i>
    <i type="logical" name="KGAMMA"> T  </i>
   </separator>
   <separator name="electronic projectors" >
    <i type="logical" name="LREAL"> F  </i>
    <v name="ROPT">      0.00000000      0.00000000      0.00000000      0.00000000</v>
    <i type="int" name="LMAXPAW">  -100</i>
    <i type="int" name="LMAXMIX">     2</i>
    <i type="logical" name="NLSPLINE"> F  </i>
   </separator>
   <separator name="electronic startup" >
    <i type="int" name="ISTART">     0</i>
    <i type="int" name="ICHARG">     2</i>
    <i type="int" name="INIWAV">     1</i>
   </separator>
   <separator name="electronic spin" >
    <i type="int" name="ISPIN">     1</i>
    <i type="logical" name="LNONCOLLINEAR"> F  </i>
    <v name="MAGMOM">      1.00000000      1.00000000      1.00000000      1.00000000      1.00000000      1.00000000      1.00000000      1.00000000      1.00000000      1.00000000      1.00000000      1.00000000      1.00000000      1.00000000      1.00000000      1.00000000      1.00000000      1.00000000      1.00000000      1.00000000
      1.00000000      1.00000000      1.00000000      1.00000000      1.00000000      1.00000000      1.00000000</v>
    <i name="NUPDOWN">     -1.00000000</i>
    <i type="logical" name="LSORBIT"> F  </i>
    <v name="SAXIS">      0.00000000      0.00000000      1.00000000</v>
    <i type="logical" name="LSPIRAL"> F  </i>
    <v name="QSPIRAL">      0.00000000      0.00000000      0.00000000</v>
    <i type="logical" name="LZEROZ"> F  </i>
   </separator>
   <separator name="electronic exchange-correlation" >
    <i type="logical" name="LASPH"> F  </i>
    <i type="logical" name="LMETAGGA"> F  </i>
   </separator>
   <separator name="electronic convergence" >
    <i type="int" name="NELM">    60</i>
    <i type="int" name="NELMDL">    -5</i>
    <i type="int" name="NELMIN">     2</i>
    <i name="ENINI">    280.00000000</i>
    <separator name="electronic convergence detail" >
     <i type="logical" name="LDIAG"> T  </i>
     <i type="logical" name="LSUBROT"> F  </i>
     <i name="WEIMIN">      0.00100000</i>
     <i name="EBREAK">      0.00000021</i>
     <i name="DEPER">      0.30000000</i>
     <i type="int" name="NRMM">     4</i>
     <i name="TIME">      0.40000000</i>
    </separator>
   </separator>
   <separator name="electronic mixer" >
    <i name="AMIX">      0.40000000</i>
    <i name="BMIX">      1.00000000</i>
    <i name="AMIN">      0.10000000</i>
    <i name="AMIX_MAG">      1.60000000</i>
    <i name="BMIX_MAG">      1.00000000</i>
    <separator name="electronic mixer details" >
     <i type="int" name="IMIX">     4</i>
     <i type="logical" name="MIXFIRST"> F  </i>
     <i type="int" name="MAXMIX">   -45</i>
     <i name="WC">    100.00000000</i>
     <i type="int" name="INIMIX">     1</i>
     <i type="int" name="MIXPRE">     1</i>
     <i type="int" name="MREMOVE">     5</i>
    </separator>
   </separator>
   <separator name="electronic dipolcorrection" >
    <i type="logical" name="LDIPOL"> F  </i>
    <i type="logical" name="LMONO"> F  </i>
    <i type="int" name="IDIPOL">     0</i>
    <i name="EPSILON">      1.00000000</i>
    <v name="DIPOL">   -100.00000000   -100.00000000   -100.00000000</v>
    <i name="EFIELD">      0.00000000</i>
   </separator>
  </separator>
  <separator name="grids" >
   <i type="int" name="NGX">    42</i>
   <i type="int" name="NGY">    42</i>
   <i type="int" name="NGZ">   126</i>
   <i type="int" name="NGXF">    84</i>
   <i type="int" name="NGYF">    84</i>
   <i type="int" name="NGZF">   252</i>
   <i type="logical" name="ADDGRID"> F  </i>
  </separator>
  <separator name="ionic" >
   <i type="int" name="NSW">   100</i>
   <i type="int" name="IBRION">     1</i>
   <i type="int" name="ISIF">     3</i>
   <i name="PSTRESS">      0.00000000</i>
   <i name="EDIFFG">      0.00100000</i>
   <i type="int" name="NFREE">     0</i>
   <i name="POTIM">      0.50000000</i>
   <i name="SMASS">     -3.00000000</i>
   <i name="SCALEE">      1.00000000</i>
  </separator>
  <separator name="ionic md" >
   <i name="TEBEG">      0.00010000</i>
   <i name="TEEND">      0.00010000</i>
   <i type="int" name="NBLOCK">     1</i>
   <i type="int" name="KBLOCK">   100</i>
   <i type="int" name="NPACO">   256</i>
   <i name="APACO">     16.00000000</i>
  </separator>
  <separator name="symmetry" >
   <i type="int" name="ISYM">     0</i>
   <i name="SYMPREC">      0.00000001</i>
  </separator>
  <separator name="dos" >
   <i type="logical" name="LORBIT"> F  </i>
   <v name="RWIGS">     -1.00000000     -1.00000000     -1.00000000     -1.00000000</v>
   <i type="int" name="NEDOS">   301</i>
   <i name="EMIN">     10.00000000</i>
   <i name="EMAX">    -10.00000000</i>
   <i name="EFERMI">      0.00000000</i>
  </separator>
  <separator name="writing" >
   <i type="int" name="NWRITE">     2</i>
   <i type="logical" name="LWAVE"> F  </i>
   <i type="logical" name="LCHARG"> F  </i>
   <i type="logical" name="LPARD"> F  </i>
   <i type="logical" name="LVTOT"> F  </i>
   <i type="logical" name="LVHAR"> F  </i>
   <i type="logical" name="LELF"> F  </i>
   <i type="logical" name="LOPTICS"> F  </i>
   <v name="STM">      0.00000000      0.00000000      0.00000000      0.00000000      0.00000000      0.00000000      0.00000000</v>
  </separator>
  <separator name="performance" >
   <i type="int" name="NPAR">    40</i>
   <i type="int" name="NSIM">     4</i>
   <i type="int" name="NBLK">    -1</i>
   <i type="logical" name="LPLANE"> F  </i>
   <i type="logical" name="LSCALAPACK"> T  </i>
   <i type="logical" name="LSCAAWARE"> F  </i>
   <i type="logical" name="LSCALU"> F  </i>
   <i type="logical" name="LASYNC"> F  </i>
   <i type="logical" name="LORBITALREAL"> F  </i>
  </separator>
  <separator name="miscellaneous" >
   <i type="int" name="IDIOT">     3</i>
   <i type="logical" name="LMUSIC"> F  </i>
   <v name="POMASS">     50.94100000     95.94000000    183.85000000     32.06600000</v>
   <v name="DARWINR">      0.00000000      0.00000000      0.00000000      0.00000000</v>
   <v name="DARWINV">      1.00000000      1.00000000      1.00000000      1.00000000</v>
   <i type="logical" name="LCORR"> T  </i>
  </separator>
  <i type="logical" name="GGA_COMPAT"> T  </i>
  <i type="logical" name="LBERRY"> F  </i>
  <i type="int" name="ICORELEVEL">     0</i>
  <i type="logical" name="LDAU"> F  </i>
  <i type="int" name="I_CONSTRAINED_M">     0</i>
  <separator name="electronic exchange-correlation" >
   <i type="string" name="GGA">--</i>
   <i type="int" name="VOSKOWN">     0</i>
   <i type="logical" name="LHFCALC"> F  </i>
   <i type="string" name="PRECFOCK"></i>
   <i type="logical" name="LSYMGRAD"> F  </i>
   <i type="logical" name="LHFONE"> F  </i>
   <i type="logical" name="LRHFCALC"> F  </i>
   <i type="logical" name="LTHOMAS"> F  </i>
   <i type="logical" name="LMODELHF"> F  </i>
   <i name="ENCUT4O">     -1.00000000</i>
   <i type="int" name="EXXOEP">     0</i>
   <i type="int" name="FOURORBIT">     0</i>
   <i name="AEXX">      0.00000000</i>
   <i name="HFALPHA">      0.00000000</i>
   <i name="MCALPHA">      0.00000000</i>
   <i name="ALDAX">      1.00000000</i>
   <i name="AGGAX">      1.00000000</i>
   <i name="ALDAC">      1.00000000</i>
   <i name="AGGAC">      1.00000000</i>
   <i type="int" name="NKREDX">     1</i>
   <i type="int" name="NKREDY">     1</i>
   <i type="int" name="NKREDZ">     1</i>
   <i type="logical" name="SHIFTRED"> F  </i>
   <i type="logical" name="ODDONLY"> F  </i>
   <i type="logical" name="EVENONLY"> F  </i>
   <i type="int" name="LMAXFOCK">     0</i>
   <i type="int" name="NMAXFOCKAE">     0</i>
   <i type="logical" name="LFOCKAEDFT"> F  </i>
   <i name="HFSCREEN">      0.00000000</i>
   <i name="HFSCREENC">      0.00000000</i>
   <i type="int" name="NBANDSGWLOW">     0</i>
  </separator>
  <separator name="vdW DFT" >
   <i type="logical" name="LUSE_VDW"> F  </i>
   <i name="Zab_VDW">     -0.84910000</i>
   <i name="PARAM1">      0.12340000</i>
   <i name="PARAM2">      1.00000000</i>
   <i name="PARAM3">      0.00000000</i>
  </separator>
  <separator name="model GW" >
   <i type="int" name="MODEL_GW">     0</i>
   <i name="MODEL_EPS0">     58.26239943</i>
   <i name="MODEL_ALPHA">      1.00000000</i>
  </separator>
  <separator name="linear response parameters" >
   <i type="logical" name="LEPSILON"> F  </i>
   <i type="logical" name="LRPA"> F  </i>
   <i type="logical" name="LNABLA"> F  </i>
   <i type="logical" name="LVEL"> F  </i>
   <i type="int" name="KINTER">     0</i>
   <i name="CSHIFT">      0.10000000</i>
   <i name="OMEGAMAX">     -1.00000000</i>
   <i name="DEG_THRESHOLD">      0.00200000</i>
  </separator>
  <separator name="orbital magnetization" >
   <i type="logical" name="NUCIND"> F  </i>
   <v name="MAGPOS">      0.00000000      0.00000000      0.00000000</v>
   <i type="logical" name="LNICSALL"> T  </i>
   <i type="logical" name="ORBITALMAG"> F  </i>
   <i type="logical" name="LMAGBLOCH"> F  </i>
   <i type="logical" name="LCHIMAG"> F  </i>
   <i type="logical" name="LGAUGE"> T  </i>
   <i type="int" name="MAGATOM">     0</i>
   <v name="MAGDIPOL">      0.00000000      0.00000000      0.00000000</v>
   <v name="AVECCONST">      0.00000000      0.00000000      0.00000000</v>
  </separator>
  <separator name="response functions" >
   <i type="logical" name="LADDER"> F  </i>
   <i type="logical" name="LFXC"> F  </i>
   <i type="logical" name="LHARTREE"> T  </i>
   <i type="int" name="IBSE">     0</i>
   <v type="int" name="KPOINT">    -1     0     0     0</v>
   <i type="logical" name="LTCTE"> F  </i>
   <i type="logical" name="LTETE"> F  </i>
   <i type="logical" name="LTRIPLET"> F  </i>
   <i type="logical" name="LFXCEPS"> F  </i>
   <i type="logical" name="LFXHEG"> F  </i>
   <i type="int" name="NATURALO">     0</i>
   <i type="logical" name="L2ORDER"> F  </i>
   <i type="logical" name="LUSEW"> F  </i>
   <i name="ENCUTGW">     -2.00000000</i>
   <i name="ENCUTGWSOFT">     -2.00000000</i>
   <i name="ENCUTLF">     -1.00000000</i>
   <i type="int" name="LMAXMP2">    -1</i>
   <i name="SCISSOR">      0.00000000</i>
   <i type="int" name="NOMEGA">     0</i>
   <i type="int" name="NOMEGAR">     0</i>
   <i type="int" name="NBANDSGW">    -1</i>
   <i type="int" name="NBANDSO">    -1</i>
   <i type="int" name="NBANDSV">    -1</i>
   <i type="int" name="NELM">     1</i>
   <i type="int" name="NELMHF">     1</i>
   <i type="int" name="DIM">     3</i>
   <i type="int" name="ANTIRES">     0</i>
   <i name="OMEGAMAX">    -30.00000000</i>
   <i name="OMEGAMIN">    -30.00000000</i>
   <i name="OMEGATL">   -200.00000000</i>
   <i type="int" name="OMEGAGRID">     0</i>
   <i name="CSHIFT">     -0.10000000</i>
   <i type="logical" name="SELFENERGY"> F  </i>
   <i type="logical" name="LSPECTRAL"> F  </i>
   <i type="logical" name="LSPECTRALGW"> F  </i>
   <i type="logical" name="LSINGLES"> F  </i>
   <i type="logical" name="LFERMIGW"> F  </i>
   <i type="logical" name="ODDONLYGW"> F  </i>
   <i type="logical" name="EVENONLYGW"> F  </i>
   <i type="int" name="NKREDLFX">     1</i>
   <i type="int" name="NKREDLFY">     1</i>
   <i type="int" name="NKREDLFZ">     1</i>
   <i type="int" name="MAXMEM">  1800</i>
   <i type="int" name="TELESCOPE">     0</i>
   <i type="int" name="TAUPAR">     1</i>
   <i type="int" name="OMEGAPAR">    -1</i>
   <i name="LAMBDA">      1.00000000</i>
  </separator>
  <separator name="External order field" >
   <i name="OFIELD_KAPPA">      0.00000000</i>
   <v name="OFIELD_K">      0.00000000      0.00000000      0.00000000</v>
   <i name="OFIELD_Q6_NEAR">      0.00000000</i>
   <i name="OFIELD_Q6_FAR">      0.00000000</i>
   <i name="OFIELD_A">      0.00000000</i>
  </separator>
 </parameters>
 <atominfo>
  <atoms>      27 </atoms>
  <types>       4 </types>
  <array name="atoms" >
   <dimension dim="1">ion</dimension>
   <field type="string">element</field>
   <field type="int">atomtype</field>
   <set>
    <rc><c>V </c><c>   1</c></rc>
    <rc><c>V </c><c>   1</c></rc>
    <rc><c>V </c><c>   1</c></rc>
    <rc><c>Mo</c><c>   2</c></rc>
    <rc><c>Mo</c><c>   2</c></rc>
    <rc><c>Mo</c><c>   2</c></rc>
    <rc><c>W </c><c>   3</c></rc>
    <rc><c>W </c><c>   3</c></rc>
    <rc><c>W </c><c>   3</c></rc>
    <rc><c>S </c><c>   4</c></rc>
    <rc><c>S </c><c>   4</c></rc>
    <rc><c>S </c><c>   4</c></rc>
    <rc><c>S </c><c>   4</c></rc>
    <rc><c>S </c><c>   4</c></rc>
    <rc><c>S </c><c>   4</c></rc>
    <rc><c>S </c><c>   4</c></rc>
    <rc><c>S </c><c>   4</c></rc>
    <rc><c>S </c><c>   4</c></rc>
    <rc><c>S </c><c>   4</c></rc>
    <rc><c>S </c><c>   4</c></rc>
    <rc><c>S </c><c>   4</c></rc>
    <rc><c>S </c><c>   4</c></rc>
    <rc><c>S </c><c>   4</c></rc>
    <rc><c>S </c><c>   4</c></rc>
    <rc><c>S </c><c>   4</c></rc>
    <rc><c>S </c><c>   4</c></rc>
    <rc><c>S </c><c>   4</c></rc>
   </set>
  </array>
  <array name="atomtypes" >
   <dimension dim="1">type</dimension>
   <field type="int">atomspertype</field>
   <field type="string">element</field>
   <field>mass</field>
   <field>valence</field>
   <field type="string">pseudopotential</field>
   <set>
    <rc><c>   3</c><c>V </c><c>     50.94100000</c><c>      5.00000000</c><c> PAW_PBE V 08Apr2002                    </c></rc>
    <rc><c>   3</c><c>Mo</c><c>     95.94000000</c><c>      6.00000000</c><c> PAW_PBE Mo 08Apr2002                   </c></rc>
    <rc><c>   3</c><c>W </c><c>    183.85000000</c><c>      6.00000000</c><c> PAW_PBE W 08Apr2002                    </c></rc>
    <rc><c>  18</c><c>S </c><c>     32.06600000</c><c>      6.00000000</c><c>  PAW_PBE S 17Jan2003                   </c></rc>
   </set>
  </array>
 </atominfo>
 <structure name="initialpos" >
  <crystal>
   <varray name="basis" >
    <v>       8.66999996       5.03999989       0.00000000 </v>
    <v>      -8.66999982       5.04000013       0.00000000 </v>
    <v>       0.00000000       0.00000000      30.00000000 </v>
   </varray>
   <i name="volume">   2621.80797419 </i>
   <varray name="rec_basis" >
    <v>       0.05767013       0.09920635       0.00000000 </v>
    <v>      -0.05767013       0.09920635       0.00000000 </v>
    <v>       0.00000000       0.00000000       0.03333333 </v>
   </varray>
  </crystal>
  <varray name="positions" >
   <v>       0.00000000       0.66666669       0.00000000 </v>
   <v>       0.66666669       0.00000000       0.00000000 </v>
   <v>       0.33333334       0.00000000       0.00000000 </v>
   <v>       0.33333334       0.66666669       0.00000000 </v>
   <v>       0.66666669       0.33333334       0.00000000 </v>
   <v>       0.66666669       0.66666669       0.00000000 </v>
   <v>       0.00000000       0.00000000       0.00000000 </v>
   <v>       1.00000000       0.33333334       0.00000000 </v>
   <v>       0.33333334       0.33333334       0.00000000 </v>
   <v>       0.11068511       0.22244981       0.95539999 </v>
   <v>       0.22244981       0.11068511       0.04460000 </v>
   <v>       0.11068511       0.55578315       0.95539999 </v>
   <v>       0.22244981       0.44401845       0.04460000 </v>
   <v>       0.11068511       0.88911647       0.95539999 </v>
   <v>       0.22244981       0.77735180       0.04460000 </v>
   <v>       0.44401845       0.22244981       0.95539999 </v>
   <v>       0.55578315       0.11068511       0.04460000 </v>
   <v>       0.44401845       0.55578315       0.95539999 </v>
   <v>       0.55578315       0.44401845       0.04460000 </v>
   <v>       0.44401845       0.88911647       0.95539999 </v>
   <v>       0.55578315       0.77735180       0.04460000 </v>
   <v>       0.77735180       0.22244981       0.95539999 </v>
   <v>       0.88911647       0.11068511       0.04460000 </v>
   <v>       0.77735180       0.55578315       0.95539999 </v>
   <v>       0.88911647       0.44401845       0.04460000 </v>
   <v>       0.77735180       0.88911647       0.95539999 </v>
   <v>       0.88911647       0.77735180       0.04460000 </v>
  </varray>
 </structure>
 <calculation>
  <scstep>
   <time name="dav">   21.69   21.74</time>
   <time name="total">   21.73   21.79</time>
   <energy>
    <i name="alphaZ">     81.65567618 </i>
    <i name="ewald">  41890.23009645 </i>
    <i name="hartreedc"> -47722.87378575 </i>
    <i name="XCdc">   -242.92723530 </i>
    <i name="pawpsdc">   3467.42045192 </i>
    <i name="pawaedc">  -2871.19716117 </i>
    <i name="eentropy">     -0.52893612 </i>
    <i name="bandstr">   -239.53905220 </i>
    <i name="atom">   6761.44252427 </i>
    <i name="e_fr_energy">   1123.68257828 </i>
    <i name="e_wo_entrp">   1124.21151440 </i>
    <i name="e_0_energy">   1123.94704634 </i>
   </energy>
  </scstep>
  <scstep>
   <time name="dav">   28.42   28.49</time>
   <time name="total">   28.42   28.49</time>
   <energy>
    <i name="e_fr_energy">     -3.38912039 </i>
    <i name="e_wo_entrp">     -3.18703800 </i>
    <i name="e_0_energy">     -3.28807920 </i>
   </energy>
  </scstep>
  <scstep>
   <time name="dav">   27.49   27.56</time>
   <time name="total">   27.49   27.57</time>
   <energy>
    <i name="e_fr_energy">   -199.95962541 </i>
    <i name="e_wo_entrp">   -199.67919499 </i>
    <i name="e_0_energy">   -199.81941020 </i>
   </energy>
  </scstep>
  <scstep>
   <time name="dav">   30.41   30.49</time>
   <time name="total">   30.42   30.50</time>
   <energy>
    <i name="e_fr_energy">   -209.01395800 </i>
    <i name="e_wo_entrp">   -208.70564772 </i>
    <i name="e_0_energy">   -208.85980286 </i>
   </energy>
  </scstep>
  <scstep>
   <time name="dav">   28.14   28.21</time>
   <time name="total">   28.61   28.68</time>
   <energy>
    <i name="e_fr_energy">   -209.30777663 </i>
    <i name="e_wo_entrp">   -209.00203648 </i>
    <i name="e_0_energy">   -209.15490655 </i>
   </energy>
  </scstep>
  <scstep>
   <time name="dav">   31.03   31.10</time>
   <time name="total">   31.53   31.61</time>
   <energy>
    <i name="e_fr_energy">   -236.79066478 </i>
    <i name="e_wo_entrp">   -236.50847765 </i>
    <i name="e_0_energy">   -236.64957122 </i>
   </energy>
  </scstep>
  <scstep>
   <time name="dav">   32.35   32.43</time>
   <time name="total">   32.86   32.95</time>
   <energy>
    <i name="e_fr_energy">   -196.50701366 </i>
    <i name="e_wo_entrp">   -196.19087285 </i>
    <i name="e_0_energy">   -196.34894326 </i>
   </energy>
  </scstep>
  <scstep>
   <time name="dav">   29.84   29.91</time>
   <time name="total">   30.35   30.43</time>
   <energy>
    <i name="e_fr_energy">   -189.48378830 </i>
    <i name="e_wo_entrp">   -189.19433182 </i>
    <i name="e_0_energy">   -189.33906006 </i>
   </energy>
  </scstep>
  <scstep>
   <time name="dav">   30.88   30.95</time>
   <time name="total">   31.40   31.49</time>
   <energy>
    <i name="e_fr_energy">   -188.16867278 </i>
    <i name="e_wo_entrp">   -187.82835305 </i>
    <i name="e_0_energy">   -187.99851291 </i>
   </energy>
  </scstep>
  <scstep>
   <time name="dav">   32.93   33.01</time>
   <time name="total">   33.47   33.56</time>
   <energy>
    <i name="e_fr_energy">   -187.03370933 </i>
    <i name="e_wo_entrp">   -186.68724586 </i>
    <i name="e_0_energy">   -186.86047759 </i>
   </energy>
  </scstep>
  <scstep>
   <time name="dav">   30.46   30.53</time>
   <time name="total">   30.99   31.08</time>
   <energy>
    <i name="e_fr_energy">   -186.94248591 </i>
    <i name="e_wo_entrp">   -186.59139576 </i>
    <i name="e_0_energy">   -186.76694083 </i>
   </energy>
  </scstep>
  <scstep>
   <time name="dav">   31.25   31.32</time>
   <time name="total">   31.78   31.86</time>
   <energy>
    <i name="e_fr_energy">   -187.04728706 </i>
    <i name="e_wo_entrp">   -186.71023556 </i>
    <i name="e_0_energy">   -186.87876131 </i>
   </energy>
  </scstep>
  <scstep>
   <time name="dav">   31.20   31.27</time>
   <time name="total">   31.74   31.82</time>
   <energy>
    <i name="e_fr_energy">   -186.88134832 </i>
    <i name="e_wo_entrp">   -186.54280279 </i>
    <i name="e_0_energy">   -186.71207555 </i>
   </energy>
  </scstep>
  <scstep>
   <time name="dav">   32.51   32.58</time>
   <time name="total">   33.04   33.13</time>
   <energy>
    <i name="e_fr_energy">   -186.84574316 </i>
    <i name="e_wo_entrp">   -186.50049921 </i>
    <i name="e_0_energy">   -186.67312118 </i>
   </energy>
  </scstep>
  <scstep>
   <time name="dav">   29.92   29.99</time>
   <time name="total">   30.46   30.54</time>
   <energy>
    <i name="e_fr_energy">   -186.84000990 </i>
    <i name="e_wo_entrp">   -186.49302843 </i>
    <i name="e_0_energy">   -186.66651916 </i>
   </energy>
  </scstep>
  <scstep>
   <time name="dav">   31.04   31.11</time>
   <time name="total">   31.58   31.66</time>
   <energy>
    <i name="e_fr_energy">   -186.82974216 </i>
    <i name="e_wo_entrp">   -186.48257830 </i>
    <i name="e_0_energy">   -186.65616023 </i>
   </energy>
  </scstep>
  <scstep>
   <time name="dav">   31.20   31.27</time>
   <time name="total">   31.74   31.82</time>
   <energy>
    <i name="e_fr_energy">   -186.82762804 </i>
    <i name="e_wo_entrp">   -186.48238042 </i>
    <i name="e_0_energy">   -186.65500423 </i>
   </energy>
  </scstep>
  <scstep>
   <time name="dav">   29.30   29.37</time>
   <time name="total">   29.84   29.91</time>
   <energy>
    <i name="e_fr_energy">   -186.82728305 </i>
    <i name="e_wo_entrp">   -186.48193275 </i>
    <i name="e_0_energy">   -186.65460790 </i>
   </energy>
  </scstep>
  <scstep>
   <time name="dav">   25.62   25.68</time>
   <time name="total">   26.16   26.23</time>
   <energy>
    <i name="e_fr_energy">   -186.82692952 </i>
    <i name="e_wo_entrp">   -186.48119810 </i>
    <i name="e_0_energy">   -186.65406381 </i>
   </energy>
  </scstep>
  <scstep>
   <time name="dav">   24.13   24.19</time>
   <time name="total">   24.67   24.74</time>
   <energy>
    <i name="e_fr_energy">   -186.82751986 </i>
    <i name="e_wo_entrp">   -186.48184278 </i>
    <i name="e_0_energy">   -186.65468132 </i>
   </energy>
  </scstep>
  <scstep>
   <time name="dav">   23.40   23.45</time>
   <time name="total">   23.93   24.00</time>
   <energy>
    <i name="e_fr_energy">   -186.82817877 </i>
    <i name="e_wo_entrp">   -186.48276653 </i>
    <i name="e_0_energy">   -186.65547265 </i>
   </energy>
  </scstep>
  <scstep>
   <time name="dav">   20.51   20.56</time>
   <time name="total">   21.05   21.11</time>
   <energy>
    <i name="e_fr_energy">   -186.82936166 </i>
    <i name="e_wo_entrp">   -186.48380186 </i>
    <i name="e_0_energy">   -186.65658176 </i>
   </energy>
  </scstep>
  <scstep>
   <time name="dav">   20.32   20.37</time>
   <time name="total">   20.86   20.92</time>
   <energy>
    <i name="e_fr_energy">   -186.83062453 </i>
    <i name="e_wo_entrp">   -186.48517346 </i>
    <i name="e_0_energy">   -186.65789899 </i>
   </energy>
  </scstep>
  <scstep>
   <time name="dav">   18.67   18.71</time>
   <time name="total">   19.21   19.26</time>
   <energy>
    <i name="e_fr_energy">   -186.83122236 </i>
    <i name="e_wo_entrp">   -186.48575956 </i>
    <i name="e_0_energy">   -186.65849096 </i>
   </energy>
  </scstep>
  <scstep>
   <time name="dav">   16.62   16.66</time>
   <time name="total">   17.16   17.21</time>
   <energy>
    <i name="e_fr_energy">   -186.83160774 </i>
    <i name="e_wo_entrp">   -186.48609904 </i>
    <i name="e_0_energy">   -186.65885339 </i>
   </energy>
  </scstep>
  <scstep>
   <time name="dav">   19.08   19.13</time>
   <time name="total">   19.62   19.68</time>
   <energy>
    <i name="e_fr_energy">   -186.83182519 </i>
    <i name="e_wo_entrp">   -186.48633179 </i>
    <i name="e_0_energy">   -186.65907849 </i>
   </energy>
  </scstep>
  <scstep>
   <time name="dav">   19.18   19.22</time>
   <time name="total">   19.72   19.77</time>
   <energy>
    <i name="e_fr_energy">   -186.83193260 </i>
    <i name="e_wo_entrp">   -186.48644236 </i>
    <i name="e_0_energy">   -186.65918748 </i>
   </energy>
  </scstep>
  <scstep>
   <time name="dav">   20.08   20.13</time>
   <time name="total">   20.11   20.17</time>
   <energy>
    <i name="alphaZ">     81.65567618 </i>
    <i name="ewald">  41890.23009645 </i>
    <i name="hartreedc"> -47832.88104001 </i>
    <i name="XCdc">   -231.61131567 </i>
    <i name="pawpsdc">   4192.03470345 </i>
    <i name="pawaedc">  -3610.03768577 </i>
    <i name="eentropy">     -0.34548874 </i>
    <i name="bandstr">  -1437.31944801 </i>
    <i name="atom">   6761.44252427 </i>
    <i name="e_fr_energy">   -186.83197785 </i>
    <i name="e_wo_entrp">   -186.48648912 </i>
    <i name="e_0_energy">   -186.65923349 </i>
   </energy>
  </scstep>
  <structure>
   <crystal>
    <varray name="basis" >
     <v>       8.66999996       5.03999989       0.00000000 </v>
     <v>      -8.66999982       5.04000013       0.00000000 </v>
     <v>       0.00000000       0.00000000      30.00000000 </v>
    </varray>
    <i name="volume">   2621.80797419 </i>
    <varray name="rec_basis" >
     <v>       0.05767013       0.09920635       0.00000000 </v>
     <v>      -0.05767013       0.09920635       0.00000000 </v>
     <v>       0.00000000       0.00000000       0.03333333 </v>
    </varray>
   </crystal>
   <varray name="positions" >
    <v>       0.00000000       0.66666669       0.00000000 </v>
    <v>       0.66666669       0.00000000       0.00000000 </v>
    <v>       0.33333334       0.00000000       0.00000000 </v>
    <v>       0.33333334       0.66666669       0.00000000 </v>
    <v>       0.66666669       0.33333334       0.00000000 </v>
    <v>       0.66666669       0.66666669       0.00000000 </v>
    <v>       0.00000000       0.00000000       0.00000000 </v>
    <v>       1.00000000       0.33333334       0.00000000 </v>
    <v>       0.33333334       0.33333334       0.00000000 </v>
    <v>       0.11068511       0.22244981       0.95539999 </v>
    <v>       0.22244981       0.11068511       0.04460000 </v>
    <v>       0.11068511       0.55578315       0.95539999 </v>
    <v>       0.22244981       0.44401845       0.04460000 </v>
    <v>       0.11068511       0.88911647       0.95539999 </v>
    <v>       0.22244981       0.77735180       0.04460000 </v>
    <v>       0.44401845       0.22244981       0.95539999 </v>
    <v>       0.55578315       0.11068511       0.04460000 </v>
    <v>       0.44401845       0.55578315       0.95539999 </v>
    <v>       0.55578315       0.44401845       0.04460000 </v>
    <v>       0.44401845       0.88911647       0.95539999 </v>
    <v>       0.55578315       0.77735180       0.04460000 </v>
    <v>       0.77735180       0.22244981       0.95539999 </v>
    <v>       0.88911647       0.11068511       0.04460000 </v>
    <v>       0.77735180       0.55578315       0.95539999 </v>
    <v>       0.88911647       0.44401845       0.04460000 </v>
    <v>       0.77735180       0.88911647       0.95539999 </v>
    <v>       0.88911647       0.77735180       0.04460000 </v>
   </varray>
  </structure>
  <varray name="forces" >
   <v>       0.00511669      -0.15146798      -0.08120088 </v>
   <v>      -0.07423575      -0.26650641       0.10293498 </v>
   <v>       0.29935288       0.07339933       0.03454129 </v>
   <v>       0.18249609       0.16326425       0.07426586 </v>
   <v>      -0.23960575       0.12647272      -0.02206096 </v>
   <v>       0.00378482      -0.28928586      -0.12084528 </v>
   <v>       0.07628788      -0.34982628      -0.04274538 </v>
   <v>      -0.34704314       0.12616129       0.08621247 </v>
   <v>       0.05311355       0.63341914      -0.02081813 </v>
   <v>       0.16266470       0.01662579      -2.86476045 </v>
   <v>       0.57832875       0.00565154       2.08534063 </v>
   <v>      -0.69043732      -0.14199438      -2.13659862 </v>
   <v>      -0.04443486      -0.17005106       2.91026667 </v>
   <v>       0.74119928      -0.02410886      -1.48542495 </v>
   <v>      -0.88808632       0.00210538       1.43203773 </v>
   <v>       0.36054961      -0.70771852      -2.15292994 </v>
   <v>       0.34519938      -0.67587909       1.42770787 </v>
   <v>       0.21675716      -0.14558830      -2.94915715 </v>
   <v>      -0.19597336      -0.17536823       2.93009911 </v>
   <v>      -0.32546273       0.66586713      -1.43937201 </v>
   <v>      -0.55032480       0.71402152       2.15415218 </v>
   <v>       0.61555061      -0.55690745      -2.11614920 </v>
   <v>      -0.47802249      -0.58318999       2.19689204 </v>
   <v>       0.52380074       0.71454194      -2.17063606 </v>
   <v>      -0.34575041       0.69186193       2.17507615 </v>
   <v>      -0.64588344       0.14634451      -2.10239536 </v>
   <v>       0.66105824       0.15815595       2.09556740 </v>
  </varray>
  <varray name="stress" >
   <v>       7.30344720      -0.04625600      -1.53144452 </v>
   <v>      -0.04625587       4.43663489       0.00022764 </v>
   <v>      -1.53144454       0.00022761      30.32784958 </v>
  </varray>
  <energy>
   <i name="e_fr_energy">   -186.83197785 </i>
   <i name="e_wo_entrp">   -186.65923349 </i>
   <i name="e_0_energy">     -0.34548874 </i>
  </energy>
  <time name="totalsc">  801.69  803.85</time>
 </calculation>
 <calculation>
  <scstep>
   <time name="dav">   21.68   21.73</time>
   <time name="total">   22.22   22.27</time>
   <energy>
    <i name="alphaZ">     78.92461300 </i>
    <i name="ewald">  39380.89133937 </i>
    <i name="hartreedc"> -45338.34634165 </i>
    <i name="XCdc">   -239.07002161 </i>
    <i name="pawpsdc">   4192.03604374 </i>
    <i name="pawaedc">  -3610.03901871 </i>
    <i name="eentropy">     -0.28725139 </i>
    <i name="bandstr">  -1413.01625390 </i>
    <i name="atom">   6761.44252427 </i>
    <i name="e_fr_energy">   -187.46436687 </i>
    <i name="e_wo_entrp">   -187.17711548 </i>
    <i name="e_0_energy">   -187.32074118 </i>
   </energy>
  </scstep>
  <scstep>
   <time name="dav">   30.19   30.26</time>
   <time name="total">   30.72   30.80</time>
   <energy>
    <i name="e_fr_energy">   -189.36149387 </i>
    <i name="e_wo_entrp">   -189.04080061 </i>
    <i name="e_0_energy">   -189.20114724 </i>
   </energy>
  </scstep>
  <scstep>
   <time name="dav">   30.64   30.71</time>
   <time name="total">   31.19   31.27</time>
   <energy>
    <i name="e_fr_energy">   -189.34355700 </i>
    <i name="e_wo_entrp">   -189.06294297 </i>
    <i name="e_0_energy">   -189.20324999 </i>
   </energy>
  </scstep>
  <scstep>
   <time name="dav">   31.07   31.14</time>
   <time name="total">   31.61   31.70</time>
   <energy>
    <i name="e_fr_energy">   -188.73953070 </i>
    <i name="e_wo_entrp">   -188.45367453 </i>
    <i name="e_0_energy">   -188.59660262 </i>
   </energy>
  </scstep>
  <scstep>
   <time name="dav">   27.77   27.83</time>
   <time name="total">   28.31   28.39</time>
   <energy>
    <i name="e_fr_energy">   -188.74500675 </i>
    <i name="e_wo_entrp">   -188.45613403 </i>
    <i name="e_0_energy">   -188.60057039 </i>
   </energy>
  </scstep>
  <scstep>
   <time name="dav">   28.11   28.18</time>
   <time name="total">   28.66   28.73</time>
   <energy>
    <i name="e_fr_energy">   -188.67148811 </i>
    <i name="e_wo_entrp">   -188.38484624 </i>
    <i name="e_0_energy">   -188.52816718 </i>
   </energy>
  </scstep>
  <scstep>
   <time name="dav">   30.09   30.16</time>
   <time name="total">   30.64   30.72</time>
   <energy>
    <i name="e_fr_energy">   -188.68903765 </i>
    <i name="e_wo_entrp">   -188.40208335 </i>
    <i name="e_0_energy">   -188.54556050 </i>
   </energy>
  </scstep>
  <scstep>
   <time name="dav">   31.98   32.06</time>
   <time name="total">   32.53   32.61</time>
   <energy>
    <i name="e_fr_energy">   -188.64741556 </i>
    <i name="e_wo_entrp">   -188.36222007 </i>
    <i name="e_0_energy">   -188.50481781 </i>
   </energy>
  </scstep>
  <scstep>
   <time name="dav">   27.93   28.00</time>
   <time name="total">   28.48   28.55</time>
   <energy>
    <i name="e_fr_energy">   -188.64437296 </i>
    <i name="e_wo_entrp">   -188.35913443 </i>
    <i name="e_0_energy">   -188.50175369 </i>
   </energy>
  </scstep>
  <scstep>
   <time name="dav">   32.99   33.07</time>
   <time name="total">   33.53   33.62</time>
   <energy>
    <i name="e_fr_energy">   -188.64413938 </i>
    <i name="e_wo_entrp">   -188.35849508 </i>
    <i name="e_0_energy">   -188.50131723 </i>
   </energy>
  </scstep>
  <scstep>
   <time name="dav">   31.63   31.70</time>
   <time name="total">   32.17   32.26</time>
   <energy>
    <i name="e_fr_energy">   -188.64315747 </i>
    <i name="e_wo_entrp">   -188.35867497 </i>
    <i name="e_0_energy">   -188.50091622 </i>
   </energy>
  </scstep>
  <scstep>
   <time name="dav">   30.28   30.35</time>
   <time name="total">   30.82   30.90</time>
   <energy>
    <i name="e_fr_energy">   -188.64320216 </i>
    <i name="e_wo_entrp">   -188.35853302 </i>
    <i name="e_0_energy">   -188.50086759 </i>
   </energy>
  </scstep>
  <scstep>
   <time name="dav">   20.75   20.80</time>
   <time name="total">   20.79   20.85</time>
   <energy>
    <i name="alphaZ">     78.92461300 </i>
    <i name="ewald">  39380.89133937 </i>
    <i name="hartreedc"> -45349.19854005 </i>
    <i name="XCdc">   -237.97950565 </i>
    <i name="pawpsdc">   3950.38361451 </i>
    <i name="pawaedc">  -3364.88800807 </i>
    <i name="eentropy">     -0.28470361 </i>
    <i name="bandstr">  -1407.93444553 </i>
    <i name="atom">   6761.44252427 </i>
    <i name="e_fr_energy">   -188.64311176 </i>
    <i name="e_wo_entrp">   -188.35840815 </i>
    <i name="e_0_energy">   -188.50075995 </i>
   </energy>
  </scstep>
  <structure>
   <crystal>
    <varray name="basis" >
     <v>       8.85446022       5.10420686       0.00000000 </v>
     <v>      -8.85582336       5.10655228       0.00000000 </v>
     <v>       0.00000000       0.00000000      30.00000000 </v>
    </varray>
    <i name="volume">   2712.53155131 </i>
    <varray name="rec_basis" >
     <v>       0.05647734       0.09794345       0.00000000 </v>
     <v>      -0.05645140       0.09792837       0.00000000 </v>
     <v>       0.00000000       0.00000000       0.03333333 </v>
    </varray>
   </crystal>
   <varray name="positions" >
    <v>      -0.00071069       0.66592753      -0.00013058 </v>
    <v>       0.66518466      -0.00106896       0.00016553 </v>
    <v>       0.33451748      -0.00048156       0.00005555 </v>
    <v>       0.33462246       0.66694033       0.00011943 </v>
    <v>       0.66660536       0.33460526      -0.00003548 </v>
    <v>       0.66529270       0.66527164      -0.00019433 </v>
    <v>      -0.00146202      -0.00188651      -0.00006874 </v>
    <v>       0.99963828       0.33490268       0.00013864 </v>
    <v>       0.33651264       0.33621710      -0.00003348 </v>
    <v>       0.11121724       0.22207682       0.95079320 </v>
    <v>       0.22408586       0.10910316       0.04795341 </v>
    <v>       0.10808462       0.55702448       0.95196415 </v>
    <v>       0.22151232       0.44332822       0.04927997 </v>
    <v>       0.11263186       0.88693895       0.95301130 </v>
    <v>       0.21998909       0.77983267       0.04690284 </v>
    <v>       0.44163444       0.21805958       0.95193789 </v>
    <v>       0.55350881       0.10648997       0.04689588 </v>
    <v>       0.44392472       0.55448332       0.95065748 </v>
    <v>       0.55439861       0.44372437       0.04931186 </v>
    <v>       0.44629979       0.89320878       0.95308535 </v>
    <v>       0.55766935       0.78230018       0.04806407 </v>
    <v>       0.77639901       0.21807190       0.95199703 </v>
    <v>       0.88499540       0.10922391       0.04813280 </v>
    <v>       0.78222888       0.55774564       0.95190942 </v>
    <v>       0.89146577       0.44829162       0.04809771 </v>
    <v>       0.77625525       0.89161382       0.95201915 </v>
    <v>       0.89171257       0.77626956       0.04796986 </v>
   </varray>
  </structure>
  <varray name="forces" >
   <v>       0.00557380      -0.16132488      -0.02628456 </v>
   <v>      -0.00213413      -0.16193323       0.04785374 </v>
   <v>       0.19067622       0.05818964       0.09863055 </v>
   <v>       0.44754066      -0.04385910       0.09006822 </v>
   <v>      -0.34479047       0.15772397      -0.08498423 </v>
   <v>       0.00895033      -0.48689122      -0.03107607 </v>
   <v>      -0.04709789      -0.25516845      -0.00040014 </v>
   <v>      -0.16962648       0.12097246      -0.07029777 </v>
   <v>      -0.05479787       0.71502922      -0.00975844 </v>
   <v>      -0.01226270       0.01164952       0.25697272 </v>
   <v>      -0.10177138      -0.00636002      -0.23793109 </v>
   <v>       0.00635456      -0.09249475       0.00976528 </v>
   <v>       0.09174157      -0.12245756       0.03211120 </v>
   <v>      -0.09256644      -0.01561802       0.12361017 </v>
   <v>      -0.03326335       0.00834857      -0.16441313 </v>
   <v>      -0.10274275      -0.05923640       0.03546360 </v>
   <v>       0.00607120      -0.04407705      -0.05119137 </v>
   <v>       0.05648977      -0.09167048      -0.28000885 </v>
   <v>      -0.06050681      -0.09357119       0.23653681 </v>
   <v>      -0.00661387       0.03869983       0.00637329 </v>
   <v>      -0.02457885       0.07823043       0.08464023 </v>
   <v>       0.08154432       0.05059476       0.14405807 </v>
   <v>       0.04195477       0.04345862      -0.10020568 </v>
   <v>       0.02689183       0.07742624      -0.12434526 </v>
   <v>       0.09403647       0.06853694       0.05744407 </v>
   <v>       0.01706899       0.09951215       0.00077231 </v>
   <v>      -0.02214153       0.10629000      -0.04340367 </v>
  </varray>
  <varray name="stress" >
   <v>     -19.88675333       0.00896904       0.01252444 </v>
   <v>       0.00896902     -19.47185804       0.01997299 </v>
   <v>       0.01252459       0.01997306      -1.74905607 </v>
  </varray>
  <energy>
   <i name="e_fr_energy">   -188.64311176 </i>
   <i name="e_wo_entrp">   -188.50075995 </i>
   <i name="e_0_energy">     -0.28470361 </i>
  </energy>
  <time name="totalsc">  423.49  424.61</time>
 </calculation>
 <calculation>
  <scstep>
   <time name="dav">   23.89   23.95</time>
   <time name="total">   24.43   24.49</time>
   <energy>
    <i name="alphaZ">     82.35043712 </i>
    <i name="ewald">  41305.09867613 </i>
    <i name="hartreedc"> -47303.97364358 </i>
    <i name="XCdc">   -233.85502770 </i>
    <i name="pawpsdc">   3949.82660744 </i>
    <i name="pawaedc">  -3364.32618104 </i>
    <i name="eentropy">     -0.23748889 </i>
    <i name="bandstr">  -1386.88885351 </i>
    <i name="atom">   6761.44252427 </i>
    <i name="e_fr_energy">   -190.56294976 </i>
    <i name="e_wo_entrp">   -190.32546087 </i>
    <i name="e_0_energy">   -190.44420531 </i>
   </energy>
  </scstep>
  <scstep>
   <time name="dav">   28.38   28.45</time>
   <time name="total">   28.90   28.98</time>
   <energy>
    <i name="e_fr_energy">   -190.55040438 </i>
    <i name="e_wo_entrp">   -190.30770942 </i>
    <i name="e_0_energy">   -190.42905690 </i>
   </energy>
  </scstep>
  <scstep>
   <time name="dav">   30.39   30.46</time>
   <time name="total">   30.91   31.00</time>
   <energy>
    <i name="e_fr_energy">   -190.03730014 </i>
    <i name="e_wo_entrp">   -189.78873104 </i>
    <i name="e_0_energy">   -189.91301559 </i>
   </energy>
  </scstep>
  <scstep>
   <time name="dav">   31.15   31.22</time>
   <time name="total">   31.69   31.78</time>
   <energy>
    <i name="e_fr_energy">   -189.83187288 </i>
    <i name="e_wo_entrp">   -189.59193899 </i>
    <i name="e_0_energy">   -189.71190594 </i>
   </energy>
  </scstep>
  <scstep>
   <time name="dav">   28.86   28.93</time>
   <time name="total">   29.40   29.48</time>
   <energy>
    <i name="e_fr_energy">   -189.74432302 </i>
    <i name="e_wo_entrp">   -189.50248678 </i>
    <i name="e_0_energy">   -189.62340490 </i>
   </energy>
  </scstep>
  <scstep>
   <time name="dav">   26.74   26.80</time>
   <time name="total">   27.27   27.35</time>
   <energy>
    <i name="e_fr_energy">   -189.72932691 </i>
    <i name="e_wo_entrp">   -189.48829888 </i>
    <i name="e_0_energy">   -189.60881290 </i>
   </energy>
  </scstep>
  <scstep>
   <time name="dav">   30.12   30.19</time>
   <time name="total">   30.65   30.74</time>
   <energy>
    <i name="e_fr_energy">   -189.73058705 </i>
    <i name="e_wo_entrp">   -189.48921123 </i>
    <i name="e_0_energy">   -189.60989914 </i>
   </energy>
  </scstep>
  <scstep>
   <time name="dav">   28.69   28.76</time>
   <time name="total">   29.23   29.30</time>
   <energy>
    <i name="e_fr_energy">   -189.72986598 </i>
    <i name="e_wo_entrp">   -189.48907088 </i>
    <i name="e_0_energy">   -189.60946843 </i>
   </energy>
  </scstep>
  <scstep>
   <time name="dav">   25.64   25.70</time>
   <time name="total">   26.17   26.24</time>
   <energy>
    <i name="e_fr_energy">   -189.72984106 </i>
    <i name="e_wo_entrp">   -189.48865979 </i>
    <i name="e_0_energy">   -189.60925042 </i>
   </energy>
  </scstep>
  <scstep>
   <time name="dav">   24.80   24.86</time>
   <time name="total">   24.84   24.91</time>
   <energy>
    <i name="alphaZ">     82.35043712 </i>
    <i name="ewald">  41305.09867613 </i>
    <i name="hartreedc"> -47277.04939445 </i>
    <i name="XCdc">   -235.24360357 </i>
    <i name="pawpsdc">   4037.20153759 </i>
    <i name="pawaedc">  -3452.89133040 </i>
    <i name="eentropy">     -0.24107509 </i>
    <i name="bandstr">  -1410.39756083 </i>
    <i name="atom">   6761.44252427 </i>
    <i name="e_fr_energy">   -189.72978923 </i>
    <i name="e_wo_entrp">   -189.48871414 </i>
    <i name="e_0_energy">   -189.60925169 </i>
   </energy>
  </scstep>
  <structure>
   <crystal>
    <varray name="basis" >
     <v>       8.66641566       4.99812620       0.00000000 </v>
     <v>      -8.66765201       5.00025315       0.00000000 </v>
     <v>       0.00000000       0.00000000      30.00000000 </v>
    </varray>
    <i name="volume">   2599.68872553 </i>
    <varray name="rec_basis" >
     <v>       0.05770214       0.10002334       0.00000000 </v>
     <v>      -0.05767759       0.10000908       0.00000000 </v>
     <v>       0.00000000       0.00000000       0.03333333 </v>
    </varray>
   </crystal>
   <varray name="positions" >
    <v>      -0.00097449       0.66565304      -0.00014550 </v>
    <v>       0.66491242      -0.00133705       0.00019270 </v>
    <v>       0.33479802      -0.00056785       0.00011155 </v>
    <v>       0.33497986       0.66643678       0.00017057 </v>
    <v>       0.66653680       0.33519995      -0.00008373 </v>
    <v>       0.66448894       0.66445079      -0.00021198 </v>
    <v>      -0.00193307      -0.00226689      -0.00006897 </v>
    <v>       0.99967692       0.33526761       0.00009872 </v>
    <v>       0.33765294       0.33746263      -0.00003902 </v>
    <v>       0.11122488       0.22210805       0.95093912 </v>
    <v>       0.22397733       0.10919041       0.04781830 </v>
    <v>       0.10793641       0.55686406       0.95196970 </v>
    <v>       0.22139627       0.44303571       0.04929820 </v>
    <v>       0.11251674       0.88700191       0.95308149 </v>
    <v>       0.21997101       0.77987859       0.04680948 </v>
    <v>       0.44143675       0.21805956       0.95195803 </v>
    <v>       0.55344111       0.10641060       0.04686681 </v>
    <v>       0.44382612       0.55427607       0.95049848 </v>
    <v>       0.55418428       0.44362646       0.04944617 </v>
    <v>       0.44635800       0.89327970       0.95308897 </v>
    <v>       0.55777623       0.78245432       0.04811213 </v>
    <v>       0.77656188       0.21807789       0.95207884 </v>
    <v>       0.88510827       0.10925606       0.04807589 </v>
    <v>       0.78238393       0.55784894       0.95183881 </v>
    <v>       0.89167059       0.44831553       0.04813033 </v>
    <v>       0.77643770       0.89176341       0.95201959 </v>
    <v>       0.89186861       0.77646817       0.04794521 </v>
   </varray>
  </structure>
  <varray name="forces" >
   <v>       0.01064236      -0.18589845      -0.00530678 </v>
   <v>       0.04221666      -0.11005092       0.02241664 </v>
   <v>       0.14521679       0.05257754       0.09180539 </v>
   <v>       0.52533175      -0.11428702       0.06717835 </v>
   <v>      -0.37143401       0.17762518      -0.07511496 </v>
   <v>       0.00664589      -0.53911088      -0.00327874 </v>
   <v>      -0.08780910      -0.22961015       0.01370410 </v>
   <v>      -0.11638536       0.12337678      -0.08665065 </v>
   <v>      -0.10244444       0.72389557      -0.00326779 </v>
   <v>      -0.00207566       0.02521782      -0.27236405 </v>
   <v>       0.03108894       0.01033887       0.23748788 </v>
   <v>      -0.10476724       0.00055367      -0.48926962 </v>
   <v>       0.06091542      -0.06356924       0.60007119 </v>
   <v>       0.07713299      -0.01035233      -0.34262708 </v>
   <v>      -0.10049235       0.00047422       0.27077503 </v>
   <v>       0.01444447      -0.12469209      -0.46286653 </v>
   <v>       0.03158064      -0.08585245       0.39348028 </v>
   <v>       0.00727101      -0.01130222      -0.87247219 </v>
   <v>      -0.01456224      -0.00797188       0.81428650 </v>
   <v>      -0.03522762       0.08950387      -0.43687919 </v>
   <v>      -0.04390876       0.14243143       0.58153108 </v>
   <v>       0.06828025      -0.08583304      -0.34015084 </v>
   <v>      -0.04456406      -0.07656993       0.41117830 </v>
   <v>       0.05472965       0.14934859      -0.62789159 </v>
   <v>      -0.04027413       0.12875237       0.56583948 </v>
   <v>      -0.09854708       0.00656023      -0.50133281 </v>
   <v>       0.08699524       0.01444446       0.44971860 </v>
  </varray>
  <varray name="stress" >
   <v>     -10.14464148       0.00624309      -0.00639723 </v>
   <v>       0.00624320      -9.83026128       0.02430505 </v>
   <v>      -0.00639723       0.02430499       6.59224974 </v>
  </varray>
  <energy>
   <i name="e_fr_energy">   -189.72978923 </i>
   <i name="e_wo_entrp">   -189.60925169 </i>
   <i name="e_0_energy">     -0.24107509 </i>
  </energy>
  <time name="totalsc">  325.16  326.03</time>
 </calculation>
 <calculation>
  <scstep>
   <time name="dav">   21.65   21.70</time>
   <time name="total">   22.17   22.22</time>
   <energy>
    <i name="alphaZ">     85.83243428 </i>
    <i name="ewald">  42837.80236930 </i>
    <i name="hartreedc"> -48854.29183419 </i>
    <i name="XCdc">   -232.95656522 </i>
    <i name="pawpsdc">   4038.10258955 </i>
    <i name="pawaedc">  -3453.79958973 </i>
    <i name="eentropy">     -0.20222671 </i>
    <i name="bandstr">  -1373.22145055 </i>
    <i name="atom">   6761.44252427 </i>
    <i name="e_fr_energy">   -191.29174900 </i>
    <i name="e_wo_entrp">   -191.08952229 </i>
    <i name="e_0_energy">   -191.19063564 </i>
   </energy>
  </scstep>
  <scstep>
   <time name="dav">   32.02   32.10</time>
   <time name="total">   32.53   32.62</time>
   <energy>
    <i name="e_fr_energy">   -191.19072299 </i>
    <i name="e_wo_entrp">   -190.98034515 </i>
    <i name="e_0_energy">   -191.08553407 </i>
   </energy>
  </scstep>
  <scstep>
   <time name="dav">   29.93   30.00</time>
   <time name="total">   30.44   30.52</time>
   <energy>
    <i name="e_fr_energy">   -191.19711913 </i>
    <i name="e_wo_entrp">   -190.97973518 </i>
    <i name="e_0_energy">   -191.08842716 </i>
   </energy>
  </scstep>
  <scstep>
   <time name="dav">   31.53   31.60</time>
   <time name="total">   32.05   32.13</time>
   <energy>
    <i name="e_fr_energy">   -190.86111479 </i>
    <i name="e_wo_entrp">   -190.64968214 </i>
    <i name="e_0_energy">   -190.75539847 </i>
   </energy>
  </scstep>
  <scstep>
   <time name="dav">   29.44   29.51</time>
   <time name="total">   29.96   30.04</time>
   <energy>
    <i name="e_fr_energy">   -190.84696727 </i>
    <i name="e_wo_entrp">   -190.64180779 </i>
    <i name="e_0_energy">   -190.74438753 </i>
   </energy>
  </scstep>
  <scstep>
   <time name="dav">   30.12   30.19</time>
   <time name="total">   30.64   30.72</time>
   <energy>
    <i name="e_fr_energy">   -190.71200202 </i>
    <i name="e_wo_entrp">   -190.50162441 </i>
    <i name="e_0_energy">   -190.60681321 </i>
   </energy>
  </scstep>
  <scstep>
   <time name="dav">   30.38   30.45</time>
   <time name="total">   30.90   30.98</time>
   <energy>
    <i name="e_fr_energy">   -190.70323049 </i>
    <i name="e_wo_entrp">   -190.49443258 </i>
    <i name="e_0_energy">   -190.59883154 </i>
   </energy>
  </scstep>
  <scstep>
   <time name="dav">   28.32   28.39</time>
   <time name="total">   28.84   28.92</time>
   <energy>
    <i name="e_fr_energy">   -190.70260623 </i>
    <i name="e_wo_entrp">   -190.49393752 </i>
    <i name="e_0_energy">   -190.59827188 </i>
   </energy>
  </scstep>
  <scstep>
   <time name="dav">   28.52   28.59</time>
   <time name="total">   29.04   29.11</time>
   <energy>
    <i name="e_fr_energy">   -190.69994645 </i>
    <i name="e_wo_entrp">   -190.49102683 </i>
    <i name="e_0_energy">   -190.59548664 </i>
   </energy>
  </scstep>
  <scstep>
   <time name="dav">   26.30   26.36</time>
   <time name="total">   26.81   26.88</time>
   <energy>
    <i name="e_fr_energy">   -190.70020580 </i>
    <i name="e_wo_entrp">   -190.49125595 </i>
    <i name="e_0_energy">   -190.59573087 </i>
   </energy>
  </scstep>
  <scstep>
   <time name="dav">   26.61   26.67</time>
   <time name="total">   27.13   27.20</time>
   <energy>
    <i name="e_fr_energy">   -190.70008360 </i>
    <i name="e_wo_entrp">   -190.49126224 </i>
    <i name="e_0_energy">   -190.59567292 </i>
   </energy>
  </scstep>
  <scstep>
   <time name="dav">   21.46   21.51</time>
   <time name="total">   21.50   21.56</time>
   <energy>
    <i name="alphaZ">     85.83243428 </i>
    <i name="ewald">  42837.80236930 </i>
    <i name="hartreedc"> -48826.01029057 </i>
    <i name="XCdc">   -234.28678156 </i>
    <i name="pawpsdc">   4063.73827600 </i>
    <i name="pawaedc">  -3479.62022377 </i>
    <i name="eentropy">     -0.20886145 </i>
    <i name="bandstr">  -1399.38951417 </i>
    <i name="atom">   6761.44252427 </i>
    <i name="e_fr_energy">   -190.70006766 </i>
    <i name="e_wo_entrp">   -190.49120621 </i>
    <i name="e_0_energy">   -190.59563693 </i>
   </energy>
  </scstep>
  <structure>
   <crystal>
    <varray name="basis" >
     <v>       8.48472279       4.89826091       0.00000000 </v>
     <v>      -8.48575397       4.90003457       0.00000000 </v>
     <v>       0.00000000       0.00000000      30.00000000 </v>
    </varray>
    <i name="volume">   2494.22615978 </i>
    <varray name="rec_basis" >
     <v>       0.05893653       0.10206477       0.00000000 </v>
     <v>      -0.05891520       0.10205237       0.00000000 </v>
     <v>       0.00000000       0.00000000       0.03333333 </v>
    </varray>
   </crystal>
   <varray name="positions" >
    <v>      -0.00215503       0.66438117      -0.00013871 </v>
    <v>       0.66456835      -0.00211371       0.00021756 </v>
    <v>       0.33557336      -0.00071199       0.00029589 </v>
    <v>       0.33609955       0.66353457       0.00029028 </v>
    <v>       0.66631817       0.33774346      -0.00023093 </v>
    <v>       0.66100081       0.66092171      -0.00019520 </v>
    <v>      -0.00368444      -0.00326619      -0.00002862 </v>
    <v>       1.00011177       0.33639096      -0.00009460 </v>
    <v>       0.34177296       0.34245966      -0.00004028 </v>
    <v>       0.11142386       0.22229275       0.94992621 </v>
    <v>       0.22438704       0.10899363       0.04871327 </v>
    <v>       0.10763321       0.55763761       0.95053327 </v>
    <v>       0.22132058       0.44260814       0.05102253 </v>
    <v>       0.11298772       0.88642765       0.95197657 </v>
    <v>       0.21949438       0.78032173       0.04773927 </v>
    <v>       0.44071278       0.21689463       0.95057688 </v>
    <v>       0.55294981       0.10561776       0.04805876 </v>
    <v>       0.44391111       0.55444985       0.94818924 </v>
    <v>       0.55436094       0.44377641       0.05162244 </v>
    <v>       0.44687702       0.89413556       0.95180835 </v>
    <v>       0.55864229       0.78369326       0.04973780 </v>
    <v>       0.77591188       0.21697240       0.95096381 </v>
    <v>       0.88404388       0.10876256       0.04936106 </v>
    <v>       0.78373704       0.55872618       0.95011148 </v>
    <v>       0.89228895       0.44961080       0.04973327 </v>
    <v>       0.77572476       0.89209521       0.95055558 </v>
    <v>       0.89220168       0.77585869       0.04929471 </v>
   </varray>
  </structure>
  <varray name="forces" >
   <v>       0.01602946      -0.17317628       0.03587780 </v>
   <v>       0.08974377      -0.03367440      -0.03487188 </v>
   <v>       0.11177618       0.02445478       0.04958917 </v>
   <v>       0.56755436      -0.15111153       0.01315655 </v>
   <v>      -0.37767262       0.16853481      -0.04006985 </v>
   <v>      -0.01633823      -0.55090754       0.02228313 </v>
   <v>      -0.08507597      -0.28720337       0.01697200 </v>
   <v>      -0.10572980       0.12576700      -0.06568820 </v>
   <v>      -0.12960063       0.72940430       0.00035861 </v>
   <v>       0.04407400       0.07798553      -0.09700081 </v>
   <v>      -0.03425356       0.07263436       0.06879845 </v>
   <v>      -0.03122076       0.07284654      -0.32568494 </v>
   <v>       0.04819742      -0.01535029       0.44654348 </v>
   <v>       0.05119244      -0.01084973      -0.25593607 </v>
   <v>       0.04946048      -0.01505148       0.18333259 </v>
   <v>      -0.01678424      -0.00732969      -0.29548015 </v>
   <v>      -0.01510906       0.03072247       0.29447014 </v>
   <v>       0.00195847       0.04680642      -0.71570539 </v>
   <v>       0.00525363       0.03746340       0.62429497 </v>
   <v>       0.03668232      -0.01311931      -0.28050459 </v>
   <v>       0.01976825       0.01196237       0.42291812 </v>
   <v>      -0.04327450      -0.04339099      -0.18284607 </v>
   <v>      -0.08172133      -0.04225629       0.29463180 </v>
   <v>      -0.03063662       0.05620612      -0.48779990 </v>
   <v>      -0.05207745       0.04216252       0.36200317 </v>
   <v>      -0.02547927      -0.08429331      -0.32469572 </v>
   <v>       0.00328327      -0.06923641       0.27105359 </v>
  </varray>
  <varray name="stress" >
   <v>      -5.75008652      -0.06130059      -0.03341911 </v>
   <v>      -0.06130063      -5.65552742      -0.04446802 </v>
   <v>      -0.03341886      -0.04446798       4.48934835 </v>
  </varray>
  <energy>
   <i name="e_fr_energy">   -190.70006766 </i>
   <i name="e_wo_entrp">   -190.59563693 </i>
   <i name="e_0_energy">     -0.20886145 </i>
  </energy>
  <time name="totalsc">  383.82  384.84</time>
 </calculation>
 <calculation>
  <scstep>
   <time name="dav">   21.66   21.71</time>
   <time name="total">   22.17   22.22</time>
   <energy>
    <i name="alphaZ">     90.13558002 </i>
    <i name="ewald">  44645.33361509 </i>
    <i name="hartreedc"> -50688.34742733 </i>
    <i name="XCdc">   -231.87119668 </i>
    <i name="pawpsdc">   4063.68926221 </i>
    <i name="pawaedc">  -3479.56606594 </i>
    <i name="eentropy">     -0.19255767 </i>
    <i name="bandstr">  -1352.64473033 </i>
    <i name="atom">   6761.44252427 </i>
    <i name="e_fr_energy">   -192.02099636 </i>
    <i name="e_wo_entrp">   -191.82843869 </i>
    <i name="e_0_energy">   -191.92471752 </i>
   </energy>
  </scstep>
  <scstep>
   <time name="dav">   30.08   30.15</time>
   <time name="total">   30.58   30.66</time>
   <energy>
    <i name="e_fr_energy">   -191.88307994 </i>
    <i name="e_wo_entrp">   -191.67810697 </i>
    <i name="e_0_energy">   -191.78059345 </i>
   </energy>
  </scstep>
  <scstep>
   <time name="dav">   28.48   28.55</time>
   <time name="total">   28.99   29.07</time>
   <energy>
    <i name="e_fr_energy">   -192.20836273 </i>
    <i name="e_wo_entrp">   -192.00096875 </i>
    <i name="e_0_energy">   -192.10466574 </i>
   </energy>
  </scstep>
  <scstep>
   <time name="dav">   29.76   29.83</time>
   <time name="total">   30.26   30.34</time>
   <energy>
    <i name="e_fr_energy">   -191.57737668 </i>
    <i name="e_wo_entrp">   -191.37336524 </i>
    <i name="e_0_energy">   -191.47537096 </i>
   </energy>
  </scstep>
  <scstep>
   <time name="dav">   30.14   30.21</time>
   <time name="total">   30.64   30.72</time>
   <energy>
    <i name="e_fr_energy">   -191.51031780 </i>
    <i name="e_wo_entrp">   -191.31466527 </i>
    <i name="e_0_energy">   -191.41249154 </i>
   </energy>
  </scstep>
  <scstep>
   <time name="dav">   30.10   30.17</time>
   <time name="total">   30.60   30.69</time>
   <energy>
    <i name="e_fr_energy">   -191.33292553 </i>
    <i name="e_wo_entrp">   -191.13080448 </i>
    <i name="e_0_energy">   -191.23186501 </i>
   </energy>
  </scstep>
  <scstep>
   <time name="dav">   30.13   30.20</time>
   <time name="total">   30.64   30.72</time>
   <energy>
    <i name="e_fr_energy">   -191.32622366 </i>
    <i name="e_wo_entrp">   -191.12505113 </i>
    <i name="e_0_energy">   -191.22563740 </i>
   </energy>
  </scstep>
  <scstep>
   <time name="dav">   29.48   29.55</time>
   <time name="total">   29.99   30.07</time>
   <energy>
    <i name="e_fr_energy">   -191.32446774 </i>
    <i name="e_wo_entrp">   -191.12364247 </i>
    <i name="e_0_energy">   -191.22405511 </i>
   </energy>
  </scstep>
  <scstep>
   <time name="dav">   29.41   29.48</time>
   <time name="total">   29.92   30.00</time>
   <energy>
    <i name="e_fr_energy">   -191.32058927 </i>
    <i name="e_wo_entrp">   -191.11938962 </i>
    <i name="e_0_energy">   -191.21998944 </i>
   </energy>
  </scstep>
  <scstep>
   <time name="dav">   27.56   27.63</time>
   <time name="total">   28.07   28.15</time>
   <energy>
    <i name="e_fr_energy">   -191.32102465 </i>
    <i name="e_wo_entrp">   -191.11997605 </i>
    <i name="e_0_energy">   -191.22050035 </i>
   </energy>
  </scstep>
  <scstep>
   <time name="dav">   28.22   28.29</time>
   <time name="total">   28.73   28.81</time>
   <energy>
    <i name="e_fr_energy">   -191.32078686 </i>
    <i name="e_wo_entrp">   -191.11971455 </i>
    <i name="e_0_energy">   -191.22025071 </i>
   </energy>
  </scstep>
  <scstep>
   <time name="dav">   18.44   18.49</time>
   <time name="total">   18.48   18.53</time>
   <energy>
    <i name="alphaZ">     90.13558002 </i>
    <i name="ewald">  44645.33361509 </i>
    <i name="hartreedc"> -50654.99463446 </i>
    <i name="XCdc">   -233.37657583 </i>
    <i name="pawpsdc">   4084.64330852 </i>
    <i name="pawaedc">  -3500.60632552 </i>
    <i name="eentropy">     -0.20111042 </i>
    <i name="bandstr">  -1383.69717039 </i>
    <i name="atom">   6761.44252427 </i>
    <i name="e_fr_energy">   -191.32078872 </i>
    <i name="e_wo_entrp">   -191.11967830 </i>
    <i name="e_0_energy">   -191.22023351 </i>
   </energy>
  </scstep>
  <structure>
   <crystal>
    <varray name="basis" >
     <v>       8.27529929       4.77830694       0.00000000 </v>
     <v>      -8.27989924       4.78626306       0.00000000 </v>
     <v>       0.00000000       0.00000000      30.00000000 </v>
    </varray>
    <i name="volume">   2375.14977873 </i>
    <varray name="rec_basis" >
     <v>       0.06045425       0.10458161       0.00000000 </v>
     <v>      -0.06035376       0.10452350       0.00000000 </v>
     <v>       0.00000000       0.00000000       0.03333333 </v>
    </varray>
   </crystal>
   <varray name="positions" >
    <v>      -0.00424920       0.66205435       0.00000289 </v>
    <v>       0.66484016      -0.00316542       0.00008419 </v>
    <v>       0.33664993      -0.00112876       0.00050942 </v>
    <v>       0.33820822       0.65744801       0.00034917 </v>
    <v>       0.66574590       0.34258341      -0.00039972 </v>
    <v>       0.65403190       0.65414815      -0.00009286 </v>
    <v>      -0.00770148      -0.00594112       0.00005105 </v>
    <v>       1.00098434       0.33860195      -0.00038360 </v>
    <v>       0.34974679       0.35236896      -0.00003446 </v>
    <v>       0.11261375       0.22291439       0.94893048 </v>
    <v>       0.22526026       0.10978728       0.04954047 </v>
    <v>       0.10819689       0.55914971       0.94866147 </v>
    <v>       0.22152328       0.44220724       0.05343805 </v>
    <v>       0.11353750       0.88564440       0.95045573 </v>
    <v>       0.21940849       0.78004565       0.04894076 </v>
    <v>       0.44034600       0.21631857       0.94882418 </v>
    <v>       0.55299308       0.10570102       0.04971879 </v>
    <v>       0.44455538       0.55521864       0.94467487 </v>
    <v>       0.55508318       0.44431058       0.05477565 </v>
    <v>       0.44717511       0.89414726       0.95017488 </v>
    <v>       0.55923547       0.78419262       0.05199258 </v>
    <v>       0.77469905       0.21620161       0.94967934 </v>
    <v>       0.88244160       0.10852962       0.05109606 </v>
    <v>       0.78469615       0.55986291       0.94760136 </v>
    <v>       0.89254232       0.45102063       0.05178041 </v>
    <v>       0.77413688       0.89138883       0.94867779 </v>
    <v>       0.89151352       0.77460397       0.05095093 </v>
   </varray>
  </structure>
  <varray name="forces" >
   <v>      -0.00460925      -0.11566688      -0.03740262 </v>
   <v>       0.09973570       0.01632221       0.00788165 </v>
   <v>       0.11997834      -0.00257605       0.02983660 </v>
   <v>       0.21683508      -0.08946311      -0.05499645 </v>
   <v>      -0.16520388       0.11571487       0.02227294 </v>
   <v>      -0.03295494      -0.02512730      -0.03469983 </v>
   <v>      -0.01030503      -0.37800056       0.00502414 </v>
   <v>      -0.11055736       0.14923366       0.00589407 </v>
   <v>      -0.04421646       0.22772994       0.03847955 </v>
   <v>       0.10957109       0.13648996       0.21845342 </v>
   <v>      -0.17793581       0.15323740      -0.24923890 </v>
   <v>       0.05318970       0.09936243      -0.02232562 </v>
   <v>       0.09418742      -0.01767798       0.13441299 </v>
   <v>      -0.01489029      -0.03310639       0.02068720 </v>
   <v>       0.24226283      -0.04328268      -0.05303883 </v>
   <v>      -0.13395082       0.11078986       0.00465970 </v>
   <v>      -0.02594407       0.12736555      -0.02590411 </v>
   <v>       0.01132730       0.07444422      -0.34094428 </v>
   <v>       0.02131921       0.03575462       0.27440333 </v>
   <v>       0.09504486      -0.09380442       0.00983039 </v>
   <v>       0.09268343      -0.14246172       0.06489919 </v>
   <v>      -0.16732016       0.04759647       0.06162560 </v>
   <v>      -0.08188172       0.01816518       0.00166347 </v>
   <v>      -0.13012737      -0.03386117      -0.11667473 </v>
   <v>      -0.02146931      -0.03101934       0.05936011 </v>
   <v>       0.04965817      -0.15603162      -0.06335430 </v>
   <v>      -0.08442667      -0.15012715       0.03919532 </v>
  </varray>
  <varray name="stress" >
   <v>      -0.06047346      -0.19992150       0.20852303 </v>
   <v>      -0.19992187       0.25042252      -0.23033678 </v>
   <v>       0.20852290      -0.23033686      -0.60926242 </v>
  </varray>
  <energy>
   <i name="e_fr_energy">   -191.32078872 </i>
   <i name="e_wo_entrp">   -191.22023351 </i>
   <i name="e_0_energy">     -0.20111042 </i>
  </energy>
  <time name="totalsc">  381.07  382.08</time>
 </calculation>
 <calculation>
  <scstep>
   <time name="dav">   21.64   21.69</time>
   <time name="total">   22.14   22.20</time>
   <energy>
    <i name="alphaZ">     90.09116838 </i>
    <i name="ewald">  44606.55480343 </i>
    <i name="hartreedc"> -50616.50004350 </i>
    <i name="XCdc">   -233.48302234 </i>
    <i name="pawpsdc">   4084.55896760 </i>
    <i name="pawaedc">  -3500.51807607 </i>
    <i name="eentropy">     -0.20412903 </i>
    <i name="bandstr">  -1383.30383954 </i>
    <i name="atom">   6761.44252427 </i>
    <i name="e_fr_energy">   -191.36164681 </i>
    <i name="e_wo_entrp">   -191.15751777 </i>
    <i name="e_0_energy">   -191.25958229 </i>
   </energy>
  </scstep>
  <scstep>
   <time name="dav">   30.97   31.04</time>
   <time name="total">   31.47   31.56</time>
   <energy>
    <i name="e_fr_energy">   -191.40272437 </i>
    <i name="e_wo_entrp">   -191.19574419 </i>
    <i name="e_0_energy">   -191.29923428 </i>
   </energy>
  </scstep>
  <scstep>
   <time name="dav">   29.90   29.97</time>
   <time name="total">   30.41   30.49</time>
   <energy>
    <i name="e_fr_energy">   -191.37328661 </i>
    <i name="e_wo_entrp">   -191.16949725 </i>
    <i name="e_0_energy">   -191.27139193 </i>
   </energy>
  </scstep>
  <scstep>
   <time name="dav">   27.64   27.71</time>
   <time name="total">   28.14   28.22</time>
   <energy>
    <i name="e_fr_energy">   -191.37319079 </i>
    <i name="e_wo_entrp">   -191.16834921 </i>
    <i name="e_0_energy">   -191.27077000 </i>
   </energy>
  </scstep>
  <scstep>
   <time name="dav">   26.07   26.13</time>
   <time name="total">   26.58   26.65</time>
   <energy>
    <i name="e_fr_energy">   -191.37112078 </i>
    <i name="e_wo_entrp">   -191.16655955 </i>
    <i name="e_0_energy">   -191.26884016 </i>
   </energy>
  </scstep>
  <scstep>
   <time name="dav">   26.08   26.14</time>
   <time name="total">   26.59   26.66</time>
   <energy>
    <i name="e_fr_energy">   -191.37100236 </i>
    <i name="e_wo_entrp">   -191.16634503 </i>
    <i name="e_0_energy">   -191.26867370 </i>
   </energy>
  </scstep>
  <scstep>
   <time name="dav">   26.49   26.55</time>
   <time name="total">   27.00   27.07</time>
   <energy>
    <i name="e_fr_energy">   -191.37136197 </i>
    <i name="e_wo_entrp">   -191.16684242 </i>
    <i name="e_0_energy">   -191.26910219 </i>
   </energy>
  </scstep>
  <scstep>
   <time name="dav">   23.57   23.63</time>
   <time name="total">   24.08   24.15</time>
   <energy>
    <i name="e_fr_energy">   -191.37072143 </i>
    <i name="e_wo_entrp">   -191.16612752 </i>
    <i name="e_0_energy">   -191.26842447 </i>
   </energy>
  </scstep>
  <scstep>
   <time name="dav">   17.13   17.17</time>
   <time name="total">   17.17   17.22</time>
   <energy>
    <i name="alphaZ">     90.09116838 </i>
    <i name="ewald">  44606.55480343 </i>
    <i name="hartreedc"> -50617.79022457 </i>
    <i name="XCdc">   -233.45021258 </i>
    <i name="pawpsdc">   4081.30770082 </i>
    <i name="pawaedc">  -3497.22274685 </i>
    <i name="eentropy">     -0.20463777 </i>
    <i name="bandstr">  -1382.09911040 </i>
    <i name="atom">   6761.44252427 </i>
    <i name="e_fr_energy">   -191.37073526 </i>
    <i name="e_wo_entrp">   -191.16609749 </i>
    <i name="e_0_energy">   -191.26841638 </i>
   </energy>
  </scstep>
  <structure>
   <crystal>
    <varray name="basis" >
     <v>       8.27139790       4.77706900       0.00000000 </v>
     <v>      -8.28106618       4.79380437       0.00000000 </v>
     <v>       0.00000000       0.00000000      30.00000000 </v>
    </varray>
    <i name="volume">   2376.32064027 </i>
    <varray name="rec_basis" >
     <v>       0.06051967       0.10454481       0.00000000 </v>
     <v>      -0.06030839       0.10442275       0.00000000 </v>
     <v>       0.00000000       0.00000000       0.03333333 </v>
    </varray>
   </crystal>
   <varray name="positions" >
    <v>      -0.00484733       0.66148333      -0.00005724 </v>
    <v>       0.66521372      -0.00337400       0.00009683 </v>
    <v>       0.33698742      -0.00149142       0.00055751 </v>
    <v>       0.33839009       0.65636269       0.00026070 </v>
    <v>       0.66584777       0.34365028      -0.00036395 </v>
    <v>       0.65380639       0.65411494      -0.00014865 </v>
    <v>      -0.00964121      -0.00781918       0.00005917 </v>
    <v>       1.00141541       0.33967776      -0.00037423 </v>
    <v>       0.35077022       0.35365031       0.00002746 </v>
    <v>       0.11362294       0.22328405       0.94928148 </v>
    <v>       0.22551496       0.11107902       0.04913986 </v>
    <v>       0.10885390       0.55949671       0.94862475 </v>
    <v>       0.22170898       0.44184354       0.05365533 </v>
    <v>       0.11332719       0.88552039       0.95048835 </v>
    <v>       0.21989687       0.77912143       0.04885596 </v>
    <v>       0.44051424       0.21726745       0.94883092 </v>
    <v>       0.55356031       0.10641916       0.04967781 </v>
    <v>       0.44496449       0.55556157       0.94412488 </v>
    <v>       0.55532620       0.44442908       0.05521845 </v>
    <v>       0.44697907       0.89339718       0.95019000 </v>
    <v>       0.55878704       0.78320411       0.05209794 </v>
    <v>       0.77445054       0.21692882       0.94977792 </v>
    <v>       0.88229367       0.10885967       0.05109948 </v>
    <v>       0.78414592       0.56007163       0.94741260 </v>
    <v>       0.89232319       0.45092730       0.05187679 </v>
    <v>       0.77349345       0.89045669       0.94857505 </v>
    <v>       0.89050905       0.77409193       0.05101472 </v>
   </varray>
  </structure>
  <varray name="forces" >
   <v>      -0.02526441      -0.11211549      -0.03612321 </v>
   <v>       0.09963087      -0.02482164       0.02482060 </v>
   <v>       0.14866138       0.01780825       0.03988948 </v>
   <v>       0.23587321      -0.10722741      -0.03414765 </v>
   <v>      -0.19152166       0.10686887       0.01643865 </v>
   <v>      -0.01942003      -0.05043886      -0.00056390 </v>
   <v>       0.01899103      -0.44373882       0.01512686 </v>
   <v>      -0.12963843       0.17945134      -0.00661717 </v>
   <v>      -0.04871031       0.36226314       0.00233269 </v>
   <v>       0.07913094       0.05246203       0.25082448 </v>
   <v>      -0.13487783       0.07354785      -0.25043631 </v>
   <v>       0.02130629       0.05823021      -0.02388049 </v>
   <v>       0.04889633      -0.01681393       0.07898024 </v>
   <v>      -0.01073791      -0.03546264       0.04080808 </v>
   <v>       0.15213275      -0.03092957      -0.08643687 </v>
   <v>      -0.07864152       0.07163494       0.03514507 </v>
   <v>      -0.00967749       0.09124892      -0.05620093 </v>
   <v>       0.03350783       0.03179414      -0.18298969 </v>
   <v>      -0.01113091       0.04661275       0.14350957 </v>
   <v>       0.05982929      -0.04839225       0.02035599 </v>
   <v>       0.04180633      -0.08657298       0.02547663 </v>
   <v>      -0.10131299       0.04092333       0.09338417 </v>
   <v>      -0.05461632       0.01207028      -0.03949283 </v>
   <v>      -0.06743330      -0.01213795      -0.08512508 </v>
   <v>      -0.02120141       0.00557394       0.05091036 </v>
   <v>      -0.00167165      -0.09400922      -0.10261974 </v>
   <v>      -0.03391006      -0.08782923       0.06663099 </v>
  </varray>
  <varray name="stress" >
   <v>      -0.08883602      -0.02034519       0.04746700 </v>
   <v>      -0.02034520      -0.17311728      -0.06550433 </v>
   <v>       0.04746669      -0.06550407      -1.33180633 </v>
  </varray>
  <energy>
   <i name="e_fr_energy">   -191.37073526 </i>
   <i name="e_wo_entrp">   -191.26841638 </i>
   <i name="e_0_energy">     -0.20463777 </i>
  </energy>
  <time name="totalsc">  275.47  276.20</time>
 </calculation>
 <calculation>
  <scstep>
   <time name="dav">   21.65   21.70</time>
   <time name="total">   22.16   22.22</time>
   <energy>
    <i name="alphaZ">     90.18969510 </i>
    <i name="ewald">  44654.36498456 </i>
    <i name="hartreedc"> -50666.58477656 </i>
    <i name="XCdc">   -233.37252799 </i>
    <i name="pawpsdc">   4081.19300032 </i>
    <i name="pawaedc">  -3497.10649022 </i>
    <i name="eentropy">     -0.20648395 </i>
    <i name="bandstr">  -1381.33482194 </i>
    <i name="atom">   6761.44252427 </i>
    <i name="e_fr_energy">   -191.41489642 </i>
    <i name="e_wo_entrp">   -191.20841247 </i>
    <i name="e_0_energy">   -191.31165444 </i>
   </energy>
  </scstep>
  <scstep>
   <time name="dav">   31.69   31.76</time>
   <time name="total">   32.19   32.28</time>
   <energy>
    <i name="e_fr_energy">   -191.44621284 </i>
    <i name="e_wo_entrp">   -191.23617908 </i>
    <i name="e_0_energy">   -191.34119596 </i>
   </energy>
  </scstep>
  <scstep>
   <time name="dav">   30.06   30.13</time>
   <time name="total">   30.56   30.64</time>
   <energy>
    <i name="e_fr_energy">   -191.42299467 </i>
    <i name="e_wo_entrp">   -191.21676490 </i>
    <i name="e_0_energy">   -191.31987979 </i>
   </energy>
  </scstep>
  <scstep>
   <time name="dav">   27.76   27.83</time>
   <time name="total">   28.27   28.35</time>
   <energy>
    <i name="e_fr_energy">   -191.42155005 </i>
    <i name="e_wo_entrp">   -191.21459073 </i>
    <i name="e_0_energy">   -191.31807039 </i>
   </energy>
  </scstep>
  <scstep>
   <time name="dav">   27.27   27.33</time>
   <time name="total">   27.77   27.85</time>
   <energy>
    <i name="e_fr_energy">   -191.42026723 </i>
    <i name="e_wo_entrp">   -191.21303322 </i>
    <i name="e_0_energy">   -191.31665022 </i>
   </energy>
  </scstep>
  <scstep>
   <time name="dav">   25.78   25.84</time>
   <time name="total">   26.28   26.35</time>
   <energy>
    <i name="e_fr_energy">   -191.41987230 </i>
    <i name="e_wo_entrp">   -191.21259529 </i>
    <i name="e_0_energy">   -191.31623379 </i>
   </energy>
  </scstep>
  <scstep>
   <time name="dav">   27.59   27.65</time>
   <time name="total">   28.09   28.16</time>
   <energy>
    <i name="e_fr_energy">   -191.42012348 </i>
    <i name="e_wo_entrp">   -191.21298263 </i>
    <i name="e_0_energy">   -191.31655306 </i>
   </energy>
  </scstep>
  <scstep>
   <time name="dav">   23.78   23.84</time>
   <time name="total">   24.29   24.36</time>
   <energy>
    <i name="e_fr_energy">   -191.41952708 </i>
    <i name="e_wo_entrp">   -191.21225874 </i>
    <i name="e_0_energy">   -191.31589291 </i>
   </energy>
  </scstep>
  <scstep>
[...]
      <set comment="kpoint 31">
       <r>  -17.4781    1.0000 </r>
       <r>  -17.2849    1.0000 </r>
       <r>  -16.9078    1.0000 </r>
       <r>  -16.5808    1.0000 </r>
       <r>  -16.4769    1.0000 </r>
       <r>  -16.3683    1.0000 </r>
       <r>  -16.2825    1.0000 </r>
       <r>  -16.1591    1.0000 </r>
       <r>  -16.0844    1.0000 </r>
       <r>  -16.0050    1.0000 </r>
       <r>  -15.9465    1.0000 </r>
       <r>  -15.8896    1.0000 </r>
       <r>  -15.7997    1.0000 </r>
       <r>  -15.6946    1.0000 </r>
       <r>  -15.6502    1.0000 </r>
       <r>  -15.5425    1.0000 </r>
       <r>  -15.4750    1.0000 </r>
       <r>  -15.4440    1.0000 </r>
       <r>   -9.7249    1.0000 </r>
       <r>   -9.4309    1.0000 </r>
       <r>   -9.2444    1.0000 </r>
       <r>   -8.9298    1.0000 </r>
       <r>   -8.8353    1.0000 </r>
       <r>   -8.7299    1.0000 </r>
       <r>   -8.5243    1.0000 </r>
       <r>   -8.5061    1.0000 </r>
       <r>   -8.4014    1.0000 </r>
       <r>   -8.3180    1.0000 </r>
       <r>   -8.2985    1.0000 </r>
       <r>   -8.1765    1.0000 </r>
       <r>   -8.1606    1.0000 </r>
       <r>   -8.0309    1.0000 </r>
       <r>   -7.9693    1.0000 </r>
       <r>   -7.8768    1.0000 </r>
       <r>   -7.7949    1.0000 </r>
       <r>   -7.6711    1.0000 </r>
       <r>   -7.5477    1.0000 </r>
       <r>   -7.3998    1.0000 </r>
       <r>   -7.2732    1.0000 </r>
       <r>   -7.2291    1.0000 </r>
       <r>   -7.1676    1.0000 </r>
       <r>   -7.0848    1.0000 </r>
       <r>   -6.9881    1.0000 </r>
       <r>   -6.9543    1.0000 </r>
       <r>   -6.8816    1.0000 </r>
       <r>   -6.7965    1.0000 </r>
       <r>   -6.7207    1.0000 </r>
       <r>   -6.6021    1.0000 </r>
       <r>   -6.5610    1.0000 </r>
       <r>   -6.4684    1.0000 </r>
       <r>   -6.3934    1.0000 </r>
       <r>   -6.3366    1.0000 </r>
       <r>   -6.2649    1.0000 </r>
       <r>   -6.2149    1.0000 </r>
       <r>   -6.1454    1.0000 </r>
       <r>   -6.0699    1.0000 </r>
       <r>   -6.0340    1.0000 </r>
       <r>   -5.9256    1.0000 </r>
       <r>   -5.8745    1.0000 </r>
       <r>   -5.8441    1.0000 </r>
       <r>   -5.7291    1.0000 </r>
       <r>   -5.6458    1.0000 </r>
       <r>   -5.5899    1.0000 </r>
       <r>   -5.4476    1.0000 </r>
       <r>   -5.2842    1.0000 </r>
       <r>   -5.1520    1.0000 </r>
       <r>   -5.1005    1.0000 </r>
       <r>   -4.9364    1.0000 </r>
       <r>   -4.7583    1.0000 </r>
       <r>   -4.7163    1.0000 </r>
       <r>   -4.5605    1.0000 </r>
       <r>   -4.4712    1.0000 </r>
       <r>   -4.3283    1.0000 </r>
       <r>   -4.2293    1.0000 </r>
       <r>   -4.0240    1.0000 </r>
       <r>   -3.8751    1.0000 </r>
       <r>   -3.7717    1.0000 </r>
       <r>   -3.5627    0.9936 </r>
       <r>   -3.4301    0.9397 </r>
       <r>   -3.1223    0.2661 </r>
       <r>   -2.9838    0.0544 </r>
       <r>   -2.8800    0.0097 </r>
       <r>   -2.7404    0.0004 </r>
       <r>   -2.6113    0.0000 </r>
       <r>   -2.5233    0.0000 </r>
       <r>   -2.4923    0.0000 </r>
       <r>   -2.1906    0.0000 </r>
       <r>   -2.0541    0.0000 </r>
       <r>   -1.9971    0.0000 </r>
       <r>   -1.8590    0.0000 </r>
       <r>   -1.7514    0.0000 </r>
       <r>   -1.6109    0.0000 </r>
       <r>   -1.5227    0.0000 </r>
       <r>   -1.4132    0.0000 </r>
       <r>   -1.3273    0.0000 </r>
       <r>   -1.1524    0.0000 </r>
       <r>   -1.0392    0.0000 </r>
       <r>   -1.0017    0.0000 </r>
       <r>   -0.9398    0.0000 </r>
       <r>   -0.8979    0.0000 </r>
       <r>   -0.8493    0.0000 </r>
       <r>   -0.7931    0.0000 </r>
       <r>   -0.6825    0.0000 </r>
       <r>   -0.6011    0.0000 </r>
       <r>   -0.4770    0.0000 </r>
       <r>   -0.4333    0.0000 </r>
       <r>   -0.3285    0.0000 </r>
       <r>   -0.1105    0.0000 </r>
       <r>    0.0891    0.0000 </r>
       <r>    0.2599    0.0000 </r>
       <r>    0.6440    0.0000 </r>
       <r>    0.6682    0.0000 </r>
       <r>    0.9116    0.0000 </r>
       <r>    1.0227    0.0000 </r>
       <r>    1.1083    0.0000 </r>
       <r>    1.2141    0.0000 </r>
       <r>    1.3016    0.0000 </r>
       <r>    2.1327    0.0000 </r>
       <r>    2.2855    0.0000 </r>
       <r>    2.3921    0.0000 </r>
      </set>
      <set comment="kpoint 32">
       <r>  -17.4988    1.0000 </r>
       <r>  -17.1798    1.0000 </r>
       <r>  -17.0484    1.0000 </r>
       <r>  -16.5681    1.0000 </r>
       <r>  -16.4225    1.0000 </r>
       <r>  -16.3009    1.0000 </r>
       <r>  -16.2880    1.0000 </r>
       <r>  -16.2032    1.0000 </r>
       <r>  -16.0896    1.0000 </r>
       <r>  -16.0430    1.0000 </r>
       <r>  -15.9503    1.0000 </r>
       <r>  -15.8829    1.0000 </r>
       <r>  -15.7929    1.0000 </r>
       <r>  -15.7030    1.0000 </r>
       <r>  -15.6503    1.0000 </r>
       <r>  -15.5599    1.0000 </r>
       <r>  -15.4541    1.0000 </r>
       <r>  -15.4330    1.0000 </r>
       <r>   -9.6688    1.0000 </r>
       <r>   -9.5216    1.0000 </r>
       <r>   -9.3373    1.0000 </r>
       <r>   -8.8678    1.0000 </r>
       <r>   -8.7228    1.0000 </r>
       <r>   -8.5913    1.0000 </r>
       <r>   -8.5360    1.0000 </r>
       <r>   -8.4908    1.0000 </r>
       <r>   -8.4211    1.0000 </r>
       <r>   -8.3751    1.0000 </r>
       <r>   -8.3011    1.0000 </r>
       <r>   -8.2068    1.0000 </r>
       <r>   -8.1676    1.0000 </r>
       <r>   -8.0584    1.0000 </r>
       <r>   -8.0249    1.0000 </r>
       <r>   -7.9807    1.0000 </r>
       <r>   -7.7862    1.0000 </r>
       <r>   -7.6239    1.0000 </r>
       <r>   -7.5101    1.0000 </r>
       <r>   -7.3426    1.0000 </r>
       <r>   -7.3269    1.0000 </r>
       <r>   -7.2227    1.0000 </r>
       <r>   -7.1700    1.0000 </r>
       <r>   -7.1042    1.0000 </r>
       <r>   -7.0125    1.0000 </r>
       <r>   -6.9338    1.0000 </r>
       <r>   -6.9111    1.0000 </r>
       <r>   -6.7960    1.0000 </r>
       <r>   -6.7242    1.0000 </r>
       <r>   -6.6647    1.0000 </r>
       <r>   -6.5179    1.0000 </r>
       <r>   -6.4449    1.0000 </r>
       <r>   -6.4250    1.0000 </r>
       <r>   -6.3631    1.0000 </r>
       <r>   -6.2536    1.0000 </r>
       <r>   -6.2056    1.0000 </r>
       <r>   -6.1597    1.0000 </r>
       <r>   -6.0643    1.0000 </r>
       <r>   -5.9787    1.0000 </r>
       <r>   -5.9168    1.0000 </r>
       <r>   -5.8633    1.0000 </r>
       <r>   -5.7426    1.0000 </r>
       <r>   -5.6815    1.0000 </r>
       <r>   -5.6134    1.0000 </r>
       <r>   -5.5053    1.0000 </r>
       <r>   -5.4164    1.0000 </r>
       <r>   -5.3412    1.0000 </r>
       <r>   -5.2402    1.0000 </r>
       <r>   -5.1162    1.0000 </r>
       <r>   -5.0178    1.0000 </r>
       <r>   -4.7793    1.0000 </r>
       <r>   -4.7516    1.0000 </r>
       <r>   -4.5873    1.0000 </r>
       <r>   -4.4815    1.0000 </r>
       <r>   -4.3000    1.0000 </r>
       <r>   -4.1898    1.0000 </r>
       <r>   -4.0367    1.0000 </r>
       <r>   -3.8662    1.0000 </r>
       <r>   -3.7129    0.9998 </r>
       <r>   -3.5653    0.9939 </r>
       <r>   -3.4171    0.9279 </r>
       <r>   -3.1283    0.2804 </r>
       <r>   -3.0646    0.1510 </r>
       <r>   -2.8884    0.0114 </r>
       <r>   -2.7055    0.0002 </r>
       <r>   -2.6167    0.0000 </r>
       <r>   -2.5331    0.0000 </r>
       <r>   -2.4711    0.0000 </r>
       <r>   -2.2163    0.0000 </r>
       <r>   -2.0769    0.0000 </r>
       <r>   -1.9818    0.0000 </r>
       <r>   -1.8834    0.0000 </r>
       <r>   -1.7410    0.0000 </r>
       <r>   -1.6207    0.0000 </r>
       <r>   -1.5417    0.0000 </r>
       <r>   -1.4207    0.0000 </r>
       <r>   -1.3175    0.0000 </r>
       <r>   -1.1446    0.0000 </r>
       <r>   -1.0433    0.0000 </r>
       <r>   -0.9967    0.0000 </r>
       <r>   -0.9546    0.0000 </r>
       <r>   -0.9128    0.0000 </r>
       <r>   -0.7965    0.0000 </r>
       <r>   -0.7619    0.0000 </r>
       <r>   -0.7012    0.0000 </r>
       <r>   -0.5729    0.0000 </r>
       <r>   -0.4705    0.0000 </r>
       <r>   -0.3787    0.0000 </r>
       <r>   -0.2883    0.0000 </r>
       <r>   -0.1643    0.0000 </r>
       <r>    0.0637    0.0000 </r>
       <r>    0.2041    0.0000 </r>
       <r>    0.6055    0.0000 </r>
       <r>    0.7101    0.0000 </r>
       <r>    0.8654    0.0000 </r>
       <r>    1.0028    0.0000 </r>
       <r>    1.0585    0.0000 </r>
       <r>    1.2607    0.0000 </r>
       <r>    1.3788    0.0000 </r>
       <r>    2.1047    0.0000 </r>
       <r>    2.2558    0.0000 </r>
       <r>    2.5735    0.0000 </r>
      </set>
      <set comment="kpoint 33">
       <r>  -17.4770    1.0000 </r>
       <r>  -17.2739    1.0000 </r>
       <r>  -16.9205    1.0000 </r>
       <r>  -16.5627    1.0000 </r>
       <r>  -16.4890    1.0000 </r>
       <r>  -16.4120    1.0000 </r>
       <r>  -16.2866    1.0000 </r>
       <r>  -16.1451    1.0000 </r>
       <r>  -16.0591    1.0000 </r>
       <r>  -16.0247    1.0000 </r>
       <r>  -15.9554    1.0000 </r>
       <r>  -15.8512    1.0000 </r>
       <r>  -15.7805    1.0000 </r>
       <r>  -15.7072    1.0000 </r>
       <r>  -15.6363    1.0000 </r>
       <r>  -15.5780    1.0000 </r>
       <r>  -15.4786    1.0000 </r>
       <r>  -15.4299    1.0000 </r>
       <r>   -9.7346    1.0000 </r>
       <r>   -9.3978    1.0000 </r>
       <r>   -9.2771    1.0000 </r>
       <r>   -8.8956    1.0000 </r>
       <r>   -8.7865    1.0000 </r>
       <r>   -8.7677    1.0000 </r>
       <r>   -8.5747    1.0000 </r>
       <r>   -8.5540    1.0000 </r>
       <r>   -8.3791    1.0000 </r>
       <r>   -8.3194    1.0000 </r>
       <r>   -8.2756    1.0000 </r>
       <r>   -8.2063    1.0000 </r>
       <r>   -8.1163    1.0000 </r>
       <r>   -8.0473    1.0000 </r>
       <r>   -7.9817    1.0000 </r>
       <r>   -7.9104    1.0000 </r>
       <r>   -7.7600    1.0000 </r>
       <r>   -7.6257    1.0000 </r>
       <r>   -7.5376    1.0000 </r>
       <r>   -7.4583    1.0000 </r>
       <r>   -7.3017    1.0000 </r>
       <r>   -7.2095    1.0000 </r>
       <r>   -7.1637    1.0000 </r>
       <r>   -7.1000    1.0000 </r>
       <r>   -6.9844    1.0000 </r>
       <r>   -6.9460    1.0000 </r>
       <r>   -6.8938    1.0000 </r>
       <r>   -6.8235    1.0000 </r>
       <r>   -6.6888    1.0000 </r>
       <r>   -6.6157    1.0000 </r>
       <r>   -6.4914    1.0000 </r>
       <r>   -6.4584    1.0000 </r>
       <r>   -6.4087    1.0000 </r>
       <r>   -6.3731    1.0000 </r>
       <r>   -6.2690    1.0000 </r>
       <r>   -6.2160    1.0000 </r>
       <r>   -6.1581    1.0000 </r>
       <r>   -6.0671    1.0000 </r>
       <r>   -5.9776    1.0000 </r>
       <r>   -5.9142    1.0000 </r>
       <r>   -5.8713    1.0000 </r>
       <r>   -5.7862    1.0000 </r>
       <r>   -5.7124    1.0000 </r>
       <r>   -5.6519    1.0000 </r>
       <r>   -5.5963    1.0000 </r>
       <r>   -5.4575    1.0000 </r>
       <r>   -5.3382    1.0000 </r>
       <r>   -5.1747    1.0000 </r>
       <r>   -5.0780    1.0000 </r>
       <r>   -4.8874    1.0000 </r>
       <r>   -4.8362    1.0000 </r>
       <r>   -4.6751    1.0000 </r>
       <r>   -4.6197    1.0000 </r>
       <r>   -4.4939    1.0000 </r>
       <r>   -4.2561    1.0000 </r>
       <r>   -4.1613    1.0000 </r>
       <r>   -4.0239    1.0000 </r>
       <r>   -3.9011    1.0000 </r>
       <r>   -3.6977    0.9997 </r>
       <r>   -3.5686    0.9943 </r>
       <r>   -3.4692    0.9663 </r>
       <r>   -3.1564    0.3507 </r>
       <r>   -3.1018    0.2210 </r>
       <r>   -2.8777    0.0093 </r>
       <r>   -2.6944    0.0001 </r>
       <r>   -2.6303    0.0000 </r>
       <r>   -2.5456    0.0000 </r>
       <r>   -2.4376    0.0000 </r>
       <r>   -2.2535    0.0000 </r>
       <r>   -2.0772    0.0000 </r>
       <r>   -1.9589    0.0000 </r>
       <r>   -1.9127    0.0000 </r>
       <r>   -1.7283    0.0000 </r>
       <r>   -1.6204    0.0000 </r>
       <r>   -1.5588    0.0000 </r>
       <r>   -1.3997    0.0000 </r>
       <r>   -1.2906    0.0000 </r>
       <r>   -1.1530    0.0000 </r>
       <r>   -1.0603    0.0000 </r>
       <r>   -0.9975    0.0000 </r>
       <r>   -0.9480    0.0000 </r>
       <r>   -0.9182    0.0000 </r>
       <r>   -0.8143    0.0000 </r>
       <r>   -0.7424    0.0000 </r>
       <r>   -0.6778    0.0000 </r>
       <r>   -0.5472    0.0000 </r>
       <r>   -0.5199    0.0000 </r>
       <r>   -0.3878    0.0000 </r>
       <r>   -0.2471    0.0000 </r>
       <r>   -0.1650    0.0000 </r>
       <r>    0.0582    0.0000 </r>
       <r>    0.2161    0.0000 </r>
       <r>    0.4517    0.0000 </r>
       <r>    0.7799    0.0000 </r>
       <r>    0.8512    0.0000 </r>
       <r>    0.9606    0.0000 </r>
       <r>    1.0641    0.0000 </r>
       <r>    1.3282    0.0000 </r>
       <r>    1.4864    0.0000 </r>
       <r>    2.1400    0.0000 </r>
       <r>    2.2882    0.0000 </r>
       <r>    2.4055    0.0000 </r>
      </set>
      <set comment="kpoint 34">
       <r>  -17.4386    1.0000 </r>
       <r>  -17.3527    1.0000 </r>
       <r>  -16.7507    1.0000 </r>
       <r>  -16.6708    1.0000 </r>
       <r>  -16.5498    1.0000 </r>
       <r>  -16.4293    1.0000 </r>
       <r>  -16.2799    1.0000 </r>
       <r>  -16.1378    1.0000 </r>
       <r>  -16.0553    1.0000 </r>
       <r>  -16.0008    1.0000 </r>
       <r>  -15.9479    1.0000 </r>
       <r>  -15.8336    1.0000 </r>
       <r>  -15.7707    1.0000 </r>
       <r>  -15.7004    1.0000 </r>
       <r>  -15.6200    1.0000 </r>
       <r>  -15.5726    1.0000 </r>
       <r>  -15.5318    1.0000 </r>
       <r>  -15.4247    1.0000 </r>
       <r>   -9.7705    1.0000 </r>
       <r>   -9.2724    1.0000 </r>
       <r>   -9.1527    1.0000 </r>
       <r>   -9.0272    1.0000 </r>
       <r>   -8.9552    1.0000 </r>
       <r>   -8.7819    1.0000 </r>
       <r>   -8.6073    1.0000 </r>
       <r>   -8.5810    1.0000 </r>
       <r>   -8.3706    1.0000 </r>
       <r>   -8.3066    1.0000 </r>
       <r>   -8.2229    1.0000 </r>
       <r>   -8.1809    1.0000 </r>
       <r>   -8.1548    1.0000 </r>
       <r>   -7.9744    1.0000 </r>
       <r>   -7.9253    1.0000 </r>
       <r>   -7.8918    1.0000 </r>
       <r>   -7.7404    1.0000 </r>
       <r>   -7.6282    1.0000 </r>
       <r>   -7.5340    1.0000 </r>
       <r>   -7.4719    1.0000 </r>
       <r>   -7.3581    1.0000 </r>
       <r>   -7.2478    1.0000 </r>
       <r>   -7.1764    1.0000 </r>
       <r>   -7.1357    1.0000 </r>
       <r>   -6.9951    1.0000 </r>
       <r>   -6.9024    1.0000 </r>
       <r>   -6.8721    1.0000 </r>
       <r>   -6.6808    1.0000 </r>
       <r>   -6.6454    1.0000 </r>
       <r>   -6.5496    1.0000 </r>
       <r>   -6.5165    1.0000 </r>
       <r>   -6.4936    1.0000 </r>
       <r>   -6.4303    1.0000 </r>
       <r>   -6.3962    1.0000 </r>
       <r>   -6.3303    1.0000 </r>
       <r>   -6.2112    1.0000 </r>
       <r>   -6.1474    1.0000 </r>
       <r>   -6.1425    1.0000 </r>
       <r>   -6.0262    1.0000 </r>
       <r>   -5.8575    1.0000 </r>
       <r>   -5.8531    1.0000 </r>
       <r>   -5.8122    1.0000 </r>
       <r>   -5.7123    1.0000 </r>
       <r>   -5.6691    1.0000 </r>
       <r>   -5.6019    1.0000 </r>
       <r>   -5.5045    1.0000 </r>
       <r>   -5.4701    1.0000 </r>
       <r>   -5.0352    1.0000 </r>
       <r>   -5.0051    1.0000 </r>
       <r>   -4.9426    1.0000 </r>
       <r>   -4.7814    1.0000 </r>
       <r>   -4.7000    1.0000 </r>
       <r>   -4.5634    1.0000 </r>
       <r>   -4.4170    1.0000 </r>
       <r>   -4.3200    1.0000 </r>
       <r>   -4.1373    1.0000 </r>
       <r>   -3.9953    1.0000 </r>
       <r>   -3.9496    1.0000 </r>
       <r>   -3.7054    0.9998 </r>
       <r>   -3.5575    0.9929 </r>
       <r>   -3.5246    0.9868 </r>
       <r>   -3.1566    0.3513 </r>
       <r>   -3.1116    0.2419 </r>
       <r>   -2.8724    0.0084 </r>
       <r>   -2.7001    0.0002 </r>
       <r>   -2.6377    0.0000 </r>
       <r>   -2.5490    0.0000 </r>
       <r>   -2.4217    0.0000 </r>
       <r>   -2.2677    0.0000 </r>
       <r>   -2.0640    0.0000 </r>
       <r>   -1.9655    0.0000 </r>
       <r>   -1.9210    0.0000 </r>
       <r>   -1.7169    0.0000 </r>
       <r>   -1.6167    0.0000 </r>
       <r>   -1.5638    0.0000 </r>
       <r>   -1.3858    0.0000 </r>
       <r>   -1.2652    0.0000 </r>
       <r>   -1.1697    0.0000 </r>
       <r>   -1.0991    0.0000 </r>
       <r>   -0.9842    0.0000 </r>
       <r>   -0.9401    0.0000 </r>
       <r>   -0.8944    0.0000 </r>
       <r>   -0.8397    0.0000 </r>
       <r>   -0.7329    0.0000 </r>
       <r>   -0.6325    0.0000 </r>
       <r>   -0.6116    0.0000 </r>
       <r>   -0.5439    0.0000 </r>
       <r>   -0.3973    0.0000 </r>
       <r>   -0.2413    0.0000 </r>
       <r>   -0.1148    0.0000 </r>
       <r>    0.0640    0.0000 </r>
       <r>    0.2435    0.0000 </r>
       <r>    0.3421    0.0000 </r>
       <r>    0.8121    0.0000 </r>
       <r>    0.8610    0.0000 </r>
       <r>    0.9434    0.0000 </r>
       <r>    1.0667    0.0000 </r>
       <r>    1.3632    0.0000 </r>
       <r>    1.5372    0.0000 </r>
       <r>    2.2255    0.0000 </r>
       <r>    2.2558    0.0000 </r>
       <r>    2.3732    0.0000 </r>
      </set>
     </set>
    </set>
   </array>
  </eigenvalues>
  <separator name="orbital magnetization" >
   <v name="MAGDIPOLOUT">      0.00000000      0.00000000      0.00000000</v>
  </separator>
 </calculation>
 <structure name="finalpos" >
  <crystal>
   <varray name="basis" >
    <v>       8.32553963       4.79582318       0.00000000 </v>
    <v>      -8.35667719       4.84965428       0.00000000 </v>
    <v>       0.00000000       0.00000000      30.00000000 </v>
   </varray>
   <i name="volume">   2413.59405208 </i>
   <varray name="rec_basis" >
    <v>       0.06027925       0.10387012       0.00000000 </v>
    <v>      -0.05961015       0.10348310       0.00000000 </v>
    <v>       0.00000000       0.00000000       0.03333333 </v>
   </varray>
  </crystal>
  <varray name="positions" >
   <v>      -0.02691083       0.65380896      -0.00016741 </v>
   <v>       0.67570172       0.00986645       0.00059972 </v>
   <v>       0.35198407      -0.00509978       0.00174686 </v>
   <v>       0.34587017       0.65153565      -0.00048575 </v>
   <v>       0.67269529       0.34945805       0.00027426 </v>
   <v>       0.65736380       0.65467707      -0.00035781 </v>
   <v>      -0.02441500      -0.03923105      -0.00153536 </v>
   <v>       0.98659324       0.35579828       0.00000746 </v>
   <v>       0.36633757       0.36351521       0.00041785 </v>
   <v>       0.10886434       0.22150484       0.95833780 </v>
   <v>       0.22484766       0.10988151       0.04395069 </v>
   <v>       0.10899101       0.56544772       0.94926044 </v>
   <v>       0.22044898       0.44034275       0.05189343 </v>
   <v>       0.10997468       0.87904952       0.95052811 </v>
   <v>       0.21911563       0.77411324       0.04523246 </v>
   <v>       0.44038148       0.21809601       0.95023174 </v>
   <v>       0.55944829       0.11062618       0.05013626 </v>
   <v>       0.44743390       0.55356349       0.94246303 </v>
   <v>       0.55831482       0.44782951       0.05688714 </v>
   <v>       0.45125689       0.89450429       0.95024194 </v>
   <v>       0.55917842       0.78436050       0.05019141 </v>
   <v>       0.77453863       0.22376677       0.94896934 </v>
   <v>       0.88929232       0.11155442       0.04874371 </v>
   <v>       0.77857918       0.55827678       0.94529514 </v>
   <v>       0.88926670       0.45487182       0.05548107 </v>
   <v>       0.76760299       0.88798145       0.94751051 </v>
   <v>       0.88545847       0.76811482       0.05414586 </v>
  </varray>
 </structure>
</modeling>
