unknown system                          
           1
     8.854460    5.104207    0.000000
    -8.855823    5.106552    0.000000
     0.000000    0.000000   30.000000
   V    Mo   W    S 
   3   3   3  18
Direct configuration=     1
   0.00000000  0.66666669  0.00000000
   0.66666669  0.00000000  0.00000000
   0.33333334  0.00000000  0.00000000
   0.33333334  0.66666669  0.00000000
   0.66666669  0.33333334  0.00000000
   0.66666669  0.66666669  0.00000000
   0.00000000  0.00000000  0.00000000
   1.00000000  0.33333334  0.00000000
   0.33333334  0.33333334  0.00000000
   0.11068511  0.22244981  0.95539999
   0.22244981  0.11068511  0.04460000
   0.11068511  0.55578315  0.95539999
   0.22244981  0.44401845  0.04460000
   0.11068511  0.88911647  0.95539999
   0.22244981  0.77735180  0.04460000
   0.44401845  0.22244981  0.95539999
   0.55578315  0.11068511  0.04460000
   0.44401845  0.55578315  0.95539999
   0.55578315  0.44401845  0.04460000
   0.44401845  0.88911647  0.95539999
   0.55578315  0.77735180  0.04460000
   0.77735180  0.22244981  0.95539999
   0.88911647  0.11068511  0.04460000
   0.77735180  0.55578315  0.95539999
   0.88911647  0.44401845  0.04460000
   0.77735180  0.88911647  0.95539999
   0.88911647  0.77735180  0.04460000
unknown system                          
           1
     8.666416    4.998126    0.000000
    -8.667652    5.000253    0.000000
     0.000000    0.000000   30.000000
   V    Mo   W    S 
   3   3   3  18
Direct configuration=     2
  -0.00071069  0.66592753 -0.00013058
   0.66518466 -0.00106896  0.00016553
   0.33451748 -0.00048156  0.00005555
   0.33462246  0.66694033  0.00011943
   0.66660536  0.33460526 -0.00003548
   0.66529270  0.66527164 -0.00019433
  -0.00146202 -0.00188651 -0.00006874
   0.99963828  0.33490268  0.00013864
   0.33651264  0.33621710 -0.00003348
   0.11121724  0.22207682  0.95079320
   0.22408586  0.10910316  0.04795341
   0.10808462  0.55702448  0.95196415
   0.22151232  0.44332822  0.04927997
   0.11263186  0.88693895  0.95301130
   0.21998909  0.77983267  0.04690284
   0.44163444  0.21805958  0.95193789
   0.55350881  0.10648997  0.04689588
   0.44392472  0.55448332  0.95065748
   0.55439861  0.44372437  0.04931186
   0.44629979  0.89320878  0.95308535
   0.55766935  0.78230018  0.04806407
   0.77639901  0.21807190  0.95199703
   0.88499540  0.10922391  0.04813280
   0.78222888  0.55774564  0.95190942
   0.89146577  0.44829162  0.04809771
   0.77625525  0.89161382  0.95201915
   0.89171257  0.77626956  0.04796986
unknown system                          
           1
     8.484723    4.898261    0.000000
    -8.485754    4.900035    0.000000
     0.000000    0.000000   30.000000
   V    Mo   W    S 
   3   3   3  18
Direct configuration=     3
  -0.00097449  0.66565304 -0.00014550
   0.66491242 -0.00133705  0.00019270
   0.33479802 -0.00056785  0.00011155
   0.33497986  0.66643678  0.00017057
   0.66653680  0.33519995 -0.00008373
   0.66448894  0.66445079 -0.00021198
  -0.00193307 -0.00226689 -0.00006897
   0.99967692  0.33526761  0.00009872
   0.33765294  0.33746263 -0.00003902
   0.11122488  0.22210805  0.95093912
   0.22397733  0.10919041  0.04781830
   0.10793641  0.55686406  0.95196970
   0.22139627  0.44303571  0.04929820
   0.11251674  0.88700191  0.95308149
   0.21997101  0.77987859  0.04680948
   0.44143675  0.21805956  0.95195803
   0.55344111  0.10641060  0.04686681
   0.44382612  0.55427607  0.95049848
   0.55418428  0.44362646  0.04944617
   0.44635800  0.89327970  0.95308897
   0.55777623  0.78245432  0.04811213
   0.77656188  0.21807789  0.95207884
   0.88510827  0.10925606  0.04807589
   0.78238393  0.55784894  0.95183881
   0.89167059  0.44831553  0.04813033
   0.77643770  0.89176341  0.95201959
   0.89186861  0.77646817  0.04794521
unknown system                          
           1
     8.275299    4.778307    0.000000
    -8.279899    4.786263    0.000000
     0.000000    0.000000   30.000000
   V    Mo   W    S 
   3   3   3  18
Direct configuration=     4
  -0.00215503  0.66438117 -0.00013871
   0.66456835 -0.00211371  0.00021756
   0.33557336 -0.00071199  0.00029589
   0.33609955  0.66353457  0.00029028
   0.66631817  0.33774346 -0.00023093
   0.66100081  0.66092171 -0.00019520
  -0.00368444 -0.00326619 -0.00002862
   1.00011177  0.33639096 -0.00009460
   0.34177296  0.34245966 -0.00004028
   0.11142386  0.22229275  0.94992621
   0.22438704  0.10899363  0.04871327
   0.10763321  0.55763761  0.95053327
   0.22132058  0.44260814  0.05102253
   0.11298772  0.88642765  0.95197657
   0.21949438  0.78032173  0.04773927
   0.44071278  0.21689463  0.95057688
   0.55294981  0.10561776  0.04805876
   0.44391111  0.55444985  0.94818924
   0.55436094  0.44377641  0.05162244
   0.44687702  0.89413556  0.95180835
   0.55864229  0.78369326  0.04973780
   0.77591188  0.21697240  0.95096381
   0.88404388  0.10876256  0.04936106
   0.78373704  0.55872618  0.95011148
   0.89228895  0.44961080  0.04973327
   0.77572476  0.89209521  0.95055558
   0.89220168  0.77585869  0.04929471
unknown system                          
           1
     8.271398    4.777069    0.000000
    -8.281066    4.793804    0.000000
     0.000000    0.000000   30.000000
   V    Mo   W    S 
   3   3   3  18
Direct configuration=     5
  -0.00424920  0.66205435  0.00000289
   0.66484016 -0.00316542  0.00008419
   0.33664993 -0.00112876  0.00050942
   0.33820822  0.65744801  0.00034917
   0.66574590  0.34258341 -0.00039972
   0.65403190  0.65414815 -0.00009286
  -0.00770148 -0.00594112  0.00005105
   1.00098434  0.33860195 -0.00038360
   0.34974679  0.35236896 -0.00003446
   0.11261375  0.22291439  0.94893048
   0.22526026  0.10978728  0.04954047
   0.10819689  0.55914971  0.94866147
   0.22152328  0.44220724  0.05343805
   0.11353750  0.88564440  0.95045573
   0.21940849  0.78004565  0.04894076
   0.44034600  0.21631857  0.94882418
   0.55299308  0.10570102  0.04971879
   0.44455538  0.55521864  0.94467487
   0.55508318  0.44431058  0.05477565
   0.44717511  0.89414726  0.95017488
   0.55923547  0.78419262  0.05199258
   0.77469905  0.21620161  0.94967934
   0.88244160  0.10852962  0.05109606
   0.78469615  0.55986291  0.94760136
   0.89254232  0.45102063  0.05178041
   0.77413688  0.89138883  0.94867779
   0.89151352  0.77460397  0.05095093
unknown system                          
           1
     8.267393    4.773357    0.000000
    -8.277756    4.791289    0.000000
     0.000000    0.000000   30.000000
   V    Mo   W    S 
   3   3   3  18
Direct configuration=     6
  -0.00484733  0.66148333 -0.00005724
   0.66521372 -0.00337400  0.00009683
   0.33698742 -0.00149142  0.00055751
   0.33839009  0.65636269  0.00026070
   0.66584777  0.34365028 -0.00036395
   0.65380639  0.65411494 -0.00014865
  -0.00964121 -0.00781918  0.00005917
   1.00141541  0.33967776 -0.00037423
   0.35077022  0.35365031  0.00002746
   0.11362294  0.22328405  0.94928148
   0.22551496  0.11107902  0.04913986
   0.10885390  0.55949671  0.94862475
   0.22170898  0.44184354  0.05365533
   0.11332719  0.88552039  0.95048835
   0.21989687  0.77912143  0.04885596
   0.44051424  0.21726745  0.94883092
   0.55356031  0.10641916  0.04967781
   0.44496449  0.55556157  0.94412488
   0.55532620  0.44442908  0.05521845
   0.44697907  0.89339718  0.95019000
   0.55878704  0.78320411  0.05209794
   0.77445054  0.21692882  0.94977792
   0.88229367  0.10885967  0.05109948
   0.78414592  0.56007163  0.94741260
   0.89232319  0.45092730  0.05187679
   0.77349345  0.89045669  0.94857505
   0.89050905  0.77409193  0.05101472
unknown system                          
           1
     8.270690    4.775112    0.000000
    -8.281660    4.794097    0.000000
     0.000000    0.000000   30.000000
   V    Mo   W    S 
   3   3   3  18
Direct configuration=     7
  -0.00556125  0.66092254 -0.00011784
   0.66540026 -0.00382897  0.00013741
   0.33756001 -0.00186488  0.00062899
   0.33857683  0.65496666  0.00020182
   0.66582157  0.34489085 -0.00033764
   0.65338176  0.65381620 -0.00014937
  -0.01203196 -0.01030348  0.00008609
   1.00199106  0.34107770 -0.00038924
   0.35266965  0.35587821  0.00003288
   0.11418149  0.22333596  0.94969514
   0.22550995  0.11191751  0.04872306
   0.10924921  0.55977110  0.94855396
   0.22177713  0.44159262  0.05383097
   0.11311144  0.88534976  0.95053378
   0.22020745  0.77847016  0.04872774
   0.44065027  0.21789581  0.94886251
   0.55402581  0.10694576  0.04960786
   0.44525407  0.55564697  0.94375135
   0.55555616  0.44472082  0.05551813
   0.44690743  0.89294504  0.95019883
   0.55845671  0.78260647  0.05217790
   0.77433180  0.21745690  0.94991635
   0.88216121  0.10909244  0.05106041
   0.78387917  0.56023526  0.94722657
   0.89228708  0.45104283  0.05199718
   0.77295119  0.88993508  0.94836942
   0.88990895  0.77369913  0.05115564
unknown system                          
           1
     8.263212    4.773836    0.000000
    -8.272766    4.790379    0.000000
     0.000000    0.000000   30.000000
   V    Mo   W    S 
   3   3   3  18
Direct configuration=     8
  -0.00571912  0.66084396 -0.00013706
   0.66538890 -0.00399889  0.00014420
   0.33775029 -0.00196549  0.00065187
   0.33855662  0.65475967  0.00018666
   0.66583636  0.34512299 -0.00033625
   0.65351567  0.65397877 -0.00016079
  -0.01268144 -0.01107619  0.00009049
   1.00214125  0.34150421 -0.00039201
   0.35299246  0.35621283  0.00004641
   0.11424662  0.22328669  0.94984053
   0.22544959  0.11205805  0.04858476
   0.10931954  0.55983916  0.94855551
   0.22178483  0.44152623  0.05383365
   0.11304493  0.88531930  0.95057028
   0.22025459  0.77834248  0.04866828
   0.44067752  0.21802553  0.94890044
   0.55413388  0.10705231  0.04956417
   0.44533790  0.55568681  0.94371097
   0.55560789  0.44479959  0.05554804
   0.44690213  0.89288180  0.95022197
   0.55837550  0.78250042  0.05216715
   0.77433707  0.21757578  0.94998557
   0.88216768  0.10912974  0.05101148
   0.78383472  0.56026098  0.94721935
   0.89229606  0.45107142  0.05200121
   0.77284399  0.88987997  0.94832699
   0.88981905  0.77359635  0.05119602
unknown system                          
           1
     8.258149    4.768694    0.000000
    -8.270025    4.789248    0.000000
     0.000000    0.000000   30.000000
   V    Mo   W    S 
   3   3   3  18
Direct configuration=     9
  -0.00571154  0.66050987 -0.00010170
   0.66577108 -0.00332586  0.00012374
   0.33705383 -0.00193225  0.00060243
   0.33861592  0.65521633  0.00021377
   0.66629164  0.34512113 -0.00033862
   0.65330873  0.65342731 -0.00015284
  -0.01135702 -0.00926310  0.00007687
   1.00152595  0.34041043 -0.00040178
   0.35226157  0.35539493  0.00005769
   0.11434959  0.22359562  0.94944260
   0.22574132  0.11203316  0.04894904
   0.10916667  0.55979039  0.94854607
   0.22179186  0.44158350  0.05394907
   0.11309624  0.88515864  0.95048351
   0.22007656  0.77832761  0.04879985
   0.44070114  0.21791920  0.94873218
   0.55400740  0.10687099  0.04968088
   0.44525117  0.55572268  0.94356364
   0.55552189  0.44459004  0.05566665
   0.44698481  0.89288501  0.95015058
   0.55855359  0.78266269  0.05225101
   0.77417138  0.21738162  0.94978662
   0.88194884  0.10907447  0.05121871
   0.78403463  0.56036571  0.94718222
   0.89231934  0.45118729  0.05204033
   0.77285672  0.88980784  0.94840307
   0.88988112  0.77369921  0.05107432
unknown system                          
           1
     8.265326    4.772105    0.000000
    -8.277913    4.793887    0.000000
     0.000000    0.000000   30.000000
   V    Mo   W    S 
   3   3   3  18
Direct configuration=    10
  -0.00630503  0.65995935 -0.00015466
   0.66601789 -0.00347332  0.00017463
   0.33720008 -0.00235852  0.00064677
   0.33873352  0.65431416  0.00017810
   0.66647690  0.34607465 -0.00029057
   0.65298570  0.65313247 -0.00017312
  -0.01264228 -0.01050405  0.00006177
   1.00170492  0.34110824 -0.00039124
   0.35347082  0.35677423  0.00002764
   0.11462693  0.22359329  0.94974696
   0.22561665  0.11245891  0.04866614
   0.10933270  0.55990209  0.94853390
   0.22176920  0.44140983  0.05394877
   0.11288499  0.88504377  0.95057131
   0.22014867  0.77789834  0.04867939
   0.44089681  0.21837399  0.94883565
   0.55423791  0.10721199  0.04956829
   0.44543315  0.55569588  0.94349677
   0.55563099  0.44473784  0.05576503
   0.44696081  0.89266664  0.95020278
   0.55836246  0.78229311  0.05222010
   0.77413542  0.21775812  0.94985750
   0.88194487  0.10923396  0.05119240
   0.78400016  0.56053458  0.94705590
   0.89234823  0.45128761  0.05213320
   0.77262636  0.88957130  0.94832036
   0.88961561  0.77351600  0.05112614
unknown system                          
           1
     8.273145    4.775853    0.000000
    -8.287503    4.800698    0.000000
     0.000000    0.000000   30.000000
   V    Mo   W    S 
   3   3   3  18
Direct configuration=    11
  -0.00634320  0.66014284 -0.00017417
   0.66578831 -0.00391520  0.00017210
   0.33769243 -0.00236968  0.00068442
   0.33868208  0.65406984  0.00016000
   0.66624306  0.34611998 -0.00030643
   0.65323420  0.65356134 -0.00018114
  -0.01363542 -0.01182388  0.00008025
   1.00208415  0.34187336 -0.00039801
   0.35388474  0.35721181  0.00005228
   0.11460461  0.22342232  0.94997185
   0.22548175  0.11252779  0.04845135
   0.10944743  0.55999232  0.94850875
   0.22178809  0.44135038  0.05394813
   0.11286118  0.88510125  0.95059422
   0.22026338  0.77787469  0.04861555
   0.44085509  0.21842781  0.94888736
   0.55435367  0.10731677  0.04953212
   0.44552704  0.55575849  0.94346184
   0.55571052  0.44488234  0.05577996
   0.44693107  0.89265476  0.95021514
   0.55825957  0.78221383  0.05222197
   0.77419553  0.21785338  0.94997718
   0.88201627  0.10924966  0.05108823
   0.78387827  0.56048575  0.94705509
   0.89233879  0.45125765  0.05213228
   0.77252977  0.88958933  0.94822992
   0.88954206  0.77338553  0.05123964
unknown system                          
           1
     8.273397    4.775905    0.000000
    -8.288015    4.801201    0.000000
     0.000000    0.000000   30.000000
   V    Mo   W    S 
   3   3   3  18
Direct configuration=    12
  -0.00694210  0.65987841 -0.00023353
   0.66572854 -0.00458105  0.00018736
   0.33843658 -0.00276347  0.00077520
   0.33866648  0.65331976  0.00011231
   0.66633930  0.34695416 -0.00031662
   0.65360619  0.65409342 -0.00020075
  -0.01591724 -0.01452928  0.00011006
   1.00250628  0.34339395 -0.00041281
   0.35507224  0.35844409  0.00010572
   0.11474863  0.22319718  0.95045265
   0.22524272  0.11291025  0.04799419
   0.10967755  0.56022689  0.94844656
   0.22180732  0.44113106  0.05400124
   0.11265566  0.88501984  0.95065840
   0.22038629  0.77750973  0.04846318
   0.44095025  0.21879145  0.94898553
   0.55471141  0.10767460  0.04942900
   0.44581124  0.55591384  0.94325315
   0.55592565  0.44519828  0.05594117
   0.44694183  0.89253468  0.95023893
   0.55804114  0.78195050  0.05223756
   0.77419103  0.21817036  0.95018301
   0.88204231  0.10933468  0.05095354
   0.78375855  0.56055846  0.94694673
   0.89238417  0.45136574  0.05222442
   0.77214043  0.88947962  0.94801025
   0.88930200  0.77303728  0.05145343
unknown system                          
           1
     8.264842    4.772012    0.000000
    -8.278876    4.796301    0.000000
     0.000000    0.000000   30.000000
   V    Mo   W    S 
   3   3   3  18
Direct configuration=    13
  -0.00709301  0.65984764 -0.00024792
   0.66561803 -0.00485890  0.00019332
   0.33867369 -0.00284680  0.00079958
   0.33866655  0.65316354  0.00009756
   0.66633434  0.34715870 -0.00031724
   0.65373172  0.65426489 -0.00020925
  -0.01650168 -0.01532616  0.00011384
   1.00266482  0.34389391 -0.00041423
   0.35539201  0.35877121  0.00011069
   0.11474380  0.22310866  0.95059349
   0.22516466  0.11296996  0.04786937
   0.10972948  0.56030612  0.94843510
   0.22181344  0.44109200  0.05400513
   0.11260731  0.88500347  0.95067984
   0.22040940  0.77744959  0.04841920
   0.44095726  0.21886069  0.94901585
   0.55480057  0.10775390  0.04940234
   0.44587340  0.55594217  0.94322952
   0.55598859  0.44528938  0.05596274
   0.44693963  0.89251728  0.95024108
   0.55798109  0.78190285  0.05223825
   0.77420614  0.21824053  0.95024490
   0.88206878  0.10934507  0.05089787
   0.78373513  0.56056790  0.94693630
   0.89239836  0.45140002  0.05223348
   0.77205322  0.88947021  0.94795312
   0.88925772  0.77292663  0.05151597
unknown system                          
           1
     8.276303    4.776843    0.000000
    -8.292431    4.804750    0.000000
     0.000000    0.000000   30.000000
   V    Mo   W    S 
   3   3   3  18
Direct configuration=    14
  -0.00713454  0.65960326 -0.00024857
   0.66603262 -0.00423415  0.00019573
   0.33842787 -0.00285832  0.00077387
   0.33872314  0.65317962  0.00010699
   0.66647034  0.34721496 -0.00030653
   0.65355146  0.65385621 -0.00020688
  -0.01628090 -0.01465503  0.00011377
   1.00225500  0.34318597 -0.00041699
   0.35542742  0.35870185  0.00009966
   0.11481857  0.22327993  0.95049113
   0.22525221  0.11301793  0.04795540
   0.10963759  0.56011643  0.94849932
   0.22176475  0.44105616  0.05397451
   0.11258866  0.88499067  0.95071580
   0.22037026  0.77741672  0.04841353
   0.44101301  0.21890311  0.94902341
   0.55475545  0.10773218  0.04937742
   0.44581777  0.55587373  0.94325779
   0.55593883  0.44520532  0.05593352
   0.44697406  0.89251704  0.95029332
   0.55804942  0.78193511  0.05218791
   0.77416234  0.21824204  0.95020181
   0.88199492  0.10937427  0.05096751
   0.78376249  0.56056424  0.94696817
   0.89241373  0.45136747  0.05219266
   0.77210770  0.88949915  0.94803057
   0.88932028  0.77312857  0.05140504
unknown system                          
           1
     8.280713    4.779125    0.000000
    -8.298222    4.809424    0.000000
     0.000000    0.000000   30.000000
   V    Mo   W    S 
   3   3   3  18
Direct configuration=    15
  -0.00777729  0.65966883 -0.00031059
   0.66519708 -0.00601990  0.00021977
   0.33961895 -0.00326128  0.00090334
   0.33869612  0.65252990  0.00003548
   0.66638943  0.34805889 -0.00031497
   0.65423369  0.65497488 -0.00024432
  -0.01885206 -0.01851152  0.00012229
   1.00325495  0.34592829 -0.00041574
   0.35668603  0.36009695  0.00013484
   0.11473177  0.22274289  0.95117327
   0.22483031  0.11322306  0.04735519
   0.10996480  0.56066006  0.94836416
   0.22183206  0.44092119  0.05403320
   0.11239651  0.88492511  0.95075598
   0.22049824  0.77716435  0.04825049
   0.44101422  0.21916920  0.94913196
   0.55518249  0.10810503  0.04929955
   0.44614841  0.55607437  0.94310279
   0.55626189  0.44566992  0.05608382
   0.44693245  0.89243556  0.95023554
   0.55772959  0.78168305  0.05225600
   0.77425038  0.21854377  0.95048106
   0.88217751  0.10939473  0.05068638
   0.78365245  0.56064117  0.94684977
   0.89245807  0.45155895  0.05231454
   0.77166453  0.88940201  0.94770292
   0.88904185  0.77243502  0.05179319
unknown system                          
           1
     8.279426    4.778514    0.000000
    -8.296573    4.808188    0.000000
     0.000000    0.000000   30.000000
   V    Mo   W    S 
   3   3   3  18
Direct configuration=    16
  -0.00849883  0.65944784 -0.00035262
   0.66467546 -0.00730495  0.00023913
   0.34045522 -0.00361986  0.00099755
   0.33880143  0.65225899 -0.00002055
   0.66655162  0.34887308 -0.00031392
   0.65478993  0.65567322 -0.00026514
  -0.02062318 -0.02108675  0.00012002
   1.00369410  0.34778108 -0.00041003
   0.35761176  0.36096065  0.00016792
   0.11461671  0.22239926  0.95166751
   0.22453098  0.11335089  0.04693831
   0.11016701  0.56106199  0.94827173
   0.22184512  0.44079564  0.05406483
   0.11223356  0.88483980  0.95079722
   0.22052449  0.77694581  0.04812261
   0.44107104  0.21940806  0.94921268
   0.55556325  0.10839998  0.04922699
   0.44637748  0.55621605  0.94297862
   0.55651365  0.44600545  0.05619006
   0.44696363  0.89240031  0.95018909
   0.55753682  0.78156010  0.05229257
   0.77429009  0.21876223  0.95069648
   0.88228306  0.10940212  0.05047699
   0.78361631  0.56071211  0.94676675
   0.89250092  0.45172918  0.05241072
   0.77128284  0.88934651  0.94747502
   0.88884001  0.77189565  0.05205935
unknown system                          
           1
     8.278602    4.780421    0.000000
    -8.294772    4.808420    0.000000
     0.000000    0.000000   30.000000
   V    Mo   W    S 
   3   3   3  18
Direct configuration=    17
  -0.00819848  0.65957189 -0.00034180
   0.66491491 -0.00675646  0.00023505
   0.34021222 -0.00347214  0.00096536
   0.33871263  0.65225150  0.00000125
   0.66643604  0.34857379 -0.00031858
   0.65462066  0.65546751 -0.00025680
  -0.02020278 -0.02040809  0.00013157
   1.00359917  0.34717256 -0.00041519
   0.35734816  0.36072730  0.00016574
   0.11469802  0.22250811  0.95150638
   0.22462818  0.11335676  0.04706190
   0.11010652  0.56090743  0.94830411
   0.22184397  0.44081655  0.05406527
   0.11228877  0.88487407  0.95078320
   0.22053639  0.77700569  0.04816296
   0.44103223  0.21932588  0.94918303
   0.55542456  0.10830148  0.04925331
   0.44631353  0.55618625  0.94300118
   0.55643147  0.44590499  0.05616069
   0.44694046  0.89239669  0.95021510
   0.55758876  0.78158985  0.05227543
   0.77427170  0.21869885  0.95062205
   0.88223597  0.10940036  0.05055449
   0.78361907  0.56067698  0.94679849
   0.89249519  0.45166596  0.05236623
   0.77140799  0.88937722  0.94754093
   0.88890915  0.77209346  0.05197855
unknown system                          
           1
     8.273526    4.775575    0.000000
    -8.291524    4.806728    0.000000
     0.000000    0.000000   30.000000
   V    Mo   W    S 
   3   3   3  18
Direct configuration=    18
  -0.00655283  0.65993840 -0.00031047
   0.66665458 -0.00315696  0.00023398
   0.33928864 -0.00268781  0.00076747
   0.33795630  0.65174166  0.00010581
   0.66581868  0.34714303 -0.00034444
   0.65382453  0.65453486 -0.00024840
  -0.01895885 -0.01775160  0.00017512
   1.00324109  0.34427140 -0.00044545
   0.35623512  0.35982040  0.00012841
   0.11521309  0.22282248  0.95085955
   0.22494869  0.11356847  0.04750975
   0.10978672  0.56024030  0.94843939
   0.22179270  0.44073362  0.05414025
   0.11249507  0.88495696  0.95077535
   0.22061738  0.77720745  0.04829810
   0.44081319  0.21899277  0.94903728
   0.55483205  0.10787683  0.04938723
   0.44617223  0.55615757  0.94305526
   0.55625314  0.44558645  0.05609528
   0.44688003  0.89237936  0.95042657
   0.55776675  0.78184560  0.05210944
   0.77411308  0.21844397  0.95026570
   0.88185595  0.10936108  0.05095133
   0.78375983  0.56048585  0.94697775
   0.89251256  0.45144651  0.05208891
   0.77172893  0.88959557  0.94779310
   0.88916580  0.77266021  0.05172763
unknown system                          
           1
     8.278715    4.778381    0.000000
    -8.297141    4.810275    0.000000
     0.000000    0.000000   30.000000
   V    Mo   W    S 
   3   3   3  18
Direct configuration=    19
  -0.00692416  0.65997696 -0.00032470
   0.66682789 -0.00334686  0.00024062
   0.34013701 -0.00296697  0.00084928
   0.33775000  0.65102162  0.00005618
   0.66561937  0.34761438 -0.00032927
   0.65413548  0.65488444 -0.00023058
  -0.02053799 -0.01989489  0.00018620
   1.00375111  0.34560094 -0.00041077
   0.35723994  0.36089662  0.00018670
   0.11495981  0.22225210  0.95137040
   0.22445338  0.11355543  0.04704177
   0.10999883  0.56042717  0.94834265
   0.22176558  0.44053805  0.05412531
   0.11220910  0.88492311  0.95087401
   0.22075470  0.77709191  0.04815724
   0.44089539  0.21929102  0.94913098
   0.55507847  0.10824620  0.04935034
   0.44636971  0.55629157  0.94301449
   0.55647195  0.44592727  0.05610429
   0.44685326  0.89229230  0.95045699
   0.55748788  0.78166963  0.05201616
   0.77433038  0.21886497  0.95041494
   0.88208753  0.10939682  0.05077925
   0.78370383  0.56050593  0.94694706
   0.89253828  0.45146301  0.05211463
   0.77133028  0.88952853  0.94764958
   0.88892744  0.77216318  0.05188615
unknown system                          
           1
     8.282162    4.779452    0.000000
    -8.302297    4.814300    0.000000
     0.000000    0.000000   30.000000
   V    Mo   W    S 
   3   3   3  18
Direct configuration=    20
  -0.00743331  0.65985282 -0.00034420
   0.66635112 -0.00437714  0.00024123
   0.34057618 -0.00320568  0.00090592
   0.33789746  0.65109235  0.00001036
   0.66578868  0.34808082 -0.00032891
   0.65447834  0.65528943 -0.00025063
  -0.02120341 -0.02107286  0.00016832
   1.00396534  0.34669988 -0.00040611
   0.35759394  0.36119952  0.00018916
   0.11481934  0.22208795  0.95161913
   0.22432396  0.11353013  0.04685531
   0.11010347  0.56068829  0.94828158
   0.22178332  0.44052794  0.05414293
   0.11214180  0.88487026  0.95087466
   0.22074378  0.77700681  0.04810707
   0.44093404  0.21940113  0.94917145
   0.55530059  0.10839959  0.04932054
   0.44645890  0.55633815  0.94296511
   0.55658974  0.44607915  0.05617035
   0.44687511  0.89230427  0.95039311
   0.55740227  0.78161626  0.05206902
   0.77436945  0.21897000  0.95053477
   0.88218749  0.10939964  0.05065505
   0.78367947  0.56056448  0.94688739
   0.89254210  0.45156218  0.05220469
   0.77113596  0.88946234  0.94753255
   0.88880931  0.77184674  0.05203002
unknown system                          
           1
     8.280633    4.778811    0.000000
    -8.300402    4.813026    0.000000
     0.000000    0.000000   30.000000
   V    Mo   W    S 
   3   3   3  18
Direct configuration=    21
  -0.00848128  0.65957471 -0.00038701
   0.66565189 -0.00622295  0.00024539
   0.34179656 -0.00364441  0.00102789
   0.33800916  0.65084423 -0.00008828
   0.66598323  0.34906544 -0.00032449
   0.65513868  0.65613839 -0.00028189
  -0.02306088 -0.02403144  0.00013960
   1.00462885  0.34926978 -0.00038747
   0.35856138  0.36213032  0.00021686
   0.11446941  0.22157767  0.95226431
   0.22391254  0.11349210  0.04634078
   0.11034851  0.56123057  0.94813545
   0.22182208  0.44045127  0.05417780
   0.11192247  0.88476063  0.95090459
   0.22079413  0.77680790  0.04797100
   0.44101913  0.21971739  0.94927776
   0.55584500  0.10882643  0.04925953
   0.44669113  0.55646370  0.94285970
   0.55687745  0.44647207  0.05628585
   0.44693904  0.89230855  0.95028812
   0.55714130  0.78150582  0.05211394
   0.77452951  0.21932627  0.95082439
   0.88243487  0.10939993  0.05035802
   0.78359366  0.56063711  0.94677903
   0.89254337  0.45172702  0.05236280
   0.77061037  0.88933079  0.94727021
   0.88849286  0.77105516  0.05236604
unknown system                          
           1
     8.273342    4.774407    0.000000
    -8.294345    4.810760    0.000000
     0.000000    0.000000   30.000000
   V    Mo   W    S 
   3   3   3  18
Direct configuration=    22
  -0.00807230  0.65967100 -0.00037824
   0.66604764 -0.00535673  0.00024359
   0.34138509 -0.00346986  0.00098027
   0.33790425  0.65081257 -0.00005229
   0.66588789  0.34868417 -0.00033034
   0.65487618  0.65581057 -0.00027625
  -0.02250958 -0.02302796  0.00015144
   1.00437587  0.34830900 -0.00040243
   0.35826155  0.36184113  0.00020408
   0.11463083  0.22175211  0.95204046
   0.22403935  0.11354357  0.04651250
   0.11025741  0.56098931  0.94819276
   0.22180141  0.44045072  0.05416918
   0.11198384  0.88480314  0.95089535
   0.22078975  0.77685913  0.04802418
   0.44099019  0.21962573  0.94923897
   0.55564780  0.10869550  0.04928793
   0.44662214  0.55642923  0.94289267
   0.55679158  0.44634300  0.05625350
   0.44691326  0.89229403  0.95033583
   0.55723278  0.78155060  0.05208708
   0.77446821  0.21921978  0.95071110
   0.88233257  0.10939890  0.05048104
   0.78362217  0.56060006  0.94681850
   0.89254553  0.45165189  0.05230201
   0.77078287  0.88938704  0.94736230
   0.88860617  0.77134683  0.05225470
unknown system                          
           1
     8.284239    4.780289    0.000000
    -8.305193    4.816552    0.000000
     0.000000    0.000000   30.000000
   V    Mo   W    S 
   3   3   3  18
Direct configuration=    23
  -0.00763474  0.65986971 -0.00036070
   0.66671563 -0.00379479  0.00026554
   0.34130021 -0.00340667  0.00092732
   0.33725793  0.64994077 -0.00003329
   0.66562829  0.34856267 -0.00030983
   0.65475482  0.65539731 -0.00025298
  -0.02263691 -0.02346798  0.00019360
   1.00454080  0.34827218 -0.00037078
   0.35845407  0.36211559  0.00023230
   0.11474956  0.22161398  0.95207544
   0.22396617  0.11362174  0.04642086
   0.11029425  0.56087484  0.94815965
   0.22174955  0.44023824  0.05419660
   0.11198319  0.88484997  0.95092858
   0.22090044  0.77690491  0.04799165
   0.44090531  0.21954816  0.94922947
   0.55542918  0.10882267  0.04935855
   0.44669456  0.55648124  0.94284748
   0.55687184  0.44643132  0.05627182
   0.44662971  0.89217503  0.95039442
   0.55706777  0.78132364  0.05203166
   0.77450947  0.21948052  0.95055801
   0.88249943  0.10950775  0.05061286
   0.78361729  0.56058594  0.94680523
   0.89259235  0.45157838  0.05226292
   0.77075235  0.88932352  0.94729685
   0.88862192  0.77136383  0.05226668
unknown system                          
           1
     8.286469    4.780689    0.000000
    -8.308786    4.819309    0.000000
     0.000000    0.000000   30.000000
   V    Mo   W    S 
   3   3   3  18
Direct configuration=    24
  -0.00898726  0.65949009 -0.00039626
   0.66523553 -0.00713152  0.00025176
   0.34240608 -0.00389438  0.00108636
   0.33801437  0.65070257 -0.00014076
   0.66606035  0.34959494 -0.00031242
   0.65552090  0.65655082 -0.00028745
  -0.02392578 -0.02563705  0.00012822
   1.00504843  0.35068792 -0.00035706
   0.35903388  0.36260803  0.00024093
   0.11424782  0.22127178  0.95260819
   0.22370194  0.11342805  0.04606243
   0.11049279  0.56157101  0.94803714
   0.22184036  0.44039999  0.05420436
   0.11182938  0.88470218  0.95092434
   0.22082824  0.77674261  0.04788499
   0.44104003  0.21983668  0.94933092
   0.55608959  0.10904950  0.04923676
   0.44681294  0.55653162  0.94279698
   0.55702885  0.44668828  0.05634528
   0.44691591  0.89230545  0.95023113