   27   27  100    1
  0.9710400E+02  0.1002848E-08  0.1002848E-08  0.3000000E-08  0.5000000E-15
  1.000000000000000E-004
  CAR 
 unknown system                          
    159     34    120
 
  0.0000000E+00  0.0000000E+00  0.0000000E+00  0.1562500E-01
    1      -17.787106   1.000000
    2      -16.694855   1.000000
    3      -16.596357   1.000000
    4      -16.583663   1.000000
    5      -16.491621   1.000000
    6      -16.477154   1.000000
    7      -16.414284   1.000000
    8      -16.348289   1.000000
    9      -16.132388   1.000000
   10      -16.125499   1.000000
   11      -16.097619   1.000000
   12      -16.013653   1.000000
   13      -15.885463   1.000000
   14      -15.660567   1.000000
   15      -15.635253   1.000000
   16      -15.527909   1.000000
   17      -15.317369   1.000000
   18      -15.271188   1.000000
   19       -9.214568   1.000000
   20       -8.962912   1.000000
   21       -8.934520   1.000000
   22       -8.824797   1.000000
   23       -8.743373   1.000000
   24       -8.712589   1.000000
   25       -8.648997   1.000000
   26       -8.602252   1.000000
   27       -8.498401   1.000000
   28       -8.444023   1.000000
   29       -8.383907   1.000000
   30       -8.349002   1.000000
   31       -8.315822   1.000000
   32       -8.170772   1.000000
   33       -7.992462   1.000000
   34       -7.976696   1.000000
   35       -7.859644   1.000000
   36       -7.795211   1.000000
   37       -7.778665   1.000000
   38       -7.538061   1.000000
   39       -7.406657   1.000000
   40       -7.391171   1.000000
   41       -7.344053   1.000000
   42       -7.276040   1.000000
   43       -7.099913   1.000000
   44       -6.959826   1.000000
   45       -6.831031   1.000000
   46       -6.792925   1.000000
   47       -6.736544   1.000000
   48       -6.584218   1.000000
   49       -6.567919   1.000000
   50       -6.501486   1.000000
   51       -6.424466   1.000000
   52       -6.381031   1.000000
   53       -6.291763   1.000000
   54       -6.284859   1.000000
   55       -6.227860   1.000000
   56       -6.198150   1.000000
   57       -6.045608   1.000000
   58       -5.931468   1.000000
   59       -5.707554   1.000000
   60       -5.561723   1.000000
   61       -5.524215   1.000000
   62       -5.430431   1.000000
   63       -5.322068   1.000000
   64       -5.181757   1.000000
   65       -5.112078   1.000000
   66       -5.022063   1.000000
   67       -4.994640   1.000000
   68       -4.838624   1.000000
   69       -4.809884   1.000000
   70       -4.733769   1.000000
   71       -4.652025   1.000000
   72       -4.579271   1.000000
   73       -4.481221   1.000000
   74       -4.190113   1.000000
   75       -4.160623   1.000000
   76       -4.055865   1.000000
   77       -3.719044   0.999549
   78       -3.535040   0.978218
   79       -3.522111   0.973001
   80       -3.419311   0.884919
   81       -3.319029   0.688232
   82       -2.877571   0.004260
   83       -2.628168   0.000006
   84       -2.579415   0.000001
   85       -2.437624   0.000000
   86       -2.420580   0.000000
   87       -2.246130   0.000000
   88       -2.172466   0.000000
   89       -2.138873   0.000000
   90       -2.031358   0.000000
   91       -1.964798   0.000000
   92       -1.875385   0.000000
   93       -1.468608   0.000000
   94       -1.217618   0.000000
   95       -1.112042   0.000000
   96       -1.044475   0.000000
   97       -0.997234   0.000000
   98       -0.851345   0.000000
   99       -0.715937   0.000000
  100       -0.670595   0.000000
  101       -0.650641   0.000000
  102       -0.437098   0.000000
  103       -0.402150   0.000000
  104       -0.383505   0.000000
  105       -0.267732   0.000000
  106       -0.104280   0.000000
  107       -0.076784   0.000000
  108        0.028910   0.000000
  109        0.060378   0.000000
  110        0.192934   0.000000
  111        0.317046   0.000000
  112        0.411669   0.000000
  113        0.728534   0.000000
  114        0.869314   0.000000
  115        0.993957   0.000000
  116        1.096602   0.000000
  117        1.150878   0.000000
  118        1.631694   0.000000
  119        1.825309   0.000000
  120        2.135840   0.000000
 
  0.1250000E+00  0.2775558E-16  0.0000000E+00  0.3125000E-01
    1      -17.761981   1.000000
    2      -16.771886   1.000000
    3      -16.674856   1.000000
    4      -16.601581   1.000000
    5      -16.516398   1.000000
    6      -16.433393   1.000000
    7      -16.370058   1.000000
    8      -16.292352   1.000000
    9      -16.195578   1.000000
   10      -16.109920   1.000000
   11      -16.031861   1.000000
   12      -15.981444   1.000000
   13      -15.861122   1.000000
   14      -15.677038   1.000000
   15      -15.636444   1.000000
   16      -15.533750   1.000000
   17      -15.324065   1.000000
   18      -15.275888   1.000000
   19       -9.212636   1.000000
   20       -9.132504   1.000000
   21       -8.994026   1.000000
   22       -8.931053   1.000000
   23       -8.775571   1.000000
   24       -8.718723   1.000000
   25       -8.684233   1.000000
   26       -8.548914   1.000000
   27       -8.487298   1.000000
   28       -8.447331   1.000000
   29       -8.394296   1.000000
   30       -8.264300   1.000000
   31       -8.201603   1.000000
   32       -8.062723   1.000000
   33       -7.975760   1.000000
   34       -7.887547   1.000000
   35       -7.821312   1.000000
   36       -7.748289   1.000000
   37       -7.709865   1.000000
   38       -7.570585   1.000000
   39       -7.478457   1.000000
   40       -7.385032   1.000000
   41       -7.294523   1.000000
   42       -7.238444   1.000000
   43       -7.138835   1.000000
   44       -7.007884   1.000000
   45       -6.874529   1.000000
   46       -6.823787   1.000000
   47       -6.751984   1.000000
   48       -6.622375   1.000000
   49       -6.545507   1.000000
   50       -6.447484   1.000000
   51       -6.430596   1.000000
   52       -6.385590   1.000000
   53       -6.331320   1.000000
   54       -6.264797   1.000000
   55       -6.209873   1.000000
   56       -6.169471   1.000000
   57       -5.968900   1.000000
   58       -5.942954   1.000000
   59       -5.712271   1.000000
   60       -5.566202   1.000000
   61       -5.548726   1.000000
   62       -5.437547   1.000000
   63       -5.303852   1.000000
   64       -5.293826   1.000000
   65       -5.202513   1.000000
   66       -5.082720   1.000000
   67       -5.012234   1.000000
   68       -4.853404   1.000000
   69       -4.813282   1.000000
   70       -4.708909   1.000000
   71       -4.598782   1.000000
   72       -4.492195   1.000000
   73       -4.453051   1.000000
   74       -4.169225   1.000000
   75       -4.076004   1.000000
   76       -4.041309   1.000000
   77       -3.889336   0.999997
   78       -3.694452   0.999171
   79       -3.466339   0.937298
   80       -3.413813   0.877193
   81       -3.181789   0.315758
   82       -2.847477   0.002231
   83       -2.621571   0.000004
   84       -2.584411   0.000001
   85       -2.425198   0.000000
   86       -2.409367   0.000000
   87       -2.230715   0.000000
   88       -2.156593   0.000000
   89       -2.130977   0.000000
   90       -2.022715   0.000000
   91       -1.963675   0.000000
   92       -1.876611   0.000000
   93       -1.467627   0.000000
   94       -1.228387   0.000000
   95       -1.104058   0.000000
   96       -1.044223   0.000000
   97       -0.987719   0.000000
   98       -0.863398   0.000000
   99       -0.761774   0.000000
  100       -0.726645   0.000000
  101       -0.661233   0.000000
  102       -0.507640   0.000000
  103       -0.477192   0.000000
  104       -0.430696   0.000000
  105       -0.306737   0.000000
  106       -0.178418   0.000000
  107       -0.133659   0.000000
  108       -0.011060   0.000000
  109        0.100533   0.000000
  110        0.207846   0.000000
  111        0.391173   0.000000
  112        0.492837   0.000000
  113        0.695710   0.000000
  114        0.861765   0.000000
  115        1.023658   0.000000
  116        1.100696   0.000000
  117        1.193655   0.000000
  118        1.675742   0.000000
  119        1.864710   0.000000
  120        2.170818   0.000000
 
  0.2500000E+00  0.5551115E-16  0.0000000E+00  0.3125000E-01
    1      -17.687634   1.000000
    2      -16.981529   1.000000
    3      -16.701961   1.000000
    4      -16.640238   1.000000
    5      -16.576253   1.000000
    6      -16.370263   1.000000
    7      -16.330278   1.000000
    8      -16.248958   1.000000
    9      -16.173487   1.000000
   10      -16.071911   1.000000
   11      -16.013725   1.000000
   12      -15.909250   1.000000
   13      -15.796101   1.000000
   14      -15.712370   1.000000
   15      -15.629782   1.000000
   16      -15.551059   1.000000
   17      -15.341976   1.000000
   18      -15.286971   1.000000
   19       -9.455424   1.000000
   20       -9.189632   1.000000
   21       -9.099629   1.000000
   22       -9.029139   1.000000
   23       -8.856809   1.000000
   24       -8.779996   1.000000
   25       -8.636510   1.000000
   26       -8.514009   1.000000
   27       -8.487224   1.000000
   28       -8.383580   1.000000
   29       -8.300513   1.000000
   30       -8.184381   1.000000
   31       -8.133850   1.000000
   32       -8.073943   1.000000
   33       -7.881199   1.000000
   34       -7.777119   1.000000
   35       -7.737417   1.000000
   36       -7.688924   1.000000
   37       -7.592358   1.000000
   38       -7.491945   1.000000
   39       -7.466734   1.000000
   40       -7.378514   1.000000
   41       -7.306627   1.000000
   42       -7.174753   1.000000
   43       -7.147668   1.000000
   44       -7.019861   1.000000
   45       -6.905101   1.000000
   46       -6.866017   1.000000
   47       -6.777754   1.000000
   48       -6.642660   1.000000
   49       -6.571433   1.000000
   50       -6.465390   1.000000
   51       -6.432348   1.000000
   52       -6.377206   1.000000
   53       -6.293180   1.000000
   54       -6.231961   1.000000
   55       -6.152464   1.000000
   56       -6.076873   1.000000
   57       -5.973213   1.000000
   58       -5.893400   1.000000
   59       -5.743287   1.000000
   60       -5.666797   1.000000
   61       -5.628197   1.000000
   62       -5.583105   1.000000
   63       -5.530761   1.000000
   64       -5.307845   1.000000
   65       -5.207914   1.000000
   66       -5.097291   1.000000
   67       -5.042698   1.000000
   68       -4.896784   1.000000
   69       -4.792127   1.000000
   70       -4.637337   1.000000
   71       -4.504839   1.000000
   72       -4.380793   1.000000
   73       -4.371478   1.000000
   74       -4.267222   1.000000
   75       -4.098066   1.000000
   76       -4.028262   1.000000
   77       -3.966437   1.000000
   78       -3.831034   0.999980
   79       -3.439148   0.909911
   80       -3.371761   0.806128
   81       -3.032691   0.062530
   82       -2.780008   0.000449
   83       -2.617014   0.000004
   84       -2.573591   0.000001
   85       -2.406031   0.000000
   86       -2.391345   0.000000
   87       -2.235042   0.000000
   88       -2.124500   0.000000
   89       -2.063432   0.000000
   90       -2.015611   0.000000
   91       -1.934292   0.000000
   92       -1.858834   0.000000
   93       -1.471709   0.000000
   94       -1.251698   0.000000
   95       -1.096538   0.000000
   96       -1.044192   0.000000
   97       -1.001600   0.000000
   98       -0.948307   0.000000
   99       -0.850681   0.000000
  100       -0.812514   0.000000
  101       -0.689797   0.000000
  102       -0.661470   0.000000
  103       -0.595642   0.000000
  104       -0.523709   0.000000
  105       -0.431862   0.000000
  106       -0.257779   0.000000
  107       -0.223980   0.000000
  108       -0.099584   0.000000
  109        0.120485   0.000000
  110        0.254380   0.000000
  111        0.399644   0.000000
  112        0.576565   0.000000
  113        0.716420   0.000000
  114        0.916191   0.000000
  115        1.037893   0.000000
  116        1.133884   0.000000
  117        1.314053   0.000000
  118        1.798342   0.000000
  119        1.976204   0.000000
  120        2.274503   0.000000
 
  0.3750000E+00  0.0000000E+00  0.0000000E+00  0.3125000E-01
    1      -17.567899   1.000000
    2      -17.197376   1.000000
    3      -16.738604   1.000000
    4      -16.654740   1.000000
    5      -16.596670   1.000000
    6      -16.384980   1.000000
    7      -16.315184   1.000000
    8      -16.199509   1.000000
    9      -16.119947   1.000000
   10      -16.011954   1.000000
   11      -15.979744   1.000000
   12      -15.887931   1.000000
   13      -15.779510   1.000000
   14      -15.757468   1.000000
   15      -15.583492   1.000000
   16      -15.556454   1.000000
   17      -15.371258   1.000000
   18      -15.294518   1.000000
   19       -9.668688   1.000000
   20       -9.277225   1.000000
   21       -9.176820   1.000000
   22       -9.002873   1.000000
   23       -8.914493   1.000000
   24       -8.820416   1.000000
   25       -8.569345   1.000000
   26       -8.472983   1.000000
   27       -8.420468   1.000000
   28       -8.316903   1.000000
   29       -8.287020   1.000000
   30       -8.198770   1.000000
   31       -8.144541   1.000000
   32       -8.021455   1.000000
   33       -7.940770   1.000000
   34       -7.797804   1.000000
   35       -7.722531   1.000000
   36       -7.654248   1.000000
   37       -7.571005   1.000000
   38       -7.463239   1.000000
   39       -7.385867   1.000000
   40       -7.258497   1.000000
   41       -7.211106   1.000000
   42       -7.145380   1.000000
   43       -7.070943   1.000000
   44       -7.028749   1.000000
   45       -6.871870   1.000000
   46       -6.818392   1.000000
   47       -6.694106   1.000000
   48       -6.595571   1.000000
   49       -6.580642   1.000000
   50       -6.510154   1.000000
   51       -6.408982   1.000000
   52       -6.341477   1.000000
   53       -6.262084   1.000000
   54       -6.179432   1.000000
   55       -6.150551   1.000000
   56       -6.073566   1.000000
   57       -5.993791   1.000000
   58       -5.940918   1.000000
   59       -5.864392   1.000000
   60       -5.824393   1.000000
   61       -5.758903   1.000000
   62       -5.673495   1.000000
   63       -5.594013   1.000000
   64       -5.383836   1.000000
   65       -5.189673   1.000000
   66       -5.019770   1.000000
   67       -5.002353   1.000000
   68       -4.905318   1.000000
   69       -4.836778   1.000000
   70       -4.709482   1.000000
   71       -4.516115   1.000000
   72       -4.436926   1.000000
   73       -4.300227   1.000000
   74       -4.230990   1.000000
   75       -4.152838   1.000000
   76       -4.068188   1.000000
   77       -3.943129   1.000000
   78       -3.726158   0.999624
   79       -3.475060   0.944548
   80       -3.322817   0.697641
   81       -2.928117   0.011503
   82       -2.725788   0.000106
   83       -2.627599   0.000005
   84       -2.542321   0.000000
   85       -2.396126   0.000000
   86       -2.363454   0.000000
   87       -2.265935   0.000000
   88       -2.090919   0.000000
   89       -2.017049   0.000000
   90       -1.972791   0.000000
   91       -1.897120   0.000000
   92       -1.797005   0.000000
   93       -1.483831   0.000000
   94       -1.269247   0.000000
   95       -1.171575   0.000000
   96       -1.078938   0.000000
   97       -1.054564   0.000000
   98       -0.972609   0.000000
   99       -0.897670   0.000000
  100       -0.892863   0.000000
  101       -0.822022   0.000000
  102       -0.746110   0.000000
  103       -0.675510   0.000000
  104       -0.592866   0.000000
  105       -0.490258   0.000000
  106       -0.320545   0.000000
  107       -0.284765   0.000000
  108       -0.188312   0.000000
  109        0.066749   0.000000
  110        0.238049   0.000000
  111        0.418619   0.000000
  112        0.606089   0.000000
  113        0.742051   0.000000
  114        0.978992   0.000000
  115        1.080399   0.000000
  116        1.201145   0.000000
  117        1.416727   0.000000
  118        1.981697   0.000000
  119        2.147423   0.000000
  120        2.443237   0.000000
 
  0.5000000E+00  0.1110223E-15  0.0000000E+00  0.1562500E-01
    1      -17.440267   1.000000
    2      -17.358838   1.000000
    3      -16.752893   1.000000
    4      -16.663800   1.000000
    5      -16.594858   1.000000
    6      -16.401018   1.000000
    7      -16.308286   1.000000
    8      -16.183294   1.000000
    9      -16.091193   1.000000
   10      -15.995973   1.000000
   11      -15.929053   1.000000
   12      -15.895036   1.000000
   13      -15.800715   1.000000
   14      -15.776856   1.000000
   15      -15.590771   1.000000
   16      -15.512024   1.000000
   17      -15.395631   1.000000
   18      -15.295593   1.000000
   19       -9.745358   1.000000
   20       -9.314251   1.000000
   21       -9.209647   1.000000
   22       -8.994810   1.000000
   23       -8.925611   1.000000
   24       -8.805617   1.000000
   25       -8.539402   1.000000
   26       -8.472889   1.000000
   27       -8.421253   1.000000
   28       -8.290541   1.000000
   29       -8.256402   1.000000
   30       -8.199001   1.000000
   31       -8.106328   1.000000
   32       -8.058654   1.000000
   33       -7.927380   1.000000
   34       -7.876129   1.000000
   35       -7.764777   1.000000
   36       -7.647161   1.000000
   37       -7.578162   1.000000
   38       -7.436362   1.000000
   39       -7.379094   1.000000
   40       -7.197748   1.000000
   41       -7.161476   1.000000
   42       -7.113998   1.000000
   43       -7.045472   1.000000
   44       -6.965837   1.000000
   45       -6.867411   1.000000
   46       -6.732026   1.000000
   47       -6.635542   1.000000
   48       -6.597626   1.000000
   49       -6.544947   1.000000
   50       -6.472857   1.000000
   51       -6.386988   1.000000
   52       -6.354661   1.000000
   53       -6.284916   1.000000
   54       -6.269301   1.000000
   55       -6.230003   1.000000
   56       -6.127921   1.000000
   57       -5.991548   1.000000
   58       -5.929321   1.000000
   59       -5.872557   1.000000
   60       -5.809424   1.000000
   61       -5.765357   1.000000
   62       -5.654038   1.000000
   63       -5.604244   1.000000
   64       -5.467662   1.000000
   65       -5.253547   1.000000
   66       -5.044917   1.000000
   67       -4.973242   1.000000
   68       -4.957209   1.000000
   69       -4.889511   1.000000
   70       -4.682011   1.000000
   71       -4.512271   1.000000
   72       -4.412544   1.000000
   73       -4.279669   1.000000
   74       -4.236403   1.000000
   75       -4.199607   1.000000
   76       -4.055581   1.000000
   77       -3.910386   0.999999
   78       -3.649636   0.997662
   79       -3.520150   0.972125
   80       -3.304568   0.651210
   81       -2.885025   0.004968
   82       -2.718595   0.000087
   83       -2.619257   0.000004
   84       -2.537817   0.000000
   85       -2.392037   0.000000
   86       -2.338825   0.000000
   87       -2.283804   0.000000
   88       -2.085892   0.000000
   89       -1.994089   0.000000
   90       -1.954103   0.000000
   91       -1.882533   0.000000
   92       -1.752722   0.000000
   93       -1.491319   0.000000
   94       -1.258596   0.000000
   95       -1.245285   0.000000
   96       -1.087469   0.000000
   97       -1.071065   0.000000
   98       -1.021570   0.000000
   99       -0.916237   0.000000
  100       -0.891221   0.000000
  101       -0.881890   0.000000
  102       -0.777524   0.000000
  103       -0.710314   0.000000
  104       -0.606673   0.000000
  105       -0.510950   0.000000
  106       -0.347995   0.000000
  107       -0.302548   0.000000
  108       -0.225154   0.000000
  109        0.034275   0.000000
  110        0.223573   0.000000
  111        0.431140   0.000000
  112        0.621511   0.000000
  113        0.737854   0.000000
  114        1.000049   0.000000
  115        1.111820   0.000000
  116        1.228476   0.000000
  117        1.456338   0.000000
  118        2.203745   0.000000
  119        2.222735   0.000000
  120        2.364370   0.000000
 
  0.0000000E+00  0.1250000E+00  0.0000000E+00  0.3125000E-01
    1      -17.762063   1.000000
    2      -16.767377   1.000000
    3      -16.652353   1.000000
    4      -16.619988   1.000000
    5      -16.547876   1.000000
    6      -16.413039   1.000000
    7      -16.360371   1.000000
    8      -16.308337   1.000000
    9      -16.184590   1.000000
   10      -16.114771   1.000000
   11      -16.032566   1.000000
   12      -15.964372   1.000000
   13      -15.881663   1.000000
   14      -15.679874   1.000000
   15      -15.630325   1.000000
   16      -15.526867   1.000000
   17      -15.320898   1.000000
   18      -15.281611   1.000000
   19       -9.232221   1.000000
   20       -9.114699   1.000000
   21       -8.989224   1.000000
   22       -8.951156   1.000000
   23       -8.782919   1.000000
   24       -8.727163   1.000000
   25       -8.646743   1.000000
   26       -8.586191   1.000000
   27       -8.488422   1.000000
   28       -8.399708   1.000000
   29       -8.379313   1.000000
   30       -8.330100   1.000000
   31       -8.163620   1.000000
   32       -8.056370   1.000000
   33       -7.982045   1.000000
   34       -7.928608   1.000000
   35       -7.803478   1.000000
   36       -7.735625   1.000000
   37       -7.671796   1.000000
   38       -7.555230   1.000000
   39       -7.529632   1.000000
   40       -7.388312   1.000000
   41       -7.314482   1.000000
   42       -7.227361   1.000000
   43       -7.109767   1.000000
   44       -6.974475   1.000000
   45       -6.925453   1.000000
   46       -6.844402   1.000000
   47       -6.730313   1.000000
   48       -6.597068   1.000000
   49       -6.489838   1.000000
   50       -6.467293   1.000000
   51       -6.417818   1.000000
   52       -6.390745   1.000000
   53       -6.325812   1.000000
   54       -6.278242   1.000000
   55       -6.227112   1.000000
   56       -6.193828   1.000000
   57       -5.993340   1.000000
   58       -5.943356   1.000000
   59       -5.689816   1.000000
   60       -5.605528   1.000000
   61       -5.540372   1.000000
   62       -5.435805   1.000000
   63       -5.358465   1.000000
   64       -5.246919   1.000000
   65       -5.137602   1.000000
   66       -5.020936   1.000000
   67       -4.993325   1.000000
   68       -4.917967   1.000000
   69       -4.801439   1.000000
   70       -4.732103   1.000000
   71       -4.703584   1.000000
   72       -4.508657   1.000000
   73       -4.434078   1.000000
   74       -4.169767   1.000000
   75       -4.050264   1.000000
   76       -4.037305   1.000000
   77       -3.823581   0.999975
   78       -3.744262   0.999765
   79       -3.532911   0.977423
   80       -3.321323   0.693945
   81       -3.186093   0.326660
   82       -2.848132   0.002263
   83       -2.613582   0.000003
   84       -2.599493   0.000002
   85       -2.440346   0.000000
   86       -2.382336   0.000000
   87       -2.249200   0.000000
   88       -2.156903   0.000000
   89       -2.132090   0.000000
   90       -2.011068   0.000000
   91       -1.997766   0.000000
   92       -1.857585   0.000000
   93       -1.461295   0.000000
   94       -1.212310   0.000000
   95       -1.115330   0.000000
   96       -1.033204   0.000000
   97       -0.994798   0.000000
   98       -0.872948   0.000000
   99       -0.768388   0.000000
  100       -0.723997   0.000000
  101       -0.679989   0.000000
  102       -0.549038   0.000000
  103       -0.462714   0.000000
  104       -0.417801   0.000000
  105       -0.325042   0.000000
  106       -0.122463   0.000000
  107       -0.089512   0.000000
  108        0.015744   0.000000
  109        0.064188   0.000000
  110        0.229368   0.000000
  111        0.407965   0.000000
  112        0.499565   0.000000
  113        0.738322   0.000000
  114        0.839972   0.000000
  115        0.989390   0.000000
  116        1.102439   0.000000
  117        1.125508   0.000000
  118        1.675747   0.000000
  119        1.863506   0.000000
  120        2.170944   0.000000
 
  0.1250000E+00  0.1250000E+00  0.0000000E+00  0.3125000E-01
    1      -17.711714   1.000000
    2      -16.903827   1.000000
    3      -16.755908   1.000000
    4      -16.628409   1.000000
    5      -16.498657   1.000000
    6      -16.403015   1.000000
    7      -16.317607   1.000000
    8      -16.283443   1.000000
    9      -16.185891   1.000000
   10      -16.105892   1.000000
   11      -16.002133   1.000000
   12      -15.905449   1.000000
   13      -15.837811   1.000000
   14      -15.700486   1.000000
   15      -15.635060   1.000000
   16      -15.530373   1.000000
   17      -15.337226   1.000000
   18      -15.287203   1.000000
   19       -9.380469   1.000000
   20       -9.210044   1.000000
   21       -9.104653   1.000000
   22       -9.023359   1.000000
   23       -8.796604   1.000000
   24       -8.701282   1.000000
   25       -8.665356   1.000000
   26       -8.564435   1.000000
   27       -8.455953   1.000000
   28       -8.388038   1.000000
   29       -8.316356   1.000000
   30       -8.246476   1.000000
   31       -8.130127   1.000000
   32       -8.062764   1.000000
   33       -7.916789   1.000000
   34       -7.826136   1.000000
   35       -7.764088   1.000000
   36       -7.690633   1.000000
   37       -7.643182   1.000000
   38       -7.492786   1.000000
   39       -7.440059   1.000000
   40       -7.355580   1.000000
   41       -7.310443   1.000000
   42       -7.223802   1.000000
   43       -7.126552   1.000000
   44       -7.016595   1.000000
   45       -6.951477   1.000000
   46       -6.839402   1.000000
   47       -6.755818   1.000000
   48       -6.616829   1.000000
   49       -6.571737   1.000000
   50       -6.459825   1.000000
   51       -6.424290   1.000000
   52       -6.359484   1.000000
   53       -6.311833   1.000000
   54       -6.232313   1.000000
   55       -6.174196   1.000000
   56       -6.153267   1.000000
   57       -6.004753   1.000000
   58       -5.887807   1.000000
   59       -5.747720   1.000000
   60       -5.682534   1.000000
   61       -5.580406   1.000000
   62       -5.471973   1.000000
   63       -5.403632   1.000000
   64       -5.278968   1.000000
   65       -5.236619   1.000000
   66       -5.106583   1.000000
   67       -5.052558   1.000000
   68       -4.937005   1.000000
   69       -4.778386   1.000000
   70       -4.679134   1.000000
   71       -4.595335   1.000000
   72       -4.429581   1.000000
   73       -4.369810   1.000000
   74       -4.160163   1.000000
   75       -4.145382   1.000000
   76       -4.036111   1.000000
   77       -3.907481   0.999998
   78       -3.824276   0.999976
   79       -3.488152   0.954172
   80       -3.302854   0.646717
   81       -3.046420   0.075388
   82       -2.803887   0.000811
   83       -2.631570   0.000006
   84       -2.574803   0.000001
   85       -2.431071   0.000000
   86       -2.375099   0.000000
   87       -2.257183   0.000000
   88       -2.127109   0.000000
   89       -2.088731   0.000000
   90       -2.049820   0.000000
   91       -1.954745   0.000000
   92       -1.835481   0.000000
   93       -1.460290   0.000000
   94       -1.231712   0.000000
   95       -1.116125   0.000000
   96       -1.037153   0.000000
   97       -0.968505   0.000000
   98       -0.924315   0.000000
   99       -0.856341   0.000000
  100       -0.789407   0.000000
  101       -0.697719   0.000000
  102       -0.660157   0.000000
  103       -0.544243   0.000000
  104       -0.495911   0.000000
  105       -0.389778   0.000000
  106       -0.191653   0.000000
  107       -0.155990   0.000000
  108       -0.038220   0.000000
  109        0.082589   0.000000
  110        0.253921   0.000000
  111        0.451567   0.000000
  112        0.588362   0.000000
  113        0.765094   0.000000
  114        0.861231   0.000000
  115        1.019503   0.000000
  116        1.064315   0.000000
  117        1.190208   0.000000
  118        1.759253   0.000000
  119        1.938489   0.000000
  120        2.240484   0.000000
 
  0.2500000E+00  0.1250000E+00  0.0000000E+00  0.3125000E-01
    1      -17.613958   1.000000
    2      -17.091670   1.000000
    3      -16.857843   1.000000
    4      -16.618152   1.000000
    5      -16.493091   1.000000
    6      -16.357338   1.000000
    7      -16.330897   1.000000
    8      -16.241329   1.000000
    9      -16.142281   1.000000
   10      -16.077264   1.000000
   11      -15.965327   1.000000
   12      -15.895743   1.000000
   13      -15.787080   1.000000
   14      -15.724636   1.000000
   15      -15.612603   1.000000
   16      -15.539757   1.000000
   17      -15.365548   1.000000
   18      -15.289087   1.000000
   19       -9.584032   1.000000
   20       -9.366152   1.000000
   21       -9.181438   1.000000
   22       -9.019121   1.000000
   23       -8.793082   1.000000
   24       -8.729212   1.000000
   25       -8.594517   1.000000
   26       -8.481342   1.000000
   27       -8.426980   1.000000
   28       -8.371234   1.000000
   29       -8.284826   1.000000
   30       -8.179882   1.000000
   31       -8.131415   1.000000
   32       -8.086479   1.000000
   33       -7.960306   1.000000
   34       -7.840946   1.000000
   35       -7.754885   1.000000
   36       -7.626525   1.000000
   37       -7.551602   1.000000
   38       -7.482983   1.000000
   39       -7.345469   1.000000
   40       -7.302615   1.000000
   41       -7.215700   1.000000
   42       -7.174865   1.000000
   43       -7.125649   1.000000
   44       -6.947772   1.000000
   45       -6.912698   1.000000
   46       -6.804635   1.000000
   47       -6.716615   1.000000