       N       E                     dE             d eps       ncg     rms          rms(c)
DAV:   1     0.112439480568E+04    0.11244E+04   -0.35857E+04  8160   0.577E+02
DAV:   2    -0.159175555293E+01   -0.11260E+04   -0.10859E+04 10880   0.173E+02
DAV:   3    -0.199746370714E+03   -0.19815E+03   -0.19000E+03 11040   0.820E+01
DAV:   4    -0.208907252067E+03   -0.91609E+01   -0.88238E+01 12120   0.255E+01
DAV:   5    -0.209223377749E+03   -0.31613E+00   -0.31507E+00 11480   0.354E+00    0.274E+01
DAV:   6    -0.236367821527E+03   -0.27144E+02   -0.11199E+02 12600   0.602E+01    0.592E+01
DAV:   7    -0.196825254265E+03    0.39543E+02   -0.17559E+02 13360   0.151E+02    0.206E+01
DAV:   8    -0.190300463063E+03    0.65248E+01   -0.21209E+01 11920   0.135E+01    0.140E+01
DAV:   9    -0.188296022795E+03    0.20044E+01   -0.37453E+00 12200   0.644E+00    0.935E+00
DAV:  10    -0.187100752422E+03    0.11953E+01   -0.17508E+00 13360   0.770E+00    0.325E+00
DAV:  11    -0.187014423937E+03    0.86328E-01   -0.66177E-01 12320   0.235E+00    0.243E+00
DAV:  12    -0.186974636038E+03    0.39788E-01   -0.37863E-01 13040   0.254E+00    0.274E+00
DAV:  13    -0.186930020521E+03    0.44616E-01   -0.19399E-01 13280   0.281E+00    0.205E+00
DAV:  14    -0.186892010584E+03    0.38010E-01   -0.95075E-02 13120   0.183E+00    0.613E-01
DAV:  15    -0.186887506601E+03    0.45040E-02   -0.15421E-02 11880   0.427E-01    0.488E-01
DAV:  16    -0.186887327645E+03    0.17896E-03   -0.10820E-02 13200   0.511E-01    0.586E-01
DAV:  17    -0.186885132656E+03    0.21950E-02   -0.10352E-02 12800   0.543E-01    0.300E-01
DAV:  18    -0.186884010814E+03    0.11218E-02   -0.26377E-03 12880   0.233E-01    0.186E-01
DAV:  19    -0.186883813119E+03    0.19769E-03   -0.87367E-04 10960   0.148E-01    0.478E-02
DAV:  20    -0.186884677121E+03   -0.86400E-03   -0.84529E-04  9160   0.587E-02    0.462E-02
DAV:  21    -0.186885431646E+03   -0.75452E-03   -0.22945E-04  8040   0.514E-02    0.334E-02
DAV:  22    -0.186886286180E+03   -0.85453E-03   -0.12018E-04  7200   0.317E-02    0.385E-02
DAV:  23    -0.186887529570E+03   -0.12434E-02   -0.15344E-04  7440   0.485E-02    0.224E-02
DAV:  24    -0.186888063799E+03   -0.53423E-03   -0.29934E-05  6800   0.235E-02    0.510E-03
DAV:  25    -0.186888471947E+03   -0.40815E-03   -0.20799E-05  5440   0.101E-02    0.521E-03
DAV:  26    -0.186888710258E+03   -0.23831E-03   -0.92121E-06  6840   0.800E-03    0.164E-03
DAV:  27    -0.186888797745E+03   -0.87487E-04   -0.31805E-06  7160   0.389E-03
   1 F= -.18688880E+03 E0= -.18671741E+03  d E =-.186889E+03
       N       E                     dE             d eps       ncg     rms          rms(c)
DAV:   1    -0.187544155445E+03   -0.65545E+00   -0.27353E+02  8160   0.352E+01    0.470E+00
DAV:   2    -0.189651944301E+03   -0.21078E+01   -0.20594E+01 12320   0.160E+01    0.103E+01
DAV:   3    -0.189341354729E+03    0.31059E+00   -0.45755E+00 12320   0.127E+01    0.618E+00
DAV:   4    -0.188806507215E+03    0.53485E+00   -0.57722E-01 12480   0.429E+00    0.188E+00
DAV:   5    -0.188959698266E+03   -0.15319E+00   -0.52449E-01 12360   0.372E+00    0.590E+00
DAV:   6    -0.188779372275E+03    0.18033E+00   -0.85753E-01 12840   0.448E+00    0.215E+00
DAV:   7    -0.188766327390E+03    0.13045E-01   -0.20681E-01 11680   0.228E+00    0.227E+00
DAV:   8    -0.188735955115E+03    0.30372E-01   -0.12819E-01 13000   0.214E+00    0.147E+00
DAV:   9    -0.188715949616E+03    0.20005E-01   -0.35990E-02 12360   0.950E-01    0.342E-01
DAV:  10    -0.188715238088E+03    0.71153E-03   -0.45875E-03 10840   0.224E-01    0.198E-01
DAV:  11    -0.188714727349E+03    0.51074E-03   -0.25226E-03 12560   0.164E-01    0.102E-01
DAV:  12    -0.188714871828E+03   -0.14448E-03   -0.79059E-04 11680   0.839E-02    0.895E-02
DAV:  13    -0.188714804825E+03    0.67003E-04   -0.25224E-04  7960   0.579E-02
   2 F= -.18871480E+03 E0= -.18857528E+03  d E =-.182601E+01
       N       E                     dE             d eps       ncg     rms          rms(c)
DAV:   1    -0.190645790965E+03   -0.19309E+01   -0.31670E+01  9080   0.143E+01    0.442E+00
DAV:   2    -0.190564624341E+03    0.81167E-01   -0.27498E+00 11120   0.928E+00    0.703E+00
DAV:   3    -0.190135627140E+03    0.42900E+00   -0.13635E+00 12320   0.856E+00    0.427E+00
DAV:   4    -0.189923230445E+03    0.21240E+00   -0.76135E-01 12760   0.437E+00    0.253E+00
DAV:   5    -0.189900342720E+03    0.22888E-01   -0.37957E-01 12240   0.307E+00    0.282E+00
DAV:   6    -0.189825943516E+03    0.74399E-01   -0.15628E-01 12360   0.251E+00    0.856E-01
DAV:   7    -0.189817288109E+03    0.86554E-02   -0.17687E-02 11760   0.630E-01    0.248E-01
DAV:   8    -0.189818318458E+03   -0.10303E-02   -0.51016E-03 12520   0.397E-01    0.404E-01
DAV:   9    -0.189817175753E+03    0.11427E-02   -0.27379E-03 11200   0.331E-01    0.137E-01
DAV:  10    -0.189817441787E+03   -0.26603E-03   -0.91989E-04 10080   0.121E-01    0.128E-01
DAV:  11    -0.189817226174E+03    0.21561E-03   -0.45071E-04  8640   0.763E-02    0.206E-02
DAV:  12    -0.189817249153E+03   -0.22979E-04   -0.76849E-05  6880   0.289E-02
   3 F= -.18981725E+03 E0= -.18969784E+03  d E =-.110244E+01
       N       E                     dE             d eps       ncg     rms          rms(c)
DAV:   1    -0.191415463615E+03   -0.15982E+01   -0.82488E+01  8160   0.206E+01    0.459E+00
DAV:   2    -0.191225816682E+03    0.18965E+00   -0.54482E+00 13160   0.749E+00    0.439E+00
DAV:   3    -0.191375770474E+03   -0.14995E+00   -0.16035E+00 12240   0.895E+00    0.657E+00
DAV:   4    -0.190998462032E+03    0.37731E+00   -0.13947E+00 12320   0.777E+00    0.299E+00
DAV:   5    -0.190920774731E+03    0.77687E-01   -0.39169E-01 12400   0.344E+00    0.252E+00
DAV:   6    -0.190869233555E+03    0.51541E-01   -0.21075E-01 12400   0.305E+00    0.160E+00
DAV:   7    -0.190846298271E+03    0.22935E-01   -0.61054E-02 12640   0.138E+00    0.418E-01
DAV:   8    -0.190844638563E+03    0.16597E-02   -0.86846E-03 11520   0.462E-01    0.360E-01
DAV:   9    -0.190843734187E+03    0.90438E-03   -0.28677E-03 10560   0.357E-01    0.172E-01
DAV:  10    -0.190843968407E+03   -0.23422E-03   -0.13473E-03 11240   0.157E-01    0.113E-01
DAV:  11    -0.190843779159E+03    0.18925E-03   -0.59891E-04 10320   0.887E-02    0.433E-02
DAV:  12    -0.190843786326E+03   -0.71670E-05   -0.10266E-04  7080   0.394E-02
   4 F= -.19084379E+03 E0= -.19073582E+03  d E =-.102654E+01
       N       E                     dE             d eps       ncg     rms          rms(c)
DAV:   1    -0.192145558228E+03   -0.13018E+01   -0.17167E+02  8160   0.290E+01    0.547E+00
DAV:   2    -0.191923977132E+03    0.22158E+00   -0.90984E+00 10880   0.769E+00    0.341E+00
DAV:   3    -0.191798444312E+03    0.12553E+00   -0.14600E+00 11800   0.608E+00    0.368E+00
DAV:   4    -0.191821164834E+03   -0.22721E-01   -0.10758E+00 12320   0.755E+00    0.435E+00
DAV:   5    -0.191552097184E+03    0.26907E+00   -0.43867E-01 12360   0.453E+00    0.814E-01
DAV:   6    -0.191542463802E+03    0.96334E-02   -0.80401E-02 11400   0.116E+00    0.546E-01
DAV:   7    -0.191547118595E+03   -0.46548E-02   -0.38106E-02 11960   0.117E+00    0.102E+00
DAV:   8    -0.191537695888E+03    0.94227E-02   -0.20499E-02 11600   0.870E-01    0.171E-01
DAV:   9    -0.191538487406E+03   -0.79152E-03   -0.29001E-03 11520   0.289E-01    0.293E-01
DAV:  10    -0.191538005538E+03    0.48187E-03   -0.29896E-03 11800   0.351E-01    0.183E-01
DAV:  11    -0.191537737468E+03    0.26807E-03   -0.89951E-04 10080   0.160E-01    0.512E-02
DAV:  12    -0.191537709145E+03    0.28323E-04   -0.11565E-04  6480   0.431E-02
   5 F= -.19153771E+03 E0= -.19142713E+03  d E =-.693923E+00
       N       E                     dE             d eps       ncg     rms          rms(c)
DAV:   1    -0.191611277514E+03   -0.73540E-01   -0.52819E+00  8160   0.486E+00    0.640E-01
DAV:   2    -0.191663712758E+03   -0.52435E-01   -0.28050E-01 13440   0.274E+00    0.206E+00
DAV:   3    -0.191622565598E+03    0.41147E-01   -0.98299E-02 12520   0.207E+00    0.458E-01
DAV:   4    -0.191625488565E+03   -0.29230E-02   -0.21570E-02 10240   0.919E-01    0.766E-01
DAV:   5    -0.191619560472E+03    0.59281E-02   -0.13270E-02 11160   0.743E-01    0.232E-01
DAV:   6    -0.191620292688E+03   -0.73222E-03   -0.52902E-03 11120   0.386E-01    0.381E-01
DAV:   7    -0.191619349788E+03    0.94290E-03   -0.46430E-03 11200   0.440E-01    0.218E-01
DAV:   8    -0.191618844386E+03    0.50540E-03   -0.10078E-03  9840   0.174E-01    0.337E-02
DAV:   9    -0.191618854476E+03   -0.10090E-04   -0.98044E-05  6320   0.345E-02
   6 F= -.19161885E+03 E0= -.19150734E+03  d E =-.811453E-01
       N       E                     dE             d eps       ncg     rms          rms(c)
DAV:   1    -0.191692462711E+03   -0.73618E-01   -0.54196E+00  8160   0.490E+00    0.544E-01
DAV:   2    -0.191727387632E+03   -0.34925E-01   -0.18113E-01 13040   0.190E+00    0.171E+00
DAV:   3    -0.191699813139E+03    0.27574E-01   -0.79351E-02 12480   0.179E+00    0.495E-01
DAV:   4    -0.191700376918E+03   -0.56378E-03   -0.15739E-02 11040   0.752E-01    0.565E-01
DAV:   5    -0.191697113046E+03    0.32639E-02   -0.80316E-03 11160   0.609E-01    0.203E-01
DAV:   6    -0.191697175728E+03   -0.62682E-04   -0.30802E-03 11400   0.292E-01    0.259E-01
DAV:   7    -0.191697177053E+03   -0.13247E-05   -0.34823E-03 10600   0.379E-01    0.264E-01
DAV:   8    -0.191696489840E+03    0.68721E-03   -0.12456E-03  9200   0.212E-01    0.283E-02
DAV:   9    -0.191696513941E+03   -0.24101E-04   -0.85611E-05  5960   0.331E-02
   7 F= -.19169651E+03 E0= -.19158515E+03  d E =-.776595E-01
       N       E                     dE             d eps       ncg     rms          rms(c)
DAV:   1    -0.191764153031E+03   -0.67663E-01   -0.43629E+00  8160   0.443E+00    0.547E-01
DAV:   2    -0.191807649170E+03   -0.43496E-01   -0.19207E-01 11720   0.233E+00    0.204E+00
DAV:   3    -0.191769904832E+03    0.37744E-01   -0.93539E-02 12440   0.192E+00    0.395E-01
DAV:   4    -0.191771327858E+03   -0.14230E-02   -0.13363E-02 11400   0.742E-01    0.564E-01
DAV:   5    -0.191768070272E+03    0.32576E-02   -0.82313E-03 11080   0.609E-01    0.230E-01
DAV:   6    -0.191768762420E+03   -0.69215E-03   -0.45089E-03 11720   0.404E-01    0.385E-01
DAV:   7    -0.191767709303E+03    0.10531E-02   -0.36516E-03 11200   0.394E-01    0.148E-01
DAV:   8    -0.191767396638E+03    0.31267E-03   -0.61407E-04  9680   0.121E-01    0.211E-02
DAV:   9    -0.191767409176E+03   -0.12538E-04   -0.65593E-05  6840   0.259E-02
   8 F= -.19176741E+03 E0= -.19165737E+03  d E =-.708952E-01
       N       E                     dE             d eps       ncg     rms          rms(c)
DAV:   1    -0.191905513474E+03   -0.13812E+00   -0.34263E+01  8160   0.125E+01    0.143E+00
DAV:   2    -0.192193054704E+03   -0.28754E+00   -0.13495E+00 11440   0.574E+00    0.538E+00
DAV:   3    -0.191960051853E+03    0.23300E+00   -0.72102E-01 12320   0.513E+00    0.111E+00
DAV:   4    -0.191972813424E+03   -0.12762E-01   -0.94727E-02 12200   0.201E+00    0.177E+00
DAV:   5    -0.191943019349E+03    0.29794E-01   -0.66849E-02 11360   0.172E+00    0.650E-01
DAV:   6    -0.191944329200E+03   -0.13099E-02   -0.22684E-02 11760   0.101E+00    0.781E-01
DAV:   7    -0.191939761895E+03    0.45673E-02   -0.19310E-02 11720   0.104E+00    0.385E-01
DAV:   8    -0.191937296843E+03    0.24651E-02   -0.39676E-03 11160   0.361E-01    0.613E-02
DAV:   9    -0.191937326035E+03   -0.29193E-04   -0.56211E-04 10120   0.722E-02
   9 F= -.19193733E+03 E0= -.19183356E+03  d E =-.169917E+00
       N       E                     dE             d eps       ncg     rms          rms(c)
DAV:   1    -0.191975004253E+03   -0.37707E-01   -0.23167E+00  8160   0.327E+00    0.478E-01
DAV:   2    -0.191993754582E+03   -0.18750E-01   -0.11531E-01 12160   0.163E+00    0.135E+00
DAV:   3    -0.191978005525E+03    0.15749E-01   -0.43786E-02 12320   0.139E+00    0.386E-01
DAV:   4    -0.191978763179E+03   -0.75765E-03   -0.95802E-03 12240   0.674E-01    0.534E-01
DAV:   5    -0.191976398391E+03    0.23648E-02   -0.81336E-03 11200   0.626E-01    0.304E-01
DAV:   6    -0.191976707967E+03   -0.30958E-03   -0.40386E-03 11520   0.440E-01    0.353E-01
DAV:   7    -0.191975517312E+03    0.11907E-02   -0.23987E-03 10920   0.356E-01    0.676E-02
DAV:   8    -0.191975457165E+03    0.60147E-04   -0.16425E-04  6160   0.652E-02
  10 F= -.19197546E+03 E0= -.19187268E+03  d E =-.381311E-01
       N       E                     dE             d eps       ncg     rms          rms(c)
DAV:   1    -0.192031024409E+03   -0.55507E-01   -0.90891E+00  8160   0.635E+00    0.697E-01
DAV:   2    -0.192088850609E+03   -0.57826E-01   -0.30363E-01 11760   0.257E+00    0.225E+00
DAV:   3    -0.192045294610E+03    0.43556E-01   -0.11518E-01 12280   0.226E+00    0.562E-01
DAV:   4    -0.192048728728E+03   -0.34341E-02   -0.19474E-02 11240   0.922E-01    0.893E-01
DAV:   5    -0.192041551299E+03    0.71774E-02   -0.14459E-02 10840   0.851E-01    0.286E-01
DAV:   6    -0.192041534329E+03    0.16970E-04   -0.37707E-03 12200   0.336E-01    0.239E-01
DAV:   7    -0.192041083331E+03    0.45100E-03   -0.26204E-03 11960   0.393E-01    0.180E-01
DAV:   8    -0.192040657646E+03    0.42569E-03   -0.71703E-04  9680   0.195E-01    0.303E-02
DAV:   9    -0.192040658564E+03   -0.91815E-06   -0.10302E-04  6800   0.378E-02
  11 F= -.19204066E+03 E0= -.19194066E+03  d E =-.652014E-01
       N       E                     dE             d eps       ncg     rms          rms(c)
DAV:   1    -0.192054953843E+03   -0.14296E-01   -0.61355E-01  8160   0.166E+00    0.174E-01
DAV:   2    -0.192055924294E+03   -0.97045E-03   -0.15372E-02 13320   0.429E-01    0.217E-01
DAV:   3    -0.192055821053E+03    0.10324E-03   -0.26011E-03 12280   0.372E-01    0.210E-01
DAV:   4    -0.192055506854E+03    0.31420E-03   -0.14049E-03  9960   0.249E-01    0.164E-01
DAV:   5    -0.192055436644E+03    0.70209E-04   -0.10623E-03  9120   0.228E-01    0.147E-01
DAV:   6    -0.192055277420E+03    0.15922E-03   -0.56450E-04  8720   0.152E-01    0.719E-02
DAV:   7    -0.192055286601E+03   -0.91806E-05   -0.25480E-04  8440   0.122E-01
  12 F= -.19205529E+03 E0= -.19195568E+03  d E =-.146280E-01
       N       E                     dE             d eps       ncg     rms          rms(c)
DAV:   1    -0.192057671701E+03   -0.23943E-02   -0.12534E-02  8160   0.249E-01    0.288E-02
DAV:   2    -0.192057734242E+03   -0.62542E-04   -0.37759E-04 10080   0.805E-02
  13 F= -.19205773E+03 E0= -.19195810E+03  d E =-.244764E-02
       N       E                     dE             d eps       ncg     rms          rms(c)
DAV:   1    -0.192085849509E+03   -0.28178E-01   -0.19184E+00  8160   0.291E+00    0.286E-01
DAV:   2    -0.192091837810E+03   -0.59883E-02   -0.49590E-02 11560   0.805E-01    0.620E-01
DAV:   3    -0.192088965893E+03    0.28719E-02   -0.11954E-02 12440   0.753E-01    0.315E-01
DAV:   4    -0.192088742595E+03    0.22330E-03   -0.30707E-03 11480   0.371E-01    0.297E-01
DAV:   5    -0.192088057595E+03    0.68500E-03   -0.22116E-03  9840   0.342E-01    0.165E-01
DAV:   6    -0.192088281826E+03   -0.22423E-03   -0.12239E-03 10400   0.254E-01    0.203E-01
DAV:   7    -0.192087858149E+03    0.42368E-03   -0.82269E-04 10000   0.231E-01    0.502E-02
DAV:   8    -0.192087821454E+03    0.36695E-04   -0.77494E-05  5880   0.530E-02
  14 F= -.19208782E+03 E0= -.19198989E+03  d E =-.300872E-01
       N       E                     dE             d eps       ncg     rms          rms(c)
DAV:   1    -0.192079593601E+03    0.82645E-02   -0.17748E-01  8160   0.900E-01    0.118E-01
DAV:   2    -0.192080086229E+03   -0.49263E-03   -0.69132E-03 11480   0.282E-01    0.194E-01
DAV:   3    -0.192080080076E+03    0.61529E-05   -0.19769E-03 10520   0.296E-01    0.208E-01
DAV:   4    -0.192079658550E+03    0.42153E-03   -0.67333E-04  8160   0.170E-01    0.472E-02
DAV:   5    -0.192079722006E+03   -0.63456E-04   -0.26477E-04  7240   0.118E-01
  15 F= -.19207972E+03 E0= -.19198134E+03  d E =0.809945E-02
       N       E                     dE             d eps       ncg     rms          rms(c)
DAV:   1    -0.192110789844E+03   -0.31131E-01   -0.21104E+00  8160   0.307E+00    0.313E-01
DAV:   2    -0.192116320070E+03   -0.55302E-02   -0.52590E-02 11600   0.881E-01    0.606E-01
DAV:   3    -0.192113617429E+03    0.27026E-02   -0.11638E-02 12560   0.792E-01    0.325E-01
DAV:   4    -0.192112450713E+03    0.11667E-02   -0.24441E-03 11320   0.317E-01    0.123E-01
DAV:   5    -0.192112538712E+03   -0.87999E-04   -0.14441E-03 12280   0.221E-01    0.191E-01
DAV:   6    -0.192112466917E+03    0.71795E-04   -0.15003E-03 10160   0.280E-01    0.175E-01
DAV:   7    -0.192112266849E+03    0.20007E-03   -0.68847E-04  8320   0.181E-01    0.102E-01
DAV:   8    -0.192112159960E+03    0.10689E-03   -0.17314E-04  6480   0.108E-01    0.184E-02
DAV:   9    -0.192112160881E+03   -0.92146E-06   -0.29137E-05  6800   0.250E-02
  16 F= -.19211216E+03 E0= -.19201540E+03  d E =-.324389E-01
       N       E                     dE             d eps       ncg     rms          rms(c)
DAV:   1    -0.192136436384E+03   -0.24276E-01   -0.11888E+00  8160   0.231E+00    0.220E-01
DAV:   2    -0.192138445245E+03   -0.20089E-02   -0.29721E-02 11800   0.510E-01    0.221E-01
DAV:   3    -0.192139187768E+03   -0.74252E-03   -0.42823E-03 12200   0.469E-01    0.365E-01
DAV:   4    -0.192138113497E+03    0.10743E-02   -0.26233E-03 10040   0.371E-01    0.191E-01
DAV:   5    -0.192137925700E+03    0.18780E-03   -0.10776E-03  9560   0.245E-01    0.138E-01
DAV:   6    -0.192137843061E+03    0.82639E-04   -0.67181E-04  9960   0.169E-01
  17 F= -.19213784E+03 E0= -.19204291E+03  d E =-.256822E-01
       N       E                     dE             d eps       ncg     rms          rms(c)
DAV:   1    -0.192125382169E+03    0.12544E-01   -0.25487E-01  8160   0.109E+00    0.154E-01
DAV:   2    -0.192128942998E+03   -0.35608E-02   -0.12348E-02 12760   0.642E-01    0.563E-01
DAV:   3    -0.192125644081E+03    0.32989E-02   -0.49763E-03 11400   0.568E-01    0.843E-02
DAV:   4    -0.192125649057E+03   -0.49767E-05   -0.37760E-04  8640   0.117E-01
  18 F= -.19212565E+03 E0= -.19202977E+03  d E =0.121940E-01
       N       E                     dE             d eps       ncg     rms          rms(c)
DAV:   1    -0.192120368240E+03    0.52758E-02   -0.78959E-01  8160   0.195E+00    0.319E-01
DAV:   2    -0.192119476534E+03    0.89171E-03   -0.22287E-02 11880   0.478E-01    0.257E-01
DAV:   3    -0.192120094901E+03   -0.61837E-03   -0.57690E-03 11360   0.565E-01    0.389E-01
DAV:   4    -0.192118789507E+03    0.13054E-02   -0.46421E-03 11240   0.524E-01    0.242E-01
DAV:   5    -0.192118791994E+03   -0.24873E-05   -0.26316E-03 11440   0.360E-01    0.276E-01
DAV:   6    -0.192118112412E+03    0.67958E-03   -0.14728E-03  9520   0.290E-01    0.960E-02
DAV:   7    -0.192118119941E+03   -0.75290E-05   -0.39625E-04  8200   0.135E-01
  19 F= -.19211812E+03 E0= -.19202154E+03  d E =0.752912E-02
       N       E                     dE             d eps       ncg     rms          rms(c)
DAV:   1    -0.192162825030E+03   -0.44713E-01   -0.37733E+00  8160   0.422E+00    0.502E-01
DAV:   2    -0.192167207986E+03   -0.43830E-02   -0.10461E-01 11640   0.966E-01    0.492E-01
DAV:   3    -0.192171493136E+03   -0.42851E-02   -0.20244E-02 12040   0.109E+00    0.829E-01
DAV:   4    -0.192164452855E+03    0.70403E-02   -0.11575E-02 11120   0.830E-01    0.310E-01
DAV:   5    -0.192165543816E+03   -0.10910E-02   -0.63824E-03 10280   0.559E-01    0.491E-01
DAV:   6    -0.192163700718E+03    0.18431E-02   -0.50139E-03 10840   0.489E-01    0.187E-01
DAV:   7    -0.192163516110E+03    0.18461E-03   -0.13021E-03  9760   0.274E-01    0.140E-01
DAV:   8    -0.192163269424E+03    0.24669E-03   -0.38000E-04  9320   0.157E-01    0.317E-02
DAV:   9    -0.192163256621E+03    0.12803E-04   -0.50397E-05  6200   0.357E-02
  20 F= -.19216326E+03 E0= -.19206954E+03  d E =-.451367E-01
       N       E                     dE             d eps       ncg     rms          rms(c)
DAV:   1    -0.192201754583E+03   -0.38485E-01   -0.26018E+00  8160   0.346E+00    0.371E-01
DAV:   2    -0.192207571978E+03   -0.58174E-02   -0.71368E-02 11440   0.884E-01    0.584E-01
DAV:   3    -0.192207068821E+03    0.50316E-03   -0.14010E-02 12480   0.853E-01    0.550E-01
DAV:   4    -0.192204339680E+03    0.27291E-02   -0.52795E-03 11600   0.491E-01    0.195E-01
DAV:   5    -0.192204405925E+03   -0.66245E-04   -0.22288E-03 11600   0.351E-01    0.235E-01
DAV:   6    -0.192203970287E+03    0.43564E-03   -0.17202E-03 12080   0.328E-01    0.115E-01
DAV:   7    -0.192203772174E+03    0.19811E-03   -0.42410E-04  8920   0.133E-01    0.569E-02
DAV:   8    -0.192203748771E+03    0.23403E-04   -0.10496E-04  6880   0.844E-02
  21 F= -.19220375E+03 E0= -.19211297E+03  d E =-.404921E-01
       N       E                     dE             d eps       ncg     rms          rms(c)
DAV:   1    -0.192214603754E+03   -0.10832E-01   -0.17420E-01  8160   0.894E-01    0.102E-01
DAV:   2    -0.192215239895E+03   -0.63614E-03   -0.52720E-03 11400   0.277E-01    0.218E-01
DAV:   3    -0.192214905867E+03    0.33403E-03   -0.12556E-03 10920   0.256E-01    0.116E-01
DAV:   4    -0.192214840792E+03    0.65075E-04   -0.31105E-04  8360   0.125E-01
  22 F= -.19221484E+03 E0= -.19212480E+03  d E =-.110920E-01
       N       E                     dE             d eps       ncg     rms          rms(c)
DAV:   1    -0.192229784614E+03   -0.14879E-01   -0.43654E-01  8160   0.144E+00    0.208E-01
DAV:   2    -0.192232407352E+03   -0.26227E-02   -0.17412E-02 11440   0.623E-01    0.523E-01
DAV:   3    -0.192230210042E+03    0.21973E-02   -0.56384E-03 11480   0.570E-01    0.212E-01
DAV:   4    -0.192229977370E+03    0.23267E-03   -0.13545E-03  9680   0.252E-01    0.165E-01
DAV:   5    -0.192229889178E+03    0.88192E-04   -0.10737E-03 10080   0.269E-01    0.149E-01
DAV:   6    -0.192229697404E+03    0.19177E-03   -0.55941E-04  8760   0.170E-01    0.734E-02
DAV:   7    -0.192229693731E+03    0.36723E-05   -0.25704E-04  8480   0.131E-01
  23 F= -.19222969E+03 E0= -.19214100E+03  d E =-.148529E-01
       N       E                     dE             d eps       ncg     rms          rms(c)
DAV:   1    -0.192256990511E+03   -0.27293E-01   -0.94584E-01  8160   0.212E+00    0.297E-01
DAV:   2    -0.192258946823E+03   -0.19563E-02   -0.29069E-02 11240   0.648E-01    0.460E-01
DAV:   3    -0.192258205486E+03    0.74134E-03   -0.88560E-03 11840   0.724E-01    0.410E-01
DAV:   4    -0.192256866621E+03    0.13389E-02   -0.36544E-03 11240   0.424E-01    0.233E-01
DAV:   5    -0.192256778874E+03    0.87747E-04   -0.20745E-03 10120   0.370E-01    0.238E-01
DAV:   6    -0.192256242262E+03    0.53661E-03   -0.11263E-03  9520   0.245E-01    0.716E-02
DAV:   7    -0.192256225947E+03    0.16315E-04   -0.26364E-04  7560   0.109E-01
  24 F= -.19225623E+03 E0= -.19216981E+03  d E =-.265322E-01
       N       E                     dE             d eps       ncg     rms          rms(c)
DAV:   1    -0.192302197800E+03   -0.45956E-01   -0.29806E+00  8160   0.372E+00    0.445E-01
DAV:   2    -0.192317108913E+03   -0.14911E-01   -0.96549E-02 11400   0.136E+00    0.105E+00
DAV:   3    -0.192306774351E+03    0.10335E-01   -0.22909E-02 12120   0.120E+00    0.405E-01
DAV:   4    -0.192306463000E+03    0.31135E-03   -0.57365E-03 11400   0.544E-01    0.402E-01
DAV:   5    -0.192305062168E+03    0.14008E-02   -0.35664E-03 10640   0.493E-01    0.211E-01
DAV:   6    -0.192304959742E+03    0.10243E-03   -0.17731E-03 11440   0.306E-01    0.176E-01
DAV:   7    -0.192304835433E+03    0.12431E-03   -0.11708E-03 10760   0.293E-01    0.150E-01
DAV:   8    -0.192304535008E+03    0.30042E-03   -0.35788E-04  8840   0.150E-01    0.204E-02
DAV:   9    -0.192304538154E+03   -0.31456E-05   -0.45034E-05  6240   0.247E-02
  25 F= -.19230454E+03 E0= -.19222153E+03  d E =-.483122E-01
       N       E                     dE             d eps       ncg     rms          rms(c)
DAV:   1    -0.192312172301E+03   -0.76373E-02   -0.74659E-02  8160   0.591E-01    0.776E-02
DAV:   2    -0.192312561056E+03   -0.38876E-03   -0.26570E-03 11240   0.227E-01    0.182E-01
DAV:   3    -0.192312271845E+03    0.28921E-03   -0.74846E-04  9960   0.213E-01    0.764E-02
DAV:   4    -0.192312246459E+03    0.25385E-04   -0.16119E-04  6640   0.883E-02
  26 F= -.19231225E+03 E0= -.19222961E+03  d E =-.770831E-02
       N       E                     dE             d eps       ncg     rms          rms(c)
DAV:   1    -0.192283823034E+03    0.28449E-01   -0.14056E+00  8160   0.261E+00    0.423E-01
DAV:   2    -0.192290226489E+03   -0.64035E-02   -0.54699E-02 11840   0.110E+00    0.844E-01
DAV:   3    -0.192284070241E+03    0.61562E-02   -0.20041E-02 12320   0.116E+00    0.426E-01
DAV:   4    -0.192281907570E+03    0.21627E-02   -0.44349E-03 10920   0.436E-01    0.155E-01
DAV:   5    -0.192282112463E+03   -0.20489E-03   -0.22507E-03 11600   0.315E-01    0.270E-01
DAV:   6    -0.192281547009E+03    0.56545E-03   -0.16463E-03 10360   0.318E-01    0.132E-01
DAV:   7    -0.192281456218E+03    0.90791E-04   -0.44161E-04  8480   0.153E-01
  27 F= -.19228146E+03 E0= -.19219731E+03  d E =0.307902E-01
       N       E                     dE             d eps       ncg     rms          rms(c)
DAV:   1    -0.192278437846E+03    0.31092E-02   -0.12701E-02  8160   0.270E-01    0.541E-02
DAV:   2    -0.192278710265E+03   -0.27242E-03   -0.87793E-04 11920   0.196E-01    0.146E-01
DAV:   3    -0.192278442635E+03    0.26763E-03   -0.39664E-04  8880   0.177E-01    0.391E-02
DAV:   4    -0.192278441720E+03    0.91464E-06   -0.54274E-05  5920   0.527E-02
  28 F= -.19227844E+03 E0= -.19219420E+03  d E =0.301450E-02
       N       E                     dE             d eps       ncg     rms          rms(c)
DAV:   1    -0.192300078791E+03   -0.21636E-01   -0.10832E+00  8160   0.221E+00    0.293E-01
DAV:   2    -0.192312007265E+03   -0.11928E-01   -0.51715E-02 11120   0.124E+00    0.974E-01
DAV:   3    -0.192302153507E+03    0.98538E-02   -0.15279E-02 12120   0.101E+00    0.180E-01
DAV:   4    -0.192302415945E+03   -0.26244E-03   -0.17484E-03 11240   0.306E-01    0.264E-01
DAV:   5    -0.192301780214E+03    0.63573E-03   -0.12658E-03  9800   0.301E-01    0.106E-01
DAV:   6    -0.192301762141E+03    0.18073E-04   -0.50489E-04  9960   0.131E-01
  29 F= -.19230176E+03 E0= -.19221889E+03  d E =-.233204E-01
       N       E                     dE             d eps       ncg     rms          rms(c)
DAV:   1    -0.192304494345E+03   -0.27141E-02   -0.69162E-01  8160   0.188E+00    0.423E-01
DAV:   2    -0.192311260170E+03   -0.67658E-02   -0.45188E-02 10440   0.120E+00    0.106E+00
DAV:   3    -0.192302165911E+03    0.90943E-02   -0.23430E-02 11520   0.118E+00    0.400E-01
DAV:   4    -0.192301496574E+03    0.66934E-03   -0.59869E-03 11880   0.584E-01    0.401E-01
DAV:   5    -0.192300470451E+03    0.10261E-02   -0.47506E-03 10080   0.556E-01    0.287E-01
DAV:   6    -0.192299695324E+03    0.77513E-03   -0.23159E-03 11240   0.338E-01    0.166E-01
DAV:   7    -0.192299418016E+03    0.27731E-03   -0.68997E-04  9480   0.209E-01    0.520E-02
DAV:   8    -0.192299389917E+03    0.28099E-04   -0.69371E-05  6360   0.635E-02
  30 F= -.19229939E+03 E0= -.19221589E+03  d E =0.237222E-02
       N       E                     dE             d eps       ncg     rms          rms(c)
DAV:   1    -0.192332552778E+03   -0.33135E-01   -0.16020E+00  8160   0.271E+00    0.343E-01
DAV:   2    -0.192343148269E+03   -0.10595E-01   -0.56751E-02 11240   0.120E+00    0.891E-01
DAV:   3    -0.192334779808E+03    0.83685E-02   -0.14340E-02 11440   0.988E-01    0.265E-01
DAV:   4    -0.192335169042E+03   -0.38923E-03   -0.36366E-03 11240   0.465E-01    0.348E-01
DAV:   5    -0.192334023862E+03    0.11452E-02   -0.23872E-03 10320   0.405E-01    0.152E-01
DAV:   6    -0.192334055191E+03   -0.31329E-04   -0.10211E-03 10400   0.238E-01    0.161E-01
DAV:   7    -0.192333912933E+03    0.14226E-03   -0.79173E-04 10400   0.240E-01    0.108E-01
DAV:   8    -0.192333755480E+03    0.15745E-03   -0.19772E-04  7280   0.995E-02    0.152E-02
DAV:   9    -0.192333758755E+03   -0.32748E-05   -0.31591E-05  6280   0.200E-02
  31 F= -.19233376E+03 E0= -.19225275E+03  d E =-.343688E-01
       N       E                     dE             d eps       ncg     rms          rms(c)
DAV:   1    -0.192363957421E+03   -0.30202E-01   -0.13131E+00  8160   0.247E+00    0.319E-01
DAV:   2    -0.192371743750E+03   -0.77863E-02   -0.45375E-02 11240   0.102E+00    0.781E-01
DAV:   3    -0.192365629632E+03    0.61141E-02   -0.12647E-02 11920   0.914E-01    0.266E-01
DAV:   4    -0.192365489948E+03    0.13968E-03   -0.27607E-03 11520   0.364E-01    0.268E-01
DAV:   5    -0.192364864369E+03    0.62558E-03   -0.17463E-03 10400   0.342E-01    0.151E-01
DAV:   6    -0.192364766160E+03    0.98209E-04   -0.80283E-04 10120   0.210E-01
  32 F= -.19236477E+03 E0= -.19228535E+03  d E =-.310074E-01
       N       E                     dE             d eps       ncg     rms          rms(c)
DAV:   1    -0.192444063654E+03   -0.79199E-01   -0.18352E+01  8160   0.935E+00    0.113E+00
DAV:   2    -0.192533895351E+03   -0.89832E-01   -0.61791E-01 11680   0.352E+00    0.235E+00
DAV:   3    -0.192471128197E+03    0.62767E-01   -0.12971E-01 11960   0.302E+00    0.876E-01
DAV:   4    -0.192467402613E+03    0.37256E-02   -0.29572E-02 12320   0.129E+00    0.809E-01
DAV:   5    -0.192461082993E+03    0.63196E-02   -0.17995E-02 12320   0.118E+00    0.453E-01
DAV:   6    -0.192459985218E+03    0.10978E-02   -0.85434E-03 12160   0.599E-01    0.330E-01
DAV:   7    -0.192459718716E+03    0.26650E-03   -0.52336E-03 12040   0.575E-01    0.374E-01
DAV:   8    -0.192458190703E+03    0.15280E-02   -0.20308E-03 11800   0.367E-01    0.545E-02
DAV:   9    -0.192458166227E+03    0.24476E-04   -0.20728E-04  7480   0.571E-02
  33 F= -.19245817E+03 E0= -.19238219E+03  d E =-.934001E-01
       N       E                     dE             d eps       ncg     rms          rms(c)
DAV:   1    -0.192477357351E+03   -0.19167E-01   -0.25997E+00  8160   0.343E+00    0.412E-01
DAV:   2    -0.192489457820E+03   -0.12100E-01   -0.10388E-01 11360   0.121E+00    0.729E-01
DAV:   3    -0.192484164132E+03    0.52937E-02   -0.18469E-02 12040   0.112E+00    0.413E-01
DAV:   4    -0.192482833060E+03    0.13311E-02   -0.49323E-03 12400   0.517E-01    0.272E-01
DAV:   5    -0.192482287203E+03    0.54586E-03   -0.24292E-03 12000   0.412E-01    0.199E-01
DAV:   6    -0.192481974404E+03    0.31280E-03   -0.12505E-03 10600   0.243E-01    0.108E-01
DAV:   7    -0.192482033571E+03   -0.59167E-04   -0.74373E-04 10240   0.193E-01
  34 F= -.19248203E+03 E0= -.19240654E+03  d E =-.238673E-01
       N       E                     dE             d eps       ncg     rms          rms(c)
DAV:   1    -0.192490451638E+03   -0.84772E-02   -0.19084E+00  8160   0.293E+00    0.331E-01
DAV:   2    -0.192498683653E+03   -0.82320E-02   -0.85608E-02 11400   0.997E-01    0.467E-01
DAV:   3    -0.192497149082E+03    0.15346E-02   -0.11071E-02 12200   0.840E-01    0.353E-01
DAV:   4    -0.192495832415E+03    0.13167E-02   -0.29897E-03 12160   0.423E-01    0.167E-01
DAV:   5    -0.192495704135E+03    0.12828E-03   -0.11654E-03 10400   0.278E-01    0.166E-01
DAV:   6    -0.192495559298E+03    0.14484E-03   -0.92177E-04 10560   0.238E-01    0.106E-01
DAV:   7    -0.192495460944E+03    0.98355E-04   -0.42114E-04  8680   0.121E-01
  35 F= -.19249546E+03 E0= -.19242002E+03  d E =-.134274E-01
       N       E                     dE             d eps       ncg     rms          rms(c)
DAV:   1    -0.192500699164E+03   -0.51399E-02   -0.86817E+00  8160   0.640E+00    0.819E-01
DAV:   2    -0.192548872116E+03   -0.48173E-01   -0.31551E-01 11560   0.267E+00    0.180E+00
DAV:   3    -0.192512895001E+03    0.35977E-01   -0.83369E-02 12200   0.239E+00    0.639E-01
DAV:   4    -0.192510356877E+03    0.25381E-02   -0.15575E-02 12000   0.905E-01    0.527E-01
DAV:   5    -0.192507606964E+03    0.27499E-02   -0.83878E-03 11640   0.837E-01    0.351E-01
DAV:   6    -0.192506674030E+03    0.93293E-03   -0.45535E-03 11840   0.484E-01    0.224E-01
DAV:   7    -0.192506709884E+03   -0.35854E-04   -0.29697E-03 11760   0.410E-01    0.268E-01
DAV:   8    -0.192505901723E+03    0.80816E-03   -0.12700E-03 10120   0.284E-01    0.496E-02
DAV:   9    -0.192505874764E+03    0.26960E-04   -0.92269E-05  5960   0.447E-02
  36 F= -.19250587E+03 E0= -.19243077E+03  d E =-.104138E-01
       N       E                     dE             d eps       ncg     rms          rms(c)
DAV:   1    -0.192508257064E+03   -0.23553E-02   -0.10615E+00  8160   0.221E+00    0.308E-01
DAV:   2    -0.192517501154E+03   -0.92441E-02   -0.38959E-02 10960   0.115E+00    0.886E-01
DAV:   3    -0.192509043781E+03    0.84574E-02   -0.15340E-02 11840   0.105E+00    0.205E-01
DAV:   4    -0.192509050072E+03   -0.62912E-05   -0.21427E-03 11440   0.331E-01    0.222E-01
DAV:   5    -0.192508504703E+03    0.54537E-03   -0.12926E-03 10280   0.307E-01    0.111E-01
DAV:   6    -0.192508430740E+03    0.73963E-04   -0.57478E-04 10400   0.155E-01
  37 F= -.19250843E+03 E0= -.19243355E+03  d E =-.255598E-02
       N       E                     dE             d eps       ncg     rms          rms(c)
DAV:   1    -0.192509507833E+03   -0.10031E-02   -0.33930E-01  8160   0.125E+00    0.168E-01
DAV:   2    -0.192513046380E+03   -0.35385E-02   -0.16868E-02 12400   0.638E-01    0.502E-01
DAV:   3    -0.192510259992E+03    0.27864E-02   -0.51174E-03 11480   0.588E-01    0.119E-01
DAV:   4    -0.192510109912E+03    0.15008E-03   -0.52215E-04  9880   0.126E-01    0.549E-02
DAV:   5    -0.192510067153E+03    0.42759E-04   -0.13768E-04  7440   0.705E-02
  38 F= -.19251007E+03 E0= -.19243529E+03  d E =-.163641E-02
       N       E                     dE             d eps       ncg     rms          rms(c)
DAV:   1    -0.192509755197E+03    0.35471E-03   -0.42644E-02  8160   0.449E-01    0.768E-02
DAV:   2    -0.192510732144E+03   -0.97695E-03   -0.29961E-03 11520   0.356E-01    0.278E-01
DAV:   3    -0.192509799927E+03    0.93222E-03   -0.13238E-03  9760   0.312E-01    0.481E-02
DAV:   4    -0.192509798750E+03    0.11771E-05   -0.82725E-05  5720   0.743E-02
  39 F= -.19250980E+03 E0= -.19243508E+03  d E =0.268403E-03
