<?xml version="1.0" encoding="ISO-8859-1"?>
<modeling>
 <generator>
  <i name="program" type="string">vasp </i>
  <i name="version" type="string">5.4.1  </i>
  <i name="subversion" type="string">05Feb16 (build Jul 05 2020 17:13:04) complex                          parallel </i>
  <i name="platform" type="string">IFC91_ompi </i>
  <i name="date" type="string">2024 04 25 </i>
  <i name="time" type="string">23:22:31 </i>
 </generator>
 <incar>
  <i type="int" name="ISTART">     0</i>
  <i type="string" name="PREC">normal</i>
  <i type="string" name="ALGO"> Normal</i>
  <i type="int" name="ISPIN">     1</i>
  <i type="int" name="ICHARG">     2</i>
  <i type="int" name="IBRION">     1</i>
  <i type="int" name="NSW">   100</i>
  <i type="int" name="ISIF">     3</i>
  <i type="int" name="ISYM">     0</i>
  <i name="SYMPREC">      0.00000001</i>
  <i name="POTIM">      0.50000000</i>
  <i type="logical" name="LREAL"> F  </i>
  <i type="logical" name="LPLANE"> F  </i>
  <i type="int" name="ISMEAR">     0</i>
  <i type="logical" name="LWAVE"> F  </i>
  <i type="logical" name="LCHARG"> F  </i>
  <v type="int" name="KPOINT_BSE">    -1     0     0     0</v>
 </incar>
 <kpoints>
  <generation param="Gamma">
   <v type="int" name="divisions">       8        8        1 </v>
   <v name="usershift">      0.00000000       0.00000000       0.00000000 </v>
   <v name="genvec1">      0.12500000       0.00000000       0.00000000 </v>
   <v name="genvec2">     -0.00000000       0.12500000       0.00000000 </v>
   <v name="genvec3">      0.00000000       0.00000000       1.00000000 </v>
   <v name="shift">      0.00000000       0.00000000       0.00000000 </v>
  </generation>
  <varray name="kpointlist" >
   <v>       0.00000000       0.00000000       0.00000000 </v>
   <v>       0.12500000       0.00000000       0.00000000 </v>
   <v>       0.25000000       0.00000000       0.00000000 </v>
   <v>       0.37500000       0.00000000       0.00000000 </v>
   <v>       0.50000000       0.00000000       0.00000000 </v>
   <v>       0.00000000       0.12500000       0.00000000 </v>
   <v>       0.12500000       0.12500000       0.00000000 </v>
   <v>       0.25000000       0.12500000       0.00000000 </v>
   <v>       0.37500000       0.12500000       0.00000000 </v>
   <v>       0.50000000       0.12500000       0.00000000 </v>
   <v>      -0.37500000       0.12500000       0.00000000 </v>
   <v>      -0.25000000       0.12500000       0.00000000 </v>
   <v>      -0.12500000       0.12500000       0.00000000 </v>
   <v>       0.00000000       0.25000000       0.00000000 </v>
   <v>       0.12500000       0.25000000       0.00000000 </v>
   <v>       0.25000000       0.25000000       0.00000000 </v>
   <v>       0.37500000       0.25000000       0.00000000 </v>
   <v>       0.50000000       0.25000000       0.00000000 </v>
   <v>      -0.37500000       0.25000000       0.00000000 </v>
   <v>      -0.25000000       0.25000000       0.00000000 </v>
   <v>      -0.12500000       0.25000000       0.00000000 </v>
   <v>      -0.00000000       0.37500000       0.00000000 </v>
   <v>       0.12500000       0.37500000       0.00000000 </v>
   <v>       0.25000000       0.37500000       0.00000000 </v>
   <v>       0.37500000       0.37500000       0.00000000 </v>
   <v>       0.50000000       0.37500000       0.00000000 </v>
   <v>      -0.37500000       0.37500000       0.00000000 </v>
   <v>      -0.25000000       0.37500000       0.00000000 </v>
   <v>      -0.12500000       0.37500000       0.00000000 </v>
   <v>       0.00000000       0.50000000       0.00000000 </v>
   <v>       0.12500000       0.50000000       0.00000000 </v>
   <v>       0.25000000       0.50000000       0.00000000 </v>
   <v>       0.37500000       0.50000000       0.00000000 </v>
   <v>       0.50000000       0.50000000       0.00000000 </v>
  </varray>
  <varray name="weights" >
   <v>       0.01562500 </v>
   <v>       0.03125000 </v>
   <v>       0.03125000 </v>
   <v>       0.03125000 </v>
   <v>       0.01562500 </v>
   <v>       0.03125000 </v>
   <v>       0.03125000 </v>
   <v>       0.03125000 </v>
   <v>       0.03125000 </v>
   <v>       0.03125000 </v>
   <v>       0.03125000 </v>
   <v>       0.03125000 </v>
   <v>       0.03125000 </v>
   <v>       0.03125000 </v>
   <v>       0.03125000 </v>
   <v>       0.03125000 </v>
   <v>       0.03125000 </v>
   <v>       0.03125000 </v>
   <v>       0.03125000 </v>
   <v>       0.03125000 </v>
   <v>       0.03125000 </v>
   <v>       0.03125000 </v>
   <v>       0.03125000 </v>
   <v>       0.03125000 </v>
   <v>       0.03125000 </v>
   <v>       0.03125000 </v>
   <v>       0.03125000 </v>
   <v>       0.03125000 </v>
   <v>       0.03125000 </v>
   <v>       0.01562500 </v>
   <v>       0.03125000 </v>
   <v>       0.03125000 </v>
   <v>       0.03125000 </v>
   <v>       0.01562500 </v>
  </varray>
 </kpoints>
 <parameters>
  <separator name="general" >
   <i type="string" name="SYSTEM">unknown system</i>
   <i type="logical" name="LCOMPAT"> F  </i>
  </separator>
  <separator name="electronic" >
   <i type="string" name="PREC">normal</i>
   <i name="ENMAX">    280.00000000</i>
   <i name="ENAUG">    373.43800000</i>
   <i name="EDIFF">      0.00010000</i>
   <i type="int" name="IALGO">    38</i>
   <i type="int" name="IWAVPR">    11</i>
   <i type="int" name="NBANDS">   120</i>
   <i name="NELECT">    159.00000000</i>
   <i type="int" name="TURBO">     0</i>
   <i type="int" name="IRESTART">     0</i>
   <i type="int" name="NREBOOT">     0</i>
   <i type="int" name="NMIN">     0</i>
   <i name="EREF">      0.00000000</i>
   <separator name="electronic smearing" >
    <i type="int" name="ISMEAR">     0</i>
    <i name="SIGMA">      0.20000000</i>
    <i name="KSPACING">      0.50000000</i>
    <i type="logical" name="KGAMMA"> T  </i>
   </separator>
   <separator name="electronic projectors" >
    <i type="logical" name="LREAL"> F  </i>
    <v name="ROPT">      0.00000000      0.00000000      0.00000000      0.00000000</v>
    <i type="int" name="LMAXPAW">  -100</i>
    <i type="int" name="LMAXMIX">     2</i>
    <i type="logical" name="NLSPLINE"> F  </i>
   </separator>
   <separator name="electronic startup" >
    <i type="int" name="ISTART">     0</i>
    <i type="int" name="ICHARG">     2</i>
    <i type="int" name="INIWAV">     1</i>
   </separator>
   <separator name="electronic spin" >
    <i type="int" name="ISPIN">     1</i>
    <i type="logical" name="LNONCOLLINEAR"> F  </i>
    <v name="MAGMOM">      1.00000000      1.00000000      1.00000000      1.00000000      1.00000000      1.00000000      1.00000000      1.00000000      1.00000000      1.00000000      1.00000000      1.00000000      1.00000000      1.00000000      1.00000000      1.00000000      1.00000000      1.00000000      1.00000000      1.00000000
      1.00000000      1.00000000      1.00000000      1.00000000      1.00000000      1.00000000      1.00000000</v>
    <i name="NUPDOWN">     -1.00000000</i>
    <i type="logical" name="LSORBIT"> F  </i>
    <v name="SAXIS">      0.00000000      0.00000000      1.00000000</v>
    <i type="logical" name="LSPIRAL"> F  </i>
    <v name="QSPIRAL">      0.00000000      0.00000000      0.00000000</v>
    <i type="logical" name="LZEROZ"> F  </i>
   </separator>
   <separator name="electronic exchange-correlation" >
    <i type="logical" name="LASPH"> F  </i>
    <i type="logical" name="LMETAGGA"> F  </i>
   </separator>
   <separator name="electronic convergence" >
    <i type="int" name="NELM">    60</i>
    <i type="int" name="NELMDL">    -5</i>
    <i type="int" name="NELMIN">     2</i>
    <i name="ENINI">    280.00000000</i>
    <separator name="electronic convergence detail" >
     <i type="logical" name="LDIAG"> T  </i>
     <i type="logical" name="LSUBROT"> F  </i>
     <i name="WEIMIN">      0.00100000</i>
     <i name="EBREAK">      0.00000021</i>
     <i name="DEPER">      0.30000000</i>
     <i type="int" name="NRMM">     4</i>
     <i name="TIME">      0.40000000</i>
    </separator>
   </separator>
   <separator name="electronic mixer" >
    <i name="AMIX">      0.40000000</i>
    <i name="BMIX">      1.00000000</i>
    <i name="AMIN">      0.10000000</i>
    <i name="AMIX_MAG">      1.60000000</i>
    <i name="BMIX_MAG">      1.00000000</i>
    <separator name="electronic mixer details" >
     <i type="int" name="IMIX">     4</i>
     <i type="logical" name="MIXFIRST"> F  </i>
     <i type="int" name="MAXMIX">   -45</i>
     <i name="WC">    100.00000000</i>
     <i type="int" name="INIMIX">     1</i>
     <i type="int" name="MIXPRE">     1</i>
     <i type="int" name="MREMOVE">     5</i>
    </separator>
   </separator>
   <separator name="electronic dipolcorrection" >
    <i type="logical" name="LDIPOL"> F  </i>
    <i type="logical" name="LMONO"> F  </i>
    <i type="int" name="IDIPOL">     0</i>
    <i name="EPSILON">      1.00000000</i>
    <v name="DIPOL">   -100.00000000   -100.00000000   -100.00000000</v>
    <i name="EFIELD">      0.00000000</i>
   </separator>
  </separator>
  <separator name="grids" >
   <i type="int" name="NGX">    42</i>
   <i type="int" name="NGY">    42</i>
   <i type="int" name="NGZ">   126</i>
   <i type="int" name="NGXF">    84</i>
   <i type="int" name="NGYF">    84</i>
   <i type="int" name="NGZF">   252</i>
   <i type="logical" name="ADDGRID"> F  </i>
  </separator>
  <separator name="ionic" >
   <i type="int" name="NSW">   100</i>
   <i type="int" name="IBRION">     1</i>
   <i type="int" name="ISIF">     3</i>
   <i name="PSTRESS">      0.00000000</i>
   <i name="EDIFFG">      0.00100000</i>
   <i type="int" name="NFREE">     0</i>
   <i name="POTIM">      0.50000000</i>
   <i name="SMASS">     -3.00000000</i>
   <i name="SCALEE">      1.00000000</i>
  </separator>
  <separator name="ionic md" >
   <i name="TEBEG">      0.00010000</i>
   <i name="TEEND">      0.00010000</i>
   <i type="int" name="NBLOCK">     1</i>
   <i type="int" name="KBLOCK">   100</i>
   <i type="int" name="NPACO">   256</i>
   <i name="APACO">     16.00000000</i>
  </separator>
  <separator name="symmetry" >
   <i type="int" name="ISYM">     0</i>
   <i name="SYMPREC">      0.00000001</i>
  </separator>
  <separator name="dos" >
   <i type="logical" name="LORBIT"> F  </i>
   <v name="RWIGS">     -1.00000000     -1.00000000     -1.00000000     -1.00000000</v>
   <i type="int" name="NEDOS">   301</i>
   <i name="EMIN">     10.00000000</i>
   <i name="EMAX">    -10.00000000</i>
   <i name="EFERMI">      0.00000000</i>
  </separator>
  <separator name="writing" >
   <i type="int" name="NWRITE">     2</i>
   <i type="logical" name="LWAVE"> F  </i>
   <i type="logical" name="LCHARG"> F  </i>
   <i type="logical" name="LPARD"> F  </i>
   <i type="logical" name="LVTOT"> F  </i>
   <i type="logical" name="LVHAR"> F  </i>
   <i type="logical" name="LELF"> F  </i>
   <i type="logical" name="LOPTICS"> F  </i>
   <v name="STM">      0.00000000      0.00000000      0.00000000      0.00000000      0.00000000      0.00000000      0.00000000</v>
  </separator>
  <separator name="performance" >
   <i type="int" name="NPAR">    40</i>
   <i type="int" name="NSIM">     4</i>
   <i type="int" name="NBLK">    -1</i>
   <i type="logical" name="LPLANE"> F  </i>
   <i type="logical" name="LSCALAPACK"> T  </i>
   <i type="logical" name="LSCAAWARE"> F  </i>
   <i type="logical" name="LSCALU"> F  </i>
   <i type="logical" name="LASYNC"> F  </i>
   <i type="logical" name="LORBITALREAL"> F  </i>
  </separator>
  <separator name="miscellaneous" >
   <i type="int" name="IDIOT">     3</i>
   <i type="logical" name="LMUSIC"> F  </i>
   <v name="POMASS">     50.94100000     95.94000000    183.85000000     32.06600000</v>
   <v name="DARWINR">      0.00000000      0.00000000      0.00000000      0.00000000</v>
   <v name="DARWINV">      1.00000000      1.00000000      1.00000000      1.00000000</v>
   <i type="logical" name="LCORR"> T  </i>
  </separator>
  <i type="logical" name="GGA_COMPAT"> T  </i>
  <i type="logical" name="LBERRY"> F  </i>
  <i type="int" name="ICORELEVEL">     0</i>
  <i type="logical" name="LDAU"> F  </i>
  <i type="int" name="I_CONSTRAINED_M">     0</i>
  <separator name="electronic exchange-correlation" >
   <i type="string" name="GGA">--</i>
   <i type="int" name="VOSKOWN">     0</i>
   <i type="logical" name="LHFCALC"> F  </i>
   <i type="string" name="PRECFOCK"></i>
   <i type="logical" name="LSYMGRAD"> F  </i>
   <i type="logical" name="LHFONE"> F  </i>
   <i type="logical" name="LRHFCALC"> F  </i>
   <i type="logical" name="LTHOMAS"> F  </i>
   <i type="logical" name="LMODELHF"> F  </i>
   <i name="ENCUT4O">     -1.00000000</i>
   <i type="int" name="EXXOEP">     0</i>
   <i type="int" name="FOURORBIT">     0</i>
   <i name="AEXX">      0.00000000</i>
   <i name="HFALPHA">      0.00000000</i>
   <i name="MCALPHA">      0.00000000</i>
   <i name="ALDAX">      1.00000000</i>
   <i name="AGGAX">      1.00000000</i>
   <i name="ALDAC">      1.00000000</i>
   <i name="AGGAC">      1.00000000</i>
   <i type="int" name="NKREDX">     1</i>
   <i type="int" name="NKREDY">     1</i>
   <i type="int" name="NKREDZ">     1</i>
   <i type="logical" name="SHIFTRED"> F  </i>
   <i type="logical" name="ODDONLY"> F  </i>
   <i type="logical" name="EVENONLY"> F  </i>
   <i type="int" name="LMAXFOCK">     0</i>
   <i type="int" name="NMAXFOCKAE">     0</i>
   <i type="logical" name="LFOCKAEDFT"> F  </i>
   <i name="HFSCREEN">      0.00000000</i>
   <i name="HFSCREENC">      0.00000000</i>
   <i type="int" name="NBANDSGWLOW">     0</i>
  </separator>
  <separator name="vdW DFT" >
   <i type="logical" name="LUSE_VDW"> F  </i>
   <i name="Zab_VDW">     -0.84910000</i>
   <i name="PARAM1">      0.12340000</i>
   <i name="PARAM2">      1.00000000</i>
   <i name="PARAM3">      0.00000000</i>
  </separator>
  <separator name="model GW" >
   <i type="int" name="MODEL_GW">     0</i>
   <i name="MODEL_EPS0">     58.26239943</i>
   <i name="MODEL_ALPHA">      1.00000000</i>
  </separator>
  <separator name="linear response parameters" >
   <i type="logical" name="LEPSILON"> F  </i>
   <i type="logical" name="LRPA"> F  </i>
   <i type="logical" name="LNABLA"> F  </i>
   <i type="logical" name="LVEL"> F  </i>
   <i type="int" name="KINTER">     0</i>
   <i name="CSHIFT">      0.10000000</i>
   <i name="OMEGAMAX">     -1.00000000</i>
   <i name="DEG_THRESHOLD">      0.00200000</i>
  </separator>
  <separator name="orbital magnetization" >
   <i type="logical" name="NUCIND"> F  </i>
   <v name="MAGPOS">      0.00000000      0.00000000      0.00000000</v>
   <i type="logical" name="LNICSALL"> T  </i>
   <i type="logical" name="ORBITALMAG"> F  </i>
   <i type="logical" name="LMAGBLOCH"> F  </i>
   <i type="logical" name="LCHIMAG"> F  </i>
   <i type="logical" name="LGAUGE"> T  </i>
   <i type="int" name="MAGATOM">     0</i>
   <v name="MAGDIPOL">      0.00000000      0.00000000      0.00000000</v>
   <v name="AVECCONST">      0.00000000      0.00000000      0.00000000</v>
  </separator>
  <separator name="response functions" >
   <i type="logical" name="LADDER"> F  </i>
   <i type="logical" name="LFXC"> F  </i>
   <i type="logical" name="LHARTREE"> T  </i>
   <i type="int" name="IBSE">     0</i>
   <v type="int" name="KPOINT">    -1     0     0     0</v>
   <i type="logical" name="LTCTE"> F  </i>
   <i type="logical" name="LTETE"> F  </i>
   <i type="logical" name="LTRIPLET"> F  </i>
   <i type="logical" name="LFXCEPS"> F  </i>
   <i type="logical" name="LFXHEG"> F  </i>
   <i type="int" name="NATURALO">     0</i>
   <i type="logical" name="L2ORDER"> F  </i>
   <i type="logical" name="LUSEW"> F  </i>
   <i name="ENCUTGW">     -2.00000000</i>
   <i name="ENCUTGWSOFT">     -2.00000000</i>
   <i name="ENCUTLF">     -1.00000000</i>
   <i type="int" name="LMAXMP2">    -1</i>
   <i name="SCISSOR">      0.00000000</i>
   <i type="int" name="NOMEGA">     0</i>
   <i type="int" name="NOMEGAR">     0</i>
   <i type="int" name="NBANDSGW">    -1</i>
   <i type="int" name="NBANDSO">    -1</i>
   <i type="int" name="NBANDSV">    -1</i>
   <i type="int" name="NELM">     1</i>
   <i type="int" name="NELMHF">     1</i>
   <i type="int" name="DIM">     3</i>
   <i type="int" name="ANTIRES">     0</i>
   <i name="OMEGAMAX">    -30.00000000</i>
   <i name="OMEGAMIN">    -30.00000000</i>
   <i name="OMEGATL">   -200.00000000</i>
   <i type="int" name="OMEGAGRID">     0</i>
   <i name="CSHIFT">     -0.10000000</i>
   <i type="logical" name="SELFENERGY"> F  </i>
   <i type="logical" name="LSPECTRAL"> F  </i>
   <i type="logical" name="LSPECTRALGW"> F  </i>
   <i type="logical" name="LSINGLES"> F  </i>
   <i type="logical" name="LFERMIGW"> F  </i>
   <i type="logical" name="ODDONLYGW"> F  </i>
   <i type="logical" name="EVENONLYGW"> F  </i>
   <i type="int" name="NKREDLFX">     1</i>
   <i type="int" name="NKREDLFY">     1</i>
   <i type="int" name="NKREDLFZ">     1</i>
   <i type="int" name="MAXMEM">  1800</i>
   <i type="int" name="TELESCOPE">     0</i>
   <i type="int" name="TAUPAR">     1</i>
   <i type="int" name="OMEGAPAR">    -1</i>
   <i name="LAMBDA">      1.00000000</i>
  </separator>
  <separator name="External order field" >
   <i name="OFIELD_KAPPA">      0.00000000</i>
   <v name="OFIELD_K">      0.00000000      0.00000000      0.00000000</v>
   <i name="OFIELD_Q6_NEAR">      0.00000000</i>
   <i name="OFIELD_Q6_FAR">      0.00000000</i>
   <i name="OFIELD_A">      0.00000000</i>
  </separator>
 </parameters>
 <atominfo>
  <atoms>      27 </atoms>
  <types>       4 </types>
  <array name="atoms" >
   <dimension dim="1">ion</dimension>
   <field type="string">element</field>
   <field type="int">atomtype</field>
   <set>
    <rc><c>V </c><c>   1</c></rc>
    <rc><c>V </c><c>   1</c></rc>
    <rc><c>V </c><c>   1</c></rc>
    <rc><c>Mo</c><c>   2</c></rc>
    <rc><c>Mo</c><c>   2</c></rc>
    <rc><c>Mo</c><c>   2</c></rc>
    <rc><c>W </c><c>   3</c></rc>
    <rc><c>W </c><c>   3</c></rc>
    <rc><c>W </c><c>   3</c></rc>
    <rc><c>S </c><c>   4</c></rc>
    <rc><c>S </c><c>   4</c></rc>
    <rc><c>S </c><c>   4</c></rc>
    <rc><c>S </c><c>   4</c></rc>
    <rc><c>S </c><c>   4</c></rc>
    <rc><c>S </c><c>   4</c></rc>
    <rc><c>S </c><c>   4</c></rc>
    <rc><c>S </c><c>   4</c></rc>
    <rc><c>S </c><c>   4</c></rc>
    <rc><c>S </c><c>   4</c></rc>
    <rc><c>S </c><c>   4</c></rc>
    <rc><c>S </c><c>   4</c></rc>
    <rc><c>S </c><c>   4</c></rc>
    <rc><c>S </c><c>   4</c></rc>
    <rc><c>S </c><c>   4</c></rc>
    <rc><c>S </c><c>   4</c></rc>
    <rc><c>S </c><c>   4</c></rc>
    <rc><c>S </c><c>   4</c></rc>
   </set>
  </array>
  <array name="atomtypes" >
   <dimension dim="1">type</dimension>
   <field type="int">atomspertype</field>
   <field type="string">element</field>
   <field>mass</field>
   <field>valence</field>
   <field type="string">pseudopotential</field>
   <set>
    <rc><c>   3</c><c>V </c><c>     50.94100000</c><c>      5.00000000</c><c> PAW_PBE V 08Apr2002                    </c></rc>
    <rc><c>   3</c><c>Mo</c><c>     95.94000000</c><c>      6.00000000</c><c> PAW_PBE Mo 08Apr2002                   </c></rc>
    <rc><c>   3</c><c>W </c><c>    183.85000000</c><c>      6.00000000</c><c> PAW_PBE W 08Apr2002                    </c></rc>
    <rc><c>  18</c><c>S </c><c>     32.06600000</c><c>      6.00000000</c><c>  PAW_PBE S 17Jan2003                   </c></rc>
   </set>
  </array>
 </atominfo>
 <structure name="initialpos" >
  <crystal>
   <varray name="basis" >
    <v>       8.66999996       5.03999989       0.00000000 </v>
    <v>      -8.66999982       5.04000013       0.00000000 </v>
    <v>       0.00000000       0.00000000      30.00000000 </v>
   </varray>
   <i name="volume">   2621.80797419 </i>
   <varray name="rec_basis" >
    <v>       0.05767013       0.09920635       0.00000000 </v>
    <v>      -0.05767013       0.09920635       0.00000000 </v>
    <v>       0.00000000       0.00000000       0.03333333 </v>
   </varray>
  </crystal>
  <varray name="positions" >
   <v>       0.33333334       0.00000000       0.00000000 </v>
   <v>       0.66666669       0.33333334       0.00000000 </v>
   <v>       0.66666669       0.66666669       0.00000000 </v>
   <v>       0.33333334       0.33333334       0.00000000 </v>
   <v>       1.00000000       0.33333334       0.00000000 </v>
   <v>       0.00000000       0.00000000       0.00000000 </v>
   <v>       0.00000000       0.66666669       0.00000000 </v>
   <v>       0.33333334       0.66666669       0.00000000 </v>
   <v>       0.66666669       0.00000000       0.00000000 </v>
   <v>       0.11068511       0.22244981       0.95539999 </v>
   <v>       0.22244981       0.11068511       0.04460000 </v>
   <v>       0.11068511       0.55578315       0.95539999 </v>
   <v>       0.22244981       0.44401845       0.04460000 </v>
   <v>       0.11068511       0.88911647       0.95539999 </v>
   <v>       0.22244981       0.77735180       0.04460000 </v>
   <v>       0.44401845       0.22244981       0.95539999 </v>
   <v>       0.55578315       0.11068511       0.04460000 </v>
   <v>       0.44401845       0.55578315       0.95539999 </v>
   <v>       0.55578315       0.44401845       0.04460000 </v>
   <v>       0.44401845       0.88911647       0.95539999 </v>
   <v>       0.55578315       0.77735180       0.04460000 </v>
   <v>       0.77735180       0.22244981       0.95539999 </v>
   <v>       0.88911647       0.11068511       0.04460000 </v>
   <v>       0.77735180       0.55578315       0.95539999 </v>
   <v>       0.88911647       0.44401845       0.04460000 </v>
   <v>       0.77735180       0.88911647       0.95539999 </v>
   <v>       0.88911647       0.77735180       0.04460000 </v>
  </varray>
 </structure>
 <calculation>
  <scstep>
   <time name="dav">   21.54   21.64</time>
   <time name="total">   21.59   21.68</time>
   <energy>
    <i name="alphaZ">     81.65567618 </i>
    <i name="ewald">  41890.23010356 </i>
    <i name="hartreedc"> -47722.85866320 </i>
    <i name="XCdc">   -242.92971630 </i>
    <i name="pawpsdc">   3467.42045192 </i>
    <i name="pawaedc">  -2871.19716117 </i>
    <i name="eentropy">     -0.54753548 </i>
    <i name="bandstr">   -238.82087410 </i>
    <i name="atom">   6761.44252427 </i>
    <i name="e_fr_energy">   1124.39480568 </i>
    <i name="e_wo_entrp">   1124.94234116 </i>
    <i name="e_0_energy">   1124.66857342 </i>
   </energy>
  </scstep>
  <scstep>
   <time name="dav">   27.26   27.32</time>
   <time name="total">   27.26   27.33</time>
   <energy>
    <i name="e_fr_energy">     -1.59175555 </i>
    <i name="e_wo_entrp">     -1.43179691 </i>
    <i name="e_0_energy">     -1.51177623 </i>
   </energy>
  </scstep>
  <scstep>
   <time name="dav">   27.61   27.67</time>
   <time name="total">   27.61   27.68</time>
   <energy>
    <i name="e_fr_energy">   -199.74637071 </i>
    <i name="e_wo_entrp">   -199.46849355 </i>
    <i name="e_0_energy">   -199.60743213 </i>
   </energy>
  </scstep>
  <scstep>
   <time name="dav">   29.79   29.86</time>
   <time name="total">   29.79   29.87</time>
   <energy>
    <i name="e_fr_energy">   -208.90725207 </i>
    <i name="e_wo_entrp">   -208.58462592 </i>
    <i name="e_0_energy">   -208.74593900 </i>
   </energy>
  </scstep>
  <scstep>
   <time name="dav">   28.42   28.48</time>
   <time name="total">   28.88   28.96</time>
   <energy>
    <i name="e_fr_energy">   -209.22337775 </i>
    <i name="e_wo_entrp">   -208.90401391 </i>
    <i name="e_0_energy">   -209.06369583 </i>
   </energy>
  </scstep>
  <scstep>
   <time name="dav">   30.69   30.76</time>
   <time name="total">   31.19   31.27</time>
   <energy>
    <i name="e_fr_energy">   -236.36782153 </i>
    <i name="e_wo_entrp">   -236.09067960 </i>
    <i name="e_0_energy">   -236.22925056 </i>
   </energy>
  </scstep>
  <scstep>
   <time name="dav">   32.31   32.39</time>
   <time name="total">   32.81   32.90</time>
   <energy>
    <i name="e_fr_energy">   -196.82525426 </i>
    <i name="e_wo_entrp">   -196.49488712 </i>
    <i name="e_0_energy">   -196.66007069 </i>
   </energy>
  </scstep>
  <scstep>
   <time name="dav">   29.33   29.40</time>
   <time name="total">   29.84   29.92</time>
   <energy>
    <i name="e_fr_energy">   -190.30046306 </i>
    <i name="e_wo_entrp">   -190.03285866 </i>
    <i name="e_0_energy">   -190.16666086 </i>
   </energy>
  </scstep>
  <scstep>
   <time name="dav">   29.93   30.00</time>
   <time name="total">   30.45   30.53</time>
   <energy>
    <i name="e_fr_energy">   -188.29602280 </i>
    <i name="e_wo_entrp">   -187.96129171 </i>
    <i name="e_0_energy">   -188.12865725 </i>
   </energy>
  </scstep>
  <scstep>
   <time name="dav">   32.32   32.39</time>
   <time name="total">   32.85   32.93</time>
   <energy>
    <i name="e_fr_energy">   -187.10075242 </i>
    <i name="e_wo_entrp">   -186.75424552 </i>
    <i name="e_0_energy">   -186.92749897 </i>
   </energy>
  </scstep>
  <scstep>
   <time name="dav">   30.18   30.25</time>
   <time name="total">   30.72   30.80</time>
   <energy>
    <i name="e_fr_energy">   -187.01442394 </i>
    <i name="e_wo_entrp">   -186.66774801 </i>
    <i name="e_0_energy">   -186.84108597 </i>
   </energy>
  </scstep>
  <scstep>
   <time name="dav">   31.64   31.72</time>
   <time name="total">   32.17   32.26</time>
   <energy>
    <i name="e_fr_energy">   -186.97463604 </i>
    <i name="e_wo_entrp">   -186.63822199 </i>
    <i name="e_0_energy">   -186.80642902 </i>
   </energy>
  </scstep>
  <scstep>
   <time name="dav">   32.14   32.22</time>
   <time name="total">   32.68   32.77</time>
   <energy>
    <i name="e_fr_energy">   -186.93002052 </i>
    <i name="e_wo_entrp">   -186.59115623 </i>
    <i name="e_0_energy">   -186.76058838 </i>
   </energy>
  </scstep>
  <scstep>
   <time name="dav">   31.79   31.87</time>
   <time name="total">   32.33   32.41</time>
   <energy>
    <i name="e_fr_energy">   -186.89201058 </i>
    <i name="e_wo_entrp">   -186.54842291 </i>
    <i name="e_0_energy">   -186.72021675 </i>
   </energy>
  </scstep>
  <scstep>
   <time name="dav">   29.28   29.35</time>
   <time name="total">   29.81   29.89</time>
   <energy>
    <i name="e_fr_energy">   -186.88750660 </i>
    <i name="e_wo_entrp">   -186.54309985 </i>
    <i name="e_0_energy">   -186.71530323 </i>
   </energy>
  </scstep>
  <scstep>
   <time name="dav">   31.93   32.01</time>
   <time name="total">   32.46   32.55</time>
   <energy>
    <i name="e_fr_energy">   -186.88732764 </i>
    <i name="e_wo_entrp">   -186.54381412 </i>
    <i name="e_0_energy">   -186.71557088 </i>
   </energy>
  </scstep>
  <scstep>
   <time name="dav">   31.12   31.19</time>
   <time name="total">   31.65   31.74</time>
   <energy>
    <i name="e_fr_energy">   -186.88513266 </i>
    <i name="e_wo_entrp">   -186.54203945 </i>
    <i name="e_0_energy">   -186.71358605 </i>
   </energy>
  </scstep>
  <scstep>
   <time name="dav">   31.24   31.32</time>
   <time name="total">   31.78   31.86</time>
   <energy>
    <i name="e_fr_energy">   -186.88401081 </i>
    <i name="e_wo_entrp">   -186.54145600 </i>
    <i name="e_0_energy">   -186.71273341 </i>
   </energy>
  </scstep>
  <scstep>
   <time name="dav">   27.29   27.35</time>
   <time name="total">   27.83   27.90</time>
   <energy>
    <i name="e_fr_energy">   -186.88381312 </i>
    <i name="e_wo_entrp">   -186.54074905 </i>
    <i name="e_0_energy">   -186.71228109 </i>
   </energy>
  </scstep>
  <scstep>
   <time name="dav">   23.51   23.57</time>
   <time name="total">   24.04   24.11</time>
   <energy>
    <i name="e_fr_energy">   -186.88467712 </i>
    <i name="e_wo_entrp">   -186.54194465 </i>
    <i name="e_0_energy">   -186.71331089 </i>
   </energy>
  </scstep>
  <scstep>
   <time name="dav">   21.31   21.36</time>
   <time name="total">   21.84   21.90</time>
   <energy>
    <i name="e_fr_energy">   -186.88543165 </i>
    <i name="e_wo_entrp">   -186.54258354 </i>
    <i name="e_0_energy">   -186.71400760 </i>
   </energy>
  </scstep>
  <scstep>
   <time name="dav">   19.62   19.66</time>
   <time name="total">   20.15   20.21</time>
   <energy>
    <i name="e_fr_energy">   -186.88628618 </i>
    <i name="e_wo_entrp">   -186.54344890 </i>
    <i name="e_0_energy">   -186.71486754 </i>
   </energy>
  </scstep>
  <scstep>
   <time name="dav">   20.09   20.14</time>
   <time name="total">   20.62   20.68</time>
   <energy>
    <i name="e_fr_energy">   -186.88752957 </i>
    <i name="e_wo_entrp">   -186.54482893 </i>
    <i name="e_0_energy">   -186.71617925 </i>
   </energy>
  </scstep>
  <scstep>
   <time name="dav">   18.85   18.90</time>
   <time name="total">   19.39   19.44</time>
   <energy>
    <i name="e_fr_energy">   -186.88806380 </i>
    <i name="e_wo_entrp">   -186.54528813 </i>
    <i name="e_0_energy">   -186.71667596 </i>
   </energy>
  </scstep>
  <scstep>
   <time name="dav">   16.09   16.13</time>
   <time name="total">   16.63   16.68</time>
   <energy>
    <i name="e_fr_energy">   -186.88847195 </i>
    <i name="e_wo_entrp">   -186.54567682 </i>
    <i name="e_0_energy">   -186.71707438 </i>
   </energy>
  </scstep>
  <scstep>
   <time name="dav">   18.94   18.99</time>
   <time name="total">   19.48   19.53</time>
   <energy>
    <i name="e_fr_energy">   -186.88871026 </i>
    <i name="e_wo_entrp">   -186.54593585 </i>
    <i name="e_0_energy">   -186.71732305 </i>
   </energy>
  </scstep>
  <scstep>
   <time name="dav">   19.66   19.71</time>
   <time name="total">   19.69   19.75</time>
   <energy>
    <i name="alphaZ">     81.65567618 </i>
    <i name="ewald">  41890.23010356 </i>
    <i name="hartreedc"> -47833.14096911 </i>
    <i name="XCdc">   -231.59824873 </i>
    <i name="pawpsdc">   4192.18675931 </i>
    <i name="pawaedc">  -3610.21249877 </i>
    <i name="eentropy">     -0.34277648 </i>
    <i name="bandstr">  -1437.10936798 </i>
    <i name="atom">   6761.44252427 </i>
    <i name="e_fr_energy">   -186.88879775 </i>
    <i name="e_wo_entrp">   -186.54602126 </i>
    <i name="e_0_energy">   -186.71740950 </i>
   </energy>
  </scstep>
  <structure>
   <crystal>
    <varray name="basis" >
     <v>       8.66999996       5.03999989       0.00000000 </v>
     <v>      -8.66999982       5.04000013       0.00000000 </v>
     <v>       0.00000000       0.00000000      30.00000000 </v>
    </varray>
    <i name="volume">   2621.80797419 </i>
    <varray name="rec_basis" >
     <v>       0.05767013       0.09920635       0.00000000 </v>
     <v>      -0.05767013       0.09920635       0.00000000 </v>
     <v>       0.00000000       0.00000000       0.03333333 </v>
    </varray>
   </crystal>
   <varray name="positions" >
    <v>       0.33333334       0.00000000       0.00000000 </v>
    <v>       0.66666669       0.33333334       0.00000000 </v>
    <v>       0.66666669       0.66666669       0.00000000 </v>
    <v>       0.33333334       0.33333334       0.00000000 </v>
    <v>       1.00000000       0.33333334       0.00000000 </v>
    <v>       0.00000000       0.00000000       0.00000000 </v>
    <v>       0.00000000       0.66666669       0.00000000 </v>
    <v>       0.33333334       0.66666669       0.00000000 </v>
    <v>       0.66666669       0.00000000       0.00000000 </v>
    <v>       0.11068511       0.22244981       0.95539999 </v>
    <v>       0.22244981       0.11068511       0.04460000 </v>
    <v>       0.11068511       0.55578315       0.95539999 </v>
    <v>       0.22244981       0.44401845       0.04460000 </v>
    <v>       0.11068511       0.88911647       0.95539999 </v>
    <v>       0.22244981       0.77735180       0.04460000 </v>
    <v>       0.44401845       0.22244981       0.95539999 </v>
    <v>       0.55578315       0.11068511       0.04460000 </v>
    <v>       0.44401845       0.55578315       0.95539999 </v>
    <v>       0.55578315       0.44401845       0.04460000 </v>
    <v>       0.44401845       0.88911647       0.95539999 </v>
    <v>       0.55578315       0.77735180       0.04460000 </v>
    <v>       0.77735180       0.22244981       0.95539999 </v>
    <v>       0.88911647       0.11068511       0.04460000 </v>
    <v>       0.77735180       0.55578315       0.95539999 </v>
    <v>       0.88911647       0.44401845       0.04460000 </v>
    <v>       0.77735180       0.88911647       0.95539999 </v>
    <v>       0.88911647       0.77735180       0.04460000 </v>
   </varray>
  </structure>
  <varray name="forces" >
   <v>      -0.43770938       0.06480849       0.06237787 </v>
   <v>      -0.08201495      -0.04461747       0.03017605 </v>
   <v>       0.06499294      -0.04895755      -0.06166812 </v>
   <v>      -0.17246289      -0.38473257       0.02023443 </v>
   <v>       0.52669980       0.00358888       0.01002166 </v>
   <v>      -0.26171411       0.43455313      -0.09585548 </v>
   <v>      -0.05825879      -0.04869366       0.01771025 </v>
   <v>       0.29497880      -0.44971844       0.07080383 </v>
   <v>       0.21331003       0.46898401      -0.02634957 </v>
   <v>       0.11914574      -0.01943853      -2.94664994 </v>
   <v>       0.77626892       0.01216902       2.13746484 </v>
   <v>       0.04671798       0.10658895      -2.89827294 </v>
   <v>      -0.23121931       0.16409416       2.93412207 </v>
   <v>       0.59763561       0.54050204      -2.14274967 </v>
   <v>      -0.46806033       0.59753608       2.19837382 </v>
   <v>       0.89811801      -0.00174080      -1.45910873 </v>
   <v>      -0.75684096      -0.02241424       1.47661495 </v>
   <v>       0.37998428       0.72975033      -2.17336163 </v>
   <v>       0.32517816       0.66807480       1.39233969 </v>
   <v>      -0.59978950       0.00388721      -2.03483472 </v>
   <v>       0.57634643      -0.01162977       2.10117350 </v>
   <v>      -0.65819401      -0.14673588      -2.10765479 </v>
   <v>      -0.23310452      -0.14433588       2.91508952 </v>
   <v>      -0.26323068      -0.52270629      -1.45166009 </v>
   <v>      -0.60782173      -0.53781551       2.10725518 </v>
   <v>       0.37241971      -0.71541878      -2.18099106 </v>
   <v>      -0.36137527      -0.69558174       2.10539908 </v>
  </varray>
  <varray name="stress" >
   <v>       7.35328885       0.09744377      -1.52877949 </v>
   <v>       0.09744366       4.42579872       0.04529621 </v>
   <v>      -1.52877946       0.04529636      30.28146766 </v>
  </varray>
  <energy>
   <i name="e_fr_energy">   -186.88879775 </i>
   <i name="e_wo_entrp">   -186.71740950 </i>
   <i name="e_0_energy">     -0.34277648 </i>
  </energy>
  <time name="totalsc">  777.24  779.38</time>
 </calculation>
 <calculation>
  <scstep>
   <time name="dav">   21.49   21.55</time>
   <time name="total">   22.04   22.09</time>
   <energy>
    <i name="alphaZ">     78.91582654 </i>
    <i name="ewald">  39377.56873393 </i>
    <i name="hartreedc"> -45335.12541817 </i>
    <i name="XCdc">   -239.05725264 </i>
    <i name="pawpsdc">   4192.17209849 </i>
    <i name="pawaedc">  -3610.19795463 </i>
    <i name="eentropy">     -0.28177396 </i>
    <i name="bandstr">  -1412.98093927 </i>
    <i name="atom">   6761.44252427 </i>
    <i name="e_fr_energy">   -187.54415545 </i>
    <i name="e_wo_entrp">   -187.26238148 </i>
    <i name="e_0_energy">   -187.40326847 </i>
   </energy>
  </scstep>
  <scstep>
   <time name="dav">   30.26   30.33</time>
   <time name="total">   30.79   30.87</time>
   <energy>
    <i name="e_fr_energy">   -189.65194430 </i>
    <i name="e_wo_entrp">   -189.31196765 </i>
    <i name="e_0_energy">   -189.48195598 </i>
   </energy>
  </scstep>
  <scstep>
   <time name="dav">   30.02   30.09</time>
   <time name="total">   30.57   30.66</time>
   <energy>
    <i name="e_fr_energy">   -189.34135473 </i>
    <i name="e_wo_entrp">   -189.06733519 </i>
    <i name="e_0_energy">   -189.20434496 </i>
   </energy>
  </scstep>
  <scstep>
   <time name="dav">   30.38   30.45</time>
   <time name="total">   30.92   31.01</time>
   <energy>
    <i name="e_fr_energy">   -188.80650722 </i>
    <i name="e_wo_entrp">   -188.52564866 </i>
    <i name="e_0_energy">   -188.66607794 </i>
   </energy>
  </scstep>
  <scstep>
   <time name="dav">   30.18   30.25</time>
   <time name="total">   30.72   30.80</time>
   <energy>
    <i name="e_fr_energy">   -188.95969827 </i>
    <i name="e_wo_entrp">   -188.66572520 </i>
    <i name="e_0_energy">   -188.81271173 </i>
   </energy>
  </scstep>
  <scstep>
   <time name="dav">   31.16   31.24</time>
   <time name="total">   31.71   31.79</time>
   <energy>
    <i name="e_fr_energy">   -188.77937227 </i>
    <i name="e_wo_entrp">   -188.49987299 </i>
    <i name="e_0_energy">   -188.63962263 </i>
   </energy>
  </scstep>
  <scstep>
   <time name="dav">   28.77   28.84</time>
   <time name="total">   29.32   29.40</time>
   <energy>
    <i name="e_fr_energy">   -188.76632739 </i>
    <i name="e_wo_entrp">   -188.48533165 </i>
    <i name="e_0_energy">   -188.62582952 </i>
   </energy>
  </scstep>
  <scstep>
   <time name="dav">   31.52   31.59</time>
   <time name="total">   32.06   32.16</time>
   <energy>
    <i name="e_fr_energy">   -188.73595512 </i>
    <i name="e_wo_entrp">   -188.45541519 </i>
    <i name="e_0_energy">   -188.59568515 </i>
   </energy>
  </scstep>
  <scstep>
   <time name="dav">   30.19   30.27</time>
   <time name="total">   30.74   30.82</time>
   <energy>
    <i name="e_fr_energy">   -188.71594962 </i>
    <i name="e_wo_entrp">   -188.43637041 </i>
    <i name="e_0_energy">   -188.57616002 </i>
   </energy>
  </scstep>
  <scstep>
   <time name="dav">   27.05   27.12</time>
   <time name="total">   27.60   27.67</time>
   <energy>
    <i name="e_fr_energy">   -188.71523809 </i>
    <i name="e_wo_entrp">   -188.43581077 </i>
    <i name="e_0_energy">   -188.57552443 </i>
   </energy>
  </scstep>
  <scstep>
   <time name="dav">   30.61   30.68</time>
   <time name="total">   31.15   31.24</time>
   <energy>
    <i name="e_fr_energy">   -188.71472735 </i>
    <i name="e_wo_entrp">   -188.43575259 </i>
    <i name="e_0_energy">   -188.57523997 </i>
   </energy>
  </scstep>
  <scstep>
   <time name="dav">   28.83   28.90</time>
   <time name="total">   29.37   29.45</time>
   <energy>
    <i name="e_fr_energy">   -188.71487183 </i>
    <i name="e_wo_entrp">   -188.43581714 </i>
    <i name="e_0_energy">   -188.57534448 </i>
   </energy>
  </scstep>
  <scstep>
   <time name="dav">   21.37   21.43</time>
   <time name="total">   21.41   21.47</time>
   <energy>
    <i name="alphaZ">     78.91582654 </i>
    <i name="ewald">  39377.56873393 </i>
    <i name="hartreedc"> -45345.84715569 </i>
    <i name="XCdc">   -237.96854432 </i>
    <i name="pawpsdc">   3950.59792690 </i>
    <i name="pawaedc">  -3365.12081942 </i>
    <i name="eentropy">     -0.27905294 </i>
    <i name="bandstr">  -1408.02424409 </i>
    <i name="atom">   6761.44252427 </i>
    <i name="e_fr_energy">   -188.71480482 </i>
    <i name="e_wo_entrp">   -188.43575189 </i>
    <i name="e_0_energy">   -188.57527836 </i>
   </energy>
  </scstep>
  <structure>
   <crystal>
    <varray name="basis" >
     <v>       8.85784130       5.10768996       0.00000000 </v>
     <v>      -8.85496924       5.10274981       0.00000000 </v>
     <v>       0.00000000       0.00000000      30.00000000 </v>
    </varray>
    <i name="volume">   2712.83356361 </i>
    <varray name="rec_basis" >
     <v>       0.05642900       0.09792310       0.00000000 </v>
     <v>      -0.05648363       0.09795486       0.00000000 </v>
     <v>       0.00000000       0.00000000       0.03333333 </v>
    </varray>
   </crystal>
   <varray name="positions" >
    <v>       0.33242574       0.00152795       0.00010031 </v>
    <v>       0.66622497       0.33334798       0.00004853 </v>
    <v>       0.66661320       0.66625156      -0.00009917 </v>
    <v>       0.33101220       0.33197184       0.00003254 </v>
    <v>       1.00148254       0.33188516       0.00001612 </v>
    <v>       0.00135163       0.00280789      -0.00015414 </v>
    <v>      -0.00039513       0.66659573       0.00002848 </v>
    <v>       0.33200168       0.66369367       0.00011386 </v>
    <v>       0.66950470       0.00165108      -0.00004237 </v>
    <v>       0.11092356       0.22202529       0.95066152 </v>
    <v>       0.22466775       0.10858365       0.04803723 </v>
    <v>       0.11132522       0.55616331       0.95073931 </v>
    <v>       0.22259187       0.44544709       0.04931833 </v>
    <v>       0.11493466       0.89004058       0.95195426 </v>
    <v>       0.22400738       0.78151381       0.04813518 </v>
    <v>       0.44650883       0.21994277       0.95305361 </v>
    <v>       0.55357023       0.11268349       0.04697453 </v>
    <v>       0.44856820       0.55821854       0.95190503 </v>
    <v>       0.55988524       0.44631115       0.04683900 </v>
    <v>       0.44236835       0.89080378       0.95212780 </v>
    <v>       0.55733098       0.77569265       0.04797887 </v>
    <v>       0.77481832       0.22357874       0.95201069 </v>
    <v>       0.88777714       0.11064286       0.04928772 </v>
    <v>       0.77411779       0.55401384       0.95306559 </v>
    <v>       0.88485144       0.44313554       0.04798865 </v>
    <v>       0.77496395       0.88465636       0.95189276 </v>
    <v>       0.88478202       0.77502816       0.04798567 </v>
   </varray>
  </structure>
  <varray name="forces" >
   <v>      -0.33470501       0.00831417      -0.06126221 </v>
   <v>      -0.05167611      -0.03025642       0.09157310 </v>
   <v>       0.02945708      -0.00753923       0.06874393 </v>
   <v>      -0.45243427      -0.46503767       0.00146544 </v>
   <v>       0.62517211       0.07679582      -0.01133660 </v>
   <v>      -0.42257375       0.43345635      -0.03087741 </v>
   <v>       0.07319900       0.04956882       0.11270201 </v>
   <v>       0.18747714      -0.55420929      -0.07213825 </v>
   <v>       0.27430477       0.49051255      -0.11937904 </v>
   <v>       0.00410009       0.00108187      -0.40206991 </v>
   <v>       0.05149247       0.00310530       0.18318992 </v>
   <v>      -0.06128845       0.08500007       0.00857240 </v>
   <v>      -0.05115964       0.09893894       0.28762617 </v>
   <v>       0.07058237      -0.05618231       0.04281781 </v>
   <v>       0.05611657      -0.05235747      -0.11678040 </v>
   <v>       0.02551067       0.00595168       0.09602479 </v>
   <v>       0.10560183       0.00174299      -0.15358954 </v>
   <v>      -0.09993311       0.04648787       0.02584815 </v>
   <v>       0.00865370       0.02622595      -0.15804262 </v>
   <v>       0.10327219      -0.00046989       0.36521561 </v>
   <v>      -0.09379502      -0.00390309      -0.14935521 </v>
   <v>       0.03136124      -0.10279612       0.02321084 </v>
   <v>      -0.04943360      -0.09871803       0.24214126 </v>
   <v>       0.04844215       0.06236203       0.03830616 </v>
   <v>      -0.07195585       0.06059827      -0.14034604 </v>
   <v>      -0.11108164      -0.03966363      -0.00285942 </v>
   <v>       0.10529307      -0.03900953      -0.16940093 </v>
  </varray>
  <varray name="stress" >
   <v>     -19.89932237      -0.01485943       0.04188298 </v>
   <v>      -0.01485965     -19.48348205      -0.01351229 </v>
   <v>       0.04188313      -0.01351224      -1.76583105 </v>
  </varray>
  <energy>
   <i name="e_fr_energy">   -188.71480482 </i>
   <i name="e_wo_entrp">   -188.57527836 </i>
   <i name="e_0_energy">     -0.27905294 </i>
  </energy>
  <time name="totalsc">  420.38  421.50</time>
 </calculation>
 <calculation>
  <scstep>
   <time name="dav">   23.37   23.42</time>
   <time name="total">   23.90   23.96</time>
   <energy>
    <i name="alphaZ">     82.33689358 </i>
    <i name="ewald">  41299.18467448 </i>
    <i name="hartreedc"> -47297.97245963 </i>
    <i name="XCdc">   -233.84847459 </i>
    <i name="pawpsdc">   3950.06627446 </i>
    <i name="pawaedc">  -3364.58411537 </i>
    <i name="eentropy">     -0.23645601 </i>
    <i name="bandstr">  -1387.03465216 </i>
    <i name="atom">   6761.44252427 </i>
    <i name="e_fr_energy">   -190.64579097 </i>
    <i name="e_wo_entrp">   -190.40933495 </i>
    <i name="e_0_energy">   -190.52756296 </i>
   </energy>
  </scstep>
  <scstep>
   <time name="dav">   27.58   27.65</time>
   <time name="total">   28.10   28.18</time>
   <energy>
    <i name="e_fr_energy">   -190.56462434 </i>
    <i name="e_wo_entrp">   -190.32730349 </i>
    <i name="e_0_energy">   -190.44596392 </i>
   </energy>
  </scstep>
  <scstep>
   <time name="dav">   30.03   30.11</time>
   <time name="total">   30.56   30.64</time>
   <energy>
    <i name="e_fr_energy">   -190.13562714 </i>
    <i name="e_wo_entrp">   -189.88365228 </i>
    <i name="e_0_energy">   -190.00963971 </i>
   </energy>
  </scstep>
  <scstep>
   <time name="dav">   30.99   31.06</time>
   <time name="total">   31.52   31.61</time>
   <energy>
    <i name="e_fr_energy">   -189.92323044 </i>
    <i name="e_wo_entrp">   -189.68730961 </i>
    <i name="e_0_energy">   -189.80527003 </i>
   </energy>
  </scstep>
  <scstep>
   <time name="dav">   29.85   29.92</time>
   <time name="total">   30.38   30.46</time>
   <energy>
    <i name="e_fr_energy">   -189.90034272 </i>
    <i name="e_wo_entrp">   -189.66078427 </i>
    <i name="e_0_energy">   -189.78056350 </i>
   </energy>
  </scstep>
  <scstep>
   <time name="dav">   30.13   30.20</time>
   <time name="total">   30.67   30.75</time>
   <energy>
    <i name="e_fr_energy">   -189.82594352 </i>
    <i name="e_wo_entrp">   -189.58684719 </i>
    <i name="e_0_energy">   -189.70639535 </i>
   </energy>
  </scstep>
  <scstep>
   <time name="dav">   28.90   28.97</time>
   <time name="total">   29.44   29.52</time>
   <energy>
    <i name="e_fr_energy">   -189.81728811 </i>
    <i name="e_wo_entrp">   -189.57866806 </i>
    <i name="e_0_energy">   -189.69797809 </i>
   </energy>
  </scstep>
  <scstep>
   <time name="dav">   30.50   30.57</time>
   <time name="total">   31.03   31.11</time>
   <energy>
    <i name="e_fr_energy">   -189.81831846 </i>
    <i name="e_wo_entrp">   -189.57956153 </i>
    <i name="e_0_energy">   -189.69894000 </i>
   </energy>
  </scstep>
  <scstep>
   <time name="dav">   27.72   27.79</time>
   <time name="total">   28.26   28.33</time>
   <energy>
    <i name="e_fr_energy">   -189.81717575 </i>
    <i name="e_wo_entrp">   -189.57846292 </i>
    <i name="e_0_energy">   -189.69781934 </i>
   </energy>
  </scstep>
  <scstep>
   <time name="dav">   25.43   25.49</time>
   <time name="total">   25.96   26.04</time>
   <energy>
    <i name="e_fr_energy">   -189.81744179 </i>
    <i name="e_wo_entrp">   -189.57873589 </i>
    <i name="e_0_energy">   -189.69808884 </i>
   </energy>
  </scstep>
  <scstep>
   <time name="dav">   22.51   22.57</time>
   <time name="total">   23.05   23.11</time>
   <energy>
    <i name="e_fr_energy">   -189.81722617 </i>
    <i name="e_wo_entrp">   -189.57841644 </i>
    <i name="e_0_energy">   -189.69782131 </i>
   </energy>
  </scstep>
  <scstep>
   <time name="dav">   19.09   19.14</time>
   <time name="total">   19.13   19.18</time>
   <energy>
    <i name="alphaZ">     82.33689358 </i>
    <i name="ewald">  41299.18467448 </i>
    <i name="hartreedc"> -47271.43124652 </i>
    <i name="XCdc">   -235.23792188 </i>
    <i name="pawpsdc">   4038.95688155 </i>
    <i name="pawaedc">  -3454.67538215 </i>
    <i name="eentropy">     -0.23881521 </i>
    <i name="bandstr">  -1410.15485729 </i>
    <i name="atom">   6761.44252427 </i>
    <i name="e_fr_energy">   -189.81724915 </i>
    <i name="e_wo_entrp">   -189.57843394 </i>
    <i name="e_0_energy">   -189.69784155 </i>
   </energy>
  </scstep>
  <structure>
   <crystal>
    <varray name="basis" >
     <v>       8.66982467       5.00144502       0.00000000 </v>
     <v>      -8.66717532       4.99688813       0.00000000 </v>
     <v>       0.00000000       0.00000000      30.00000000 </v>
    </varray>
    <i name="volume">   2600.11634669 </i>
    <varray name="rec_basis" >
     <v>       0.05765382       0.10000139       0.00000000 </v>
     <v>      -0.05770640       0.10003196       0.00000000 </v>
     <v>       0.00000000       0.00000000       0.03333333 </v>
    </varray>
   </crystal>
   <varray name="positions" >
    <v>       0.33211847       0.00186322       0.00006559 </v>
    <v>       0.66612502       0.33334722       0.00010042 </v>
    <v>       0.66662891       0.66621071      -0.00006021 </v>
    <v>       0.32980391       0.33163185       0.00003337 </v>
    <v>       1.00221018       0.33141269       0.00000969 </v>
    <v>       0.00166786       0.00393558      -0.00017164 </v>
    <v>      -0.00024238       0.66660798       0.00009235 </v>
    <v>       0.33125886       0.66259064       0.00007298 </v>
    <v>       0.67058450       0.00220457      -0.00011003 </v>
    <v>       0.11092930       0.22202316       0.95043365 </v>
    <v>       0.22472233       0.10853937       0.04814105 </v>
    <v>       0.11140793       0.55636372       0.95074417 </v>
    <v>       0.22270751       0.44566100       0.04948133 </v>
    <v>       0.11490884       0.88987923       0.95197852 </v>
    <v>       0.22397405       0.78137272       0.04806900 </v>
    <v>       0.44654321       0.21992818       0.95310803 </v>
    <v>       0.55367444       0.11258498       0.04688748 </v>
    <v>       0.44854972       0.55839193       0.95191968 </v>
    <v>       0.55993721       0.44634651       0.04674944 </v>
    <v>       0.44246664       0.89070382       0.95233477 </v>
    <v>       0.55723450       0.77577622       0.04789423 </v>
    <v>       0.77467727       0.22337742       0.95202385 </v>
    <v>       0.88756537       0.11052592       0.04942495 </v>
    <v>       0.77426809       0.55407118       0.95308730 </v>
    <v>       0.88488329       0.44330556       0.04790911 </v>
    <v>       0.77479134       0.88469697       0.95189114 </v>
    <v>       0.88481810       0.77486208       0.04788966 </v>
   </varray>
  </structure>
  <varray name="forces" >
   <v>      -0.31399244      -0.03491390      -0.07764318 </v>
   <v>      -0.03540789      -0.01710274       0.08518111 </v>
   <v>       0.00357608       0.01115668       0.08298540 </v>
   <v>      -0.53449131      -0.47827318      -0.00198326 </v>
   <v>       0.65651666       0.10583446      -0.00731801 </v>
   <v>      -0.45992727       0.42022940      -0.00588959 </v>
   <v>       0.11450514       0.08249191       0.10697305 </v>
   <v>       0.15872596      -0.58371472      -0.08567857 </v>
   <v>       0.30120053       0.48140982      -0.10831566 </v>
   <v>       0.00976813       0.00983574      -0.97721166 </v>
   <v>       0.10911216       0.00191588       0.67829506 </v>
   <v>      -0.02649008      -0.00133371      -0.55090776 </v>
   <v>       0.00101019       0.01391329       0.87330140 </v>
   <v>       0.05193541       0.06889840      -0.44370950 </v>
   <v>      -0.00675236       0.08452808       0.39240338 </v>
   <v>       0.07670714       0.01106283      -0.34042021 </v>
   <v>      -0.03760157      -0.00205485       0.30056607 </v>
   <v>       0.03683483       0.08915868      -0.47475518 </v>
   <v>       0.03064398       0.06150042       0.27160353 </v>
   <v>      -0.02837218      -0.00115483      -0.09497003 </v>
   <v>       0.03625562       0.00003137       0.33452796 </v>
   <v>      -0.08307501      -0.00214281      -0.47657690 </v>
   <v>      -0.00321530      -0.01762470       0.81172174 </v>
   <v>      -0.02280460      -0.07012226      -0.42511605 </v>
   <v>      -0.03978311      -0.07371281       0.33820072 </v>
   <v>       0.03101336      -0.08788697      -0.51277640 </v>
   <v>      -0.02589206      -0.07192947       0.30751256 </v>
  </varray>
  <varray name="stress" >
   <v>     -10.13066447      -0.01983014       0.01938921 </v>
   <v>      -0.01983010      -9.82777621      -0.02657136 </v>
   <v>       0.01938916      -0.02657142       6.47607652 </v>
  </varray>
  <energy>
   <i name="e_fr_energy">   -189.81724915 </i>
   <i name="e_wo_entrp">   -189.69784155 </i>
   <i name="e_0_energy">     -0.23881521 </i>
  </energy>
  <time name="totalsc">  373.70  374.69</time>
 </calculation>
 <calculation>
  <scstep>
   <time name="dav">   21.53   21.58</time>
   <time name="total">   22.06   22.11</time>
   <energy>
    <i name="alphaZ">     85.80579703 </i>
    <i name="ewald">  42827.69514569 </i>
    <i name="hartreedc"> -48844.23847327 </i>
    <i name="XCdc">   -232.95462743 </i>
    <i name="pawpsdc">   4039.09649588 </i>
    <i name="pawaedc">  -3454.81311571 </i>
    <i name="eentropy">     -0.21083142 </i>
    <i name="bandstr">  -1373.23837866 </i>
    <i name="atom">   6761.44252427 </i>
    <i name="e_fr_energy">   -191.41546362 </i>
    <i name="e_wo_entrp">   -191.20463219 </i>
    <i name="e_0_energy">   -191.31004790 </i>
   </energy>
  </scstep>
  <scstep>
   <time name="dav">   31.85   31.92</time>
   <time name="total">   32.36   32.44</time>
   <energy>
    <i name="e_fr_energy">   -191.22581668 </i>
    <i name="e_wo_entrp">   -191.01523517 </i>
    <i name="e_0_energy">   -191.12052593 </i>
   </energy>
  </scstep>
  <scstep>
   <time name="dav">   29.89   29.96</time>
   <time name="total">   30.40   30.48</time>
   <energy>
    <i name="e_fr_energy">   -191.37577047 </i>
    <i name="e_wo_entrp">   -191.14345444 </i>
    <i name="e_0_energy">   -191.25961246 </i>
   </energy>
  </scstep>
  <scstep>
   <time name="dav">   30.01   30.08</time>
   <time name="total">   30.53   30.61</time>
   <energy>
    <i name="e_fr_energy">   -190.99846203 </i>
    <i name="e_wo_entrp">   -190.78511038 </i>
    <i name="e_0_energy">   -190.89178621 </i>
   </energy>
  </scstep>
  <scstep>
   <time name="dav">   30.21   30.28</time>
   <time name="total">   30.72   30.81</time>
   <energy>
    <i name="e_fr_energy">   -190.92077473 </i>
    <i name="e_wo_entrp">   -190.70824064 </i>
    <i name="e_0_energy">   -190.81450768 </i>
   </energy>
  </scstep>
  <scstep>
   <time name="dav">   30.21   30.28</time>
   <time name="total">   30.73   30.81</time>
   <energy>
    <i name="e_fr_energy">   -190.86923356 </i>
    <i name="e_wo_entrp">   -190.65161937 </i>
    <i name="e_0_energy">   -190.76042646 </i>
   </energy>
  </scstep>
  <scstep>
   <time name="dav">   30.73   30.81</time>
   <time name="total">   31.25   31.33</time>
   <energy>
    <i name="e_fr_energy">   -190.84629827 </i>
    <i name="e_wo_entrp">   -190.63045271 </i>
    <i name="e_0_energy">   -190.73837549 </i>
   </energy>
  </scstep>
  <scstep>
   <time name="dav">   28.40   28.47</time>
   <time name="total">   28.92   29.00</time>
   <energy>
    <i name="e_fr_energy">   -190.84463856 </i>
    <i name="e_wo_entrp">   -190.62876983 </i>
    <i name="e_0_energy">   -190.73670420 </i>
   </energy>
  </scstep>
  <scstep>
   <time name="dav">   26.50   26.57</time>
   <time name="total">   27.02   27.10</time>
   <energy>
    <i name="e_fr_energy">   -190.84373419 </i>
    <i name="e_wo_entrp">   -190.62787294 </i>
    <i name="e_0_energy">   -190.73580356 </i>
   </energy>
  </scstep>
  <scstep>
   <time name="dav">   27.80   27.87</time>
   <time name="total">   28.32   28.39</time>
   <energy>
    <i name="e_fr_energy">   -190.84396841 </i>
    <i name="e_wo_entrp">   -190.62811767 </i>
    <i name="e_0_energy">   -190.73604304 </i>
   </energy>
  </scstep>
  <scstep>
   <time name="dav">   25.96   26.02</time>
   <time name="total">   26.48   26.55</time>
   <energy>
    <i name="e_fr_energy">   -190.84377916 </i>
    <i name="e_wo_entrp">   -190.62786568 </i>
    <i name="e_0_energy">   -190.73582242 </i>
   </energy>
  </scstep>
  <scstep>
   <time name="dav">   19.45   19.50</time>
   <time name="total">   19.49   19.55</time>
   <energy>
    <i name="alphaZ">     85.80579703 </i>
    <i name="ewald">  42827.69514569 </i>
    <i name="hartreedc"> -48815.75763283 </i>
    <i name="XCdc">   -234.27336243 </i>
    <i name="pawpsdc">   4064.79574777 </i>
    <i name="pawaedc">  -3480.70775902 </i>
    <i name="eentropy">     -0.21592415 </i>
    <i name="bandstr">  -1399.62832266 </i>
    <i name="atom">   6761.44252427 </i>
    <i name="e_fr_energy">   -190.84378633 </i>
    <i name="e_wo_entrp">   -190.62786217 </i>
    <i name="e_0_energy">   -190.73582425 </i>
   </energy>
  </scstep>
  <structure>
   <crystal>
    <varray name="basis" >
     <v>       8.48846371       4.90086895       0.00000000 </v>
     <v>      -8.48666513       4.89778242       0.00000000 </v>
     <v>       0.00000000       0.00000000      30.00000000 </v>
    </varray>
    <i name="volume">   2495.00045854 </i>
    <varray name="rec_basis" >
     <v>       0.05889116       0.10204405       0.00000000 </v>
     <v>      -0.05892827       0.10206568       0.00000000 </v>
     <v>       0.00000000       0.00000000       0.03333333 </v>
    </varray>
   </crystal>
   <varray name="positions" >
    <v>       0.33068866       0.00264171      -0.00010892 </v>
    <v>       0.66594620       0.33337744       0.00027125 </v>
    <v>       0.66672106       0.66635132       0.00012355 </v>
    <v>       0.32473012       0.33065291       0.00002635 </v>
    <v>       1.00535966       0.32973077      -0.00000205 </v>
    <v>       0.00255179       0.00824926      -0.00016267 </v>
    <v>       0.00082845       0.66673349       0.00030882 </v>
    <v>       0.32806324       0.65832999      -0.00011576 </v>
    <v>       0.67470117       0.00406955      -0.00032476 </v>
    <v>       0.11105603       0.22206311       0.94792475 </v>
    <v>       0.22520782       0.10807151       0.04996372 </v>
    <v>       0.11113907       0.55618628       0.94913054 </v>
    <v>       0.22266151       0.44545800       0.05178416 </v>
    <v>       0.11581205       0.89046106       0.95064847 </v>
    <v>       0.22472923       0.78235729       0.04931208 </v>
    <v>       0.44697546       0.21965957       0.95203410 </v>
    <v>       0.55331110       0.11290401       0.04789396 </v>
    <v>       0.44954303       0.55872706       0.95051348 </v>
    <v>       0.56055209       0.44667713       0.04767524 </v>
    <v>       0.44216656       0.89098631       0.95174856 </v>
    <v>       0.55756180       0.77546860       0.04899615 </v>
    <v>       0.77445033       0.22407886       0.95061456 </v>
    <v>       0.88771144       0.11056267       0.05158674 </v>
    <v>       0.77331507       0.55348702       0.95181529 </v>
    <v>       0.88399024       0.44260730       0.04901411 </v>
    <v>       0.77443688       0.88371068       0.95039838 </v>
    <v>       0.88400439       0.77461155       0.04892979 </v>
   </varray>
  </structure>
  <varray name="forces" >
   <v>      -0.33853010      -0.05849263      -0.07946750 </v>
   <v>      -0.05638965      -0.02926049       0.04613983 </v>
   <v>      -0.00811916       0.03025245       0.07707985 </v>
   <v>      -0.53361162      -0.41915403      -0.00793064 </v>
   <v>       0.63246245       0.13200249      -0.00589948 </v>
   <v>      -0.46199708       0.36526826       0.01966895 </v>
   <v>       0.13474593       0.09524090       0.07122186 </v>
   <v>       0.15810227      -0.66501658      -0.05053555 </v>
   <v>       0.31815244       0.54187041      -0.06556840 </v>
   <v>       0.01812537       0.00194510      -0.78399329 </v>
   <v>      -0.04288791       0.01061583       0.48813393 </v>
   <v>       0.02578305      -0.10341065      -0.40174641 </v>
   <v>       0.02544674      -0.04870648       0.69653454 </v>
   <v>      -0.05525579       0.01538744      -0.27912344 </v>
   <v>       0.03380388       0.06542325       0.28329120 </v>
   <v>      -0.06686077       0.00443252      -0.24940675 </v>
   <v>       0.01345633       0.00514452       0.21113137 </v>
   <v>       0.05846338      -0.04907053      -0.32495486 </v>
   <v>      -0.04683269      -0.07877456       0.19342982 </v>
   <v>       0.05935930      -0.00300445       0.07714907 </v>
   <v>      -0.02560463      -0.00701975       0.12666570 </v>
   <v>       0.01927751       0.08591808      -0.31065845 </v>
   <v>       0.01255152       0.06296393       0.60252111 </v>
   <v>       0.00752535      -0.02438902      -0.29016769 </v>
   <v>       0.08178040      -0.02927289       0.19100804 </v>
   <v>       0.08164221       0.03373362      -0.39640517 </v>
   <v>      -0.04458874       0.06537324       0.16188238 </v>
  </varray>
  <varray name="stress" >
   <v>      -5.56464673       0.07830916      -0.13542759 </v>
   <v>       0.07830936      -5.68071648       0.08374440 </v>
   <v>      -0.13542748       0.08374446       4.48255628 </v>
  </varray>
  <energy>
   <i name="e_fr_energy">   -190.84378633 </i>
   <i name="e_wo_entrp">   -190.73582425 </i>
   <i name="e_0_energy">     -0.21592415 </i>
  </energy>
  <time name="totalsc">  380.19  381.21</time>
 </calculation>
 <calculation>
  <scstep>
   <time name="dav">   21.49   21.54</time>
   <time name="total">   22.00   22.05</time>
   <energy>
    <i name="alphaZ">     89.93679113 </i>
    <i name="ewald">  44563.99241024 </i>
    <i name="hartreedc"> -50604.53844469 </i>
    <i name="XCdc">   -231.95840237 </i>
    <i name="pawpsdc">   4064.75327673 </i>
    <i name="pawaedc">  -3480.66127339 </i>
    <i name="eentropy">     -0.21451745 </i>
    <i name="bandstr">  -1354.89792270 </i>
    <i name="atom">   6761.44252427 </i>
    <i name="e_fr_energy">   -192.14555823 </i>
    <i name="e_wo_entrp">   -191.93104078 </i>
    <i name="e_0_energy">   -192.03829950 </i>
   </energy>
  </scstep>
  <scstep>
   <time name="dav">   27.07   27.14</time>
   <time name="total">   27.57   27.65</time>
   <energy>
    <i name="e_fr_energy">   -191.92397713 </i>
    <i name="e_wo_entrp">   -191.70774034 </i>
    <i name="e_0_energy">   -191.81585874 </i>
   </energy>
  </scstep>
  <scstep>
   <time name="dav">   28.97   29.04</time>
   <time name="total">   29.48   29.55</time>
   <energy>
    <i name="e_fr_energy">   -191.79844431 </i>
    <i name="e_wo_entrp">   -191.57175003 </i>
    <i name="e_0_energy">   -191.68509717 </i>
   </energy>
  </scstep>
  <scstep>
   <time name="dav">   30.07   30.15</time>
   <time name="total">   30.58   30.66</time>
   <energy>
    <i name="e_fr_energy">   -191.82116483 </i>
    <i name="e_wo_entrp">   -191.61585991 </i>
    <i name="e_0_energy">   -191.71851237 </i>
   </energy>
  </scstep>
  <scstep>
   <time name="dav">   30.14   30.22</time>
   <time name="total">   30.65   30.73</time>
   <energy>
    <i name="e_fr_energy">   -191.55209718 </i>
    <i name="e_wo_entrp">   -191.33037136 </i>
    <i name="e_0_energy">   -191.44123427 </i>
   </energy>
  </scstep>
  <scstep>
   <time name="dav">   28.13   28.20</time>
   <time name="total">   28.63   28.71</time>
   <energy>
    <i name="e_fr_energy">   -191.54246380 </i>
    <i name="e_wo_entrp">   -191.32103544 </i>
    <i name="e_0_energy">   -191.43174962 </i>
   </energy>
  </scstep>
  <scstep>
   <time name="dav">   29.37   29.44</time>
   <time name="total">   29.88   29.96</time>
   <energy>
    <i name="e_fr_energy">   -191.54711859 </i>
    <i name="e_wo_entrp">   -191.32658292 </i>
    <i name="e_0_energy">   -191.43685076 </i>
   </energy>
  </scstep>
  <scstep>
   <time name="dav">   28.63   28.69</time>
   <time name="total">   29.14   29.63</time>
   <energy>
    <i name="e_fr_energy">   -191.53769589 </i>
    <i name="e_wo_entrp">   -191.31652145 </i>
    <i name="e_0_energy">   -191.42710867 </i>
   </energy>
  </scstep>
  <scstep>
   <time name="dav">   28.42   28.49</time>
   <time name="total">   28.93   29.01</time>
   <energy>
    <i name="e_fr_energy">   -191.53848741 </i>
    <i name="e_wo_entrp">   -191.31764031 </i>
    <i name="e_0_energy">   -191.42806386 </i>
   </energy>
  </scstep>
  <scstep>
   <time name="dav">   29.01   29.09</time>
   <time name="total">   29.52   29.60</time>
   <energy>
    <i name="e_fr_energy">   -191.53800554 </i>
    <i name="e_wo_entrp">   -191.31682954 </i>
    <i name="e_0_energy">   -191.42741754 </i>
   </energy>
  </scstep>
  <scstep>
   <time name="dav">   25.45   25.51</time>
   <time name="total">   25.96   26.03</time>
   <energy>
    <i name="e_fr_energy">   -191.53773747 </i>
    <i name="e_wo_entrp">   -191.31665789 </i>
    <i name="e_0_energy">   -191.42719768 </i>
   </energy>
  </scstep>
  <scstep>
   <time name="dav">   18.24   18.28</time>
   <time name="total">   18.28   18.33</time>
   <energy>
    <i name="alphaZ">     89.93679113 </i>
    <i name="ewald">  44563.99241024 </i>
    <i name="hartreedc"> -50572.94418526 </i>
    <i name="XCdc">   -233.38244828 </i>
    <i name="pawpsdc">   4087.40779218 </i>
    <i name="pawaedc">  -3503.44461662 </i>
    <i name="eentropy">     -0.22115644 </i>
    <i name="bandstr">  -1384.32482037 </i>
    <i name="atom">   6761.44252427 </i>
    <i name="e_fr_energy">   -191.53770915 </i>
    <i name="e_wo_entrp">   -191.31655271 </i>
    <i name="e_0_energy">   -191.42713093 </i>
   </energy>
  </scstep>
  <structure>
   <crystal>
    <varray name="basis" >
     <v>       8.29613922       4.78904541       0.00000000 </v>
     <v>      -8.29014906       4.77869915       0.00000000 </v>
     <v>       0.00000000       0.00000000      30.00000000 </v>
    </varray>
    <i name="volume">   2380.39961445 </i>
    <varray name="rec_basis" >
     <v>       0.06022559       0.10448013       0.00000000 </v>
     <v>      -0.06035598       0.10455563       0.00000000 </v>
     <v>       0.00000000       0.00000000       0.03333333 </v>
    </varray>
   </crystal>
   <varray name="positions" >
    <v>       0.32765083       0.00413189      -0.00043045 </v>
    <v>       0.66531214       0.33342688       0.00046340 </v>
    <v>       0.66701533       0.66681680       0.00043775 </v>
    <v>       0.31584538       0.32933548      -0.00000452 </v>
    <v>       1.01136510       0.32693089      -0.00002186 </v>
    <v>       0.00371586       0.01585636      -0.00007636 </v>
    <v>       0.00299689       0.66696359       0.00059693 </v>
    <v>       0.32125834       0.64944647      -0.00034138 </v>
    <v>       0.68321609       0.00817397      -0.00058959 </v>
    <v>       0.11124067       0.22199684       0.94426409 </v>
    <v>       0.22525089       0.10824664       0.05240477 </v>
    <v>       0.11002134       0.55470064       0.94698466 </v>
    <v>       0.22218461       0.44451315       0.05510809 </v>
    <v>       0.11610763       0.89137821       0.94903645 </v>
    <v>       0.22600360       0.78343916       0.05093326 </v>
    <v>       0.44680448       0.21998442       0.95062032 </v>
    <v>       0.55317236       0.11312184       0.04917531 </v>
    <v>       0.44988819       0.55788208       0.94871865 </v>
    <v>       0.55971691       0.44627433       0.04885981 </v>
    <v>       0.44225301       0.89083063       0.95153480 </v>
    <v>       0.55758443       0.77532273       0.05003795 </v>
    <v>       0.77546544       0.22537376       0.94886767 </v>
    <v>       0.88869649       0.11125975       0.05454857 </v>
    <v>       0.77250675       0.55285343       0.95019683 </v>
    <v>       0.88370885       0.44132458       0.05026926 </v>
    <v>       0.77525118       0.88305314       0.94833548 </v>
    <v>       0.88398170       0.77557680       0.05007001 </v>
   </varray>
  </structure>
  <varray name="forces" >
   <v>      -0.46322371      -0.04910180       0.00176252 </v>
   <v>      -0.10822947      -0.09221030       0.04424726 </v>
   <v>       0.00269860       0.06446244       0.02128793 </v>
   <v>      -0.05410116      -0.02925394      -0.03337429 </v>
   <v>       0.00759284       0.05116146      -0.03555412 </v>
   <v>      -0.09662713       0.02352362      -0.06796871 </v>
   <v>       0.18964702       0.06437657       0.05232097 </v>
   <v>       0.09542732      -0.53769845       0.06316332 </v>
   <v>       0.26418804       0.52280299      -0.02777427 </v>
   <v>       0.02175546      -0.02608066      -0.27890757 </v>
   <v>      -0.16207725       0.01213189       0.12173032 </v>
   <v>       0.06652769      -0.21292733      -0.16974148 </v>
   <v>       0.01896814      -0.08155551       0.30088577 </v>
   <v>      -0.16438036      -0.05740151       0.00246925 </v>
   <v>       0.11208219       0.03738549       0.00385074 </v>
   <v>      -0.21403306      -0.01005845      -0.02476334 </v>
   <v>       0.09399167      -0.01764198      -0.08287298 </v>
   <v>       0.00584253      -0.18245860      -0.02704488 </v>
   <v>      -0.12291126      -0.19104553      -0.03222356 </v>
   <v>       0.21562981      -0.01678225       0.42462318 </v>
   <v>      -0.13078475      -0.02544282      -0.20787664 </v>
   <v>       0.14067550       0.18807537      -0.02776718 </v>
   <v>      -0.00372874       0.14227307       0.25690822 </v>
   <v>       0.01904823       0.03622955       0.00799560 </v>
   <v>       0.19166536       0.04337373      -0.09110923 </v>
   <v>       0.08397326       0.14027190      -0.10602648 </v>
   <v>      -0.00961676       0.20359107      -0.08824036 </v>
  </varray>
  <varray name="stress" >
   <v>       0.46024135       0.23231340      -0.19506253 </v>
   <v>       0.23231368       0.27104520       0.28945566 </v>
   <v>      -0.19506237       0.28945569      -0.68430995 </v>
  </varray>
  <energy>
   <i name="e_fr_energy">   -191.53770915 </i>
   <i name="e_wo_entrp">   -191.42713093 </i>
   <i name="e_0_energy">     -0.22115644 </i>
  </energy>
  <time name="totalsc">  372.44  373.85</time>
 </calculation>
 <calculation>
  <scstep>
   <time name="dav">   21.50   21.55</time>
   <time name="total">   22.00   22.06</time>
   <energy>
    <i name="alphaZ">     89.68764709 </i>
    <i name="ewald">  44440.27969076 </i>
    <i name="hartreedc"> -50446.95520829 </i>
    <i name="XCdc">   -233.60268343 </i>
    <i name="pawpsdc">   4087.25770357 </i>
    <i name="pawaedc">  -3503.28932545 </i>
    <i name="eentropy">     -0.22197237 </i>
    <i name="bandstr">  -1386.20965366 </i>
    <i name="atom">   6761.44252427 </i>
    <i name="e_fr_energy">   -191.61127751 </i>
    <i name="e_wo_entrp">   -191.38930514 </i>
    <i name="e_0_energy">   -191.50029133 </i>
   </energy>
  </scstep>
  <scstep>
   <time name="dav">   32.51   32.58</time>
   <time name="total">   33.01   33.10</time>
   <energy>
    <i name="e_fr_energy">   -191.66371276 </i>
    <i name="e_wo_entrp">   -191.43480856 </i>
    <i name="e_0_energy">   -191.54926066 </i>
   </energy>
  </scstep>
  <scstep>
   <time name="dav">   30.49   30.56</time>
   <time name="total">   30.99   31.07</time>
   <energy>
    <i name="e_fr_energy">   -191.62256560 </i>
    <i name="e_wo_entrp">   -191.40000631 </i>
    <i name="e_0_energy">   -191.51128595 </i>
   </energy>
  </scstep>
  <scstep>
   <time name="dav">   25.78   25.84</time>
   <time name="total">   26.28   26.36</time>
   <energy>
    <i name="e_fr_energy">   -191.62548857 </i>
    <i name="e_wo_entrp">   -191.40357822 </i>
    <i name="e_0_energy">   -191.51453339 </i>
   </energy>
  </scstep>
  <scstep>
   <time name="dav">   27.68   27.75</time>
   <time name="total">   28.19   28.26</time>
   <energy>
    <i name="e_fr_energy">   -191.61956047 </i>
    <i name="e_wo_entrp">   -191.39570543 </i>
    <i name="e_0_energy">   -191.50763295 </i>
   </energy>
  </scstep>
  <scstep>
   <time name="dav">   27.60   27.67</time>
   <time name="total">   28.11   28.18</time>
   <energy>
    <i name="e_fr_energy">   -191.62029269 </i>
    <i name="e_wo_entrp">   -191.39749426 </i>
    <i name="e_0_energy">   -191.50889347 </i>
   </energy>
  </scstep>
  <scstep>
   <time name="dav">   27.76   27.83</time>
   <time name="total">   28.27   28.35</time>
   <energy>
    <i name="e_fr_energy">   -191.61934979 </i>
    <i name="e_wo_entrp">   -191.39634878 </i>
    <i name="e_0_energy">   -191.50784928 </i>
   </energy>
  </scstep>
  <scstep>
   <time name="dav">   24.97   25.03</time>
   <time name="total">   25.48   25.54</time>
   <energy>
    <i name="e_fr_energy">   -191.61884439 </i>
    <i name="e_wo_entrp">   -191.39585193 </i>
    <i name="e_0_energy">   -191.50734816 </i>
   </energy>
  </scstep>
  <scstep>
   <time name="dav">   17.92   17.97</time>
   <time name="total">   17.96   18.01</time>
   <energy>
    <i name="alphaZ">     89.68764709 </i>
    <i name="ewald">  44440.27969076 </i>
    <i name="hartreedc"> -50449.98057195 </i>
    <i name="XCdc">   -233.49918351 </i>
    <i name="pawpsdc">   4083.93976169 </i>
    <i name="pawaedc">  -3499.92723916 </i>
    <i name="eentropy">     -0.22303327 </i>
    <i name="bandstr">  -1383.33845040 </i>
    <i name="atom">   6761.44252427 </i>
    <i name="e_fr_energy">   -191.61885448 </i>
    <i name="e_wo_entrp">   -191.39582120 </i>
    <i name="e_0_energy">   -191.50733784 </i>
   </energy>
  </scstep>
  <structure>
   <crystal>
    <varray name="basis" >
     <v>       8.31222902       4.79930478       0.00000000 </v>
     <v>      -8.30082166       4.77957216       0.00000000 </v>
     <v>       0.00000000       0.00000000      30.00000000 </v>
    </varray>
    <i name="volume">   2387.01214581 </i>
    <varray name="rec_basis" >
     <v>       0.06006973       0.10432484       0.00000000 </v>
     <v>      -0.06031773       0.10446820       0.00000000 </v>
     <v>       0.00000000       0.00000000       0.03333333 </v>
    </varray>
   </crystal>
   <varray name="positions" >
    <v>       0.32626505       0.00511532      -0.00041590 </v>
    <v>       0.66460099       0.33328407       0.00052295 </v>
    <v>       0.66731732       0.66709660       0.00045820 </v>
    <v>       0.31588513       0.32939214      -0.00005378 </v>
    <v>       1.01140938       0.32725376      -0.00007489 </v>
    <v>       0.00352199       0.01595585      -0.00018231 </v>
    <v>       0.00373780       0.66674122       0.00066524 </v>
    <v>       0.31921909       0.64695674      -0.00023718 </v>
    <v>       0.68610643       0.00978340      -0.00062173 </v>
    <v>       0.11116903       0.22181540       0.94399044 </v>
    <v>       0.22485937       0.10874697       0.05248684 </v>
    <v>       0.10923727       0.55356619       0.94682053 </v>
    <v>       0.22186950       0.44411404       0.05542695 </v>
    <v>       0.11536465       0.89151369       0.94911159 </v>
    <v>       0.22643356       0.78325730       0.05086751 </v>
    <v>       0.44617339       0.22051481       0.95064511 </v>
    <v>       0.55335763       0.11276727       0.04899241 </v>
    <v>       0.44901509       0.55702912       0.94875594 </v>
    <v>       0.55849718       0.44571485       0.04875755 </v>
    <v>       0.44276579       0.89016016       0.95219645 </v>
    <v>       0.55709942       0.77557100       0.04967274 </v>
    <v>       0.77670586       0.22582283       0.94890233 </v>
    <v>       0.88932016       0.11191756       0.05481399 </v>
    <v>       0.77277366       0.55300311       0.95027961 </v>
    <v>       0.88445943       0.44106174       0.05007355 </v>
    <v>       0.77611824       0.88352406       0.94826295 </v>
    <v>       0.88493203       0.77653524       0.04988281 </v>
   </varray>
  </structure>
  <varray name="forces" >
   <v>      -0.54874828      -0.02599612      -0.00482749 </v>
   <v>      -0.12145526      -0.11904492       0.05967288 </v>
   <v>      -0.01068414       0.05843676       0.03398124 </v>
   <v>      -0.10620228      -0.10990322      -0.02932600 </v>
   <v>       0.11632458       0.08102471      -0.02315341 </v>
   <v>      -0.16933676       0.08451947      -0.01832705 </v>
   <v>       0.24855961       0.05398935       0.04876992 </v>
   <v>       0.10830079      -0.57821896      -0.00012269 </v>
   <v>       0.29331135       0.56031435      -0.02708003 </v>
   <v>       0.00755672      -0.00645759      -0.16331712 </v>
   <v>      -0.08541879      -0.01004220       0.12501404 </v>
   <v>       0.02962847      -0.12057159      -0.15887276 </v>
   <v>       0.03896009      -0.08410882       0.23393428 </v>
   <v>      -0.08902494      -0.04183925      -0.01182213 </v>
   <v>       0.07870102       0.03513148      -0.01972091 </v>
   <v>      -0.11980207      -0.01318208      -0.04248346 </v>
   <v>       0.07226467      -0.02282180      -0.12146779 </v>
   <v>      -0.01684837      -0.10389808      -0.01434751 </v>
   <v>      -0.06822460      -0.08943471      -0.03610492 </v>
   <v>       0.15534898       0.00175436       0.48418923 </v>
   <v>      -0.09734080      -0.01297586      -0.21650553 </v>
   <v>       0.06442163       0.12914428      -0.05366822 </v>
   <v>       0.02790910       0.10836981       0.19433593 </v>
   <v>       0.01338321       0.02646955       0.03967278 </v>
   <v>       0.08924822       0.00639086      -0.07147316 </v>
   <v>       0.06204834       0.08034146      -0.10816516 </v>
   <v>       0.02711951       0.11260876      -0.09878496 </v>
  </varray>
  <varray name="stress" >
   <v>      -0.21957321       0.03836929      -0.01349847 </v>
   <v>       0.03836923      -0.04059533       0.09403595 </v>
   <v>      -0.01349826       0.09403603      -1.21627305 </v>
  </varray>
  <energy>
   <i name="e_fr_energy">   -191.61885448 </i>
   <i name="e_wo_entrp">   -191.50733784 </i>
   <i name="e_0_energy">     -0.22303327 </i>
  </energy>
  <time name="totalsc">  281.83  282.57</time>
 </calculation>
 <calculation>
  <scstep>
   <time name="dav">   21.49   21.54</time>
   <time name="total">   22.00   22.05</time>
   <energy>
    <i name="alphaZ">     89.76441749 </i>
    <i name="ewald">  44472.75701368 </i>
    <i name="hartreedc"> -50483.26698867 </i>
    <i name="XCdc">   -233.45909889 </i>
    <i name="pawpsdc">   4083.60546144 </i>
    <i name="pawaedc">  -3499.58956348 </i>
    <i name="eentropy">     -0.22148646 </i>
    <i name="bandstr">  -1382.72474208 </i>
    <i name="atom">   6761.44252427 </i>
    <i name="e_fr_energy">   -191.69246271 </i>
    <i name="e_wo_entrp">   -191.47097625 </i>
    <i name="e_0_energy">   -191.58171948 </i>
   </energy>
  </scstep>
  <scstep>
   <time name="dav">   31.69   31.77</time>
   <time name="total">   32.20   32.28</time>
   <energy>
    <i name="e_fr_energy">   -191.72738763 </i>
    <i name="e_wo_entrp">   -191.49890440 </i>
    <i name="e_0_energy">   -191.61314602 </i>
   </energy>
  </scstep>
  <scstep>
   <time name="dav">   30.41   30.49</time>
   <time name="total">   30.92   31.00</time>
   <energy>
    <i name="e_fr_energy">   -191.69981314 </i>
    <i name="e_wo_entrp">   -191.47790780 </i>
    <i name="e_0_energy">   -191.58886047 </i>
   </energy>
  </scstep>
  <scstep>
   <time name="dav">   27.42   27.49</time>
   <time name="total">   27.93   28.00</time>
   <energy>
    <i name="e_fr_energy">   -191.70037692 </i>
    <i name="e_wo_entrp">   -191.47942966 </i>
    <i name="e_0_energy">   -191.58990329 </i>
   </energy>
  </scstep>
  <scstep>
   <time name="dav">   27.68   27.74</time>
   <time name="total">   28.18   28.25</time>
   <energy>
    <i name="e_fr_energy">   -191.69711305 </i>
    <i name="e_wo_entrp">   -191.47391755 </i>
    <i name="e_0_energy">   -191.58551530 </i>
   </energy>
  </scstep>
  <scstep>
   <time name="dav">   28.21   28.28</time>
   <time name="total">   28.72   28.80</time>
   <energy>
    <i name="e_fr_energy">   -191.69717573 </i>
    <i name="e_wo_entrp">   -191.47464716 </i>
    <i name="e_0_energy">   -191.58591144 </i>
   </energy>
  </scstep>
  <scstep>
   <time name="dav">   26.54   26.60</time>
   <time name="total">   27.04   27.11</time>
   <energy>
    <i name="e_fr_energy">   -191.69717705 </i>
    <i name="e_wo_entrp">   -191.47446647 </i>
    <i name="e_0_energy">   -191.58582176 </i>
   </energy>
  </scstep>
  <scstep>
[...]
      <set comment="kpoint 31">
       <r>  -17.4890    1.0000 </r>
       <r>  -17.2601    1.0000 </r>
       <r>  -16.9165    1.0000 </r>
       <r>  -16.6164    1.0000 </r>
       <r>  -16.5006    1.0000 </r>
       <r>  -16.3736    1.0000 </r>
       <r>  -16.3096    1.0000 </r>
       <r>  -16.2152    1.0000 </r>
       <r>  -16.0954    1.0000 </r>
       <r>  -16.0440    1.0000 </r>
       <r>  -15.9774    1.0000 </r>
       <r>  -15.8702    1.0000 </r>
       <r>  -15.7960    1.0000 </r>
       <r>  -15.6850    1.0000 </r>
       <r>  -15.6237    1.0000 </r>
       <r>  -15.5089    1.0000 </r>
       <r>  -15.4390    1.0000 </r>
       <r>  -15.2611    1.0000 </r>
       <r>   -9.7299    1.0000 </r>
       <r>   -9.4337    1.0000 </r>
       <r>   -9.2761    1.0000 </r>
       <r>   -8.9482    1.0000 </r>
       <r>   -8.8394    1.0000 </r>
       <r>   -8.7081    1.0000 </r>
       <r>   -8.5684    1.0000 </r>
       <r>   -8.4718    1.0000 </r>
       <r>   -8.3801    1.0000 </r>
       <r>   -8.3152    1.0000 </r>
       <r>   -8.2620    1.0000 </r>
       <r>   -8.2032    1.0000 </r>
       <r>   -8.1548    1.0000 </r>
       <r>   -8.0806    1.0000 </r>
       <r>   -7.9082    1.0000 </r>
       <r>   -7.8650    1.0000 </r>
       <r>   -7.7981    1.0000 </r>
       <r>   -7.7549    1.0000 </r>
       <r>   -7.5411    1.0000 </r>
       <r>   -7.4202    1.0000 </r>
       <r>   -7.3235    1.0000 </r>
       <r>   -7.2610    1.0000 </r>
       <r>   -7.1249    1.0000 </r>
       <r>   -7.0699    1.0000 </r>
       <r>   -6.9942    1.0000 </r>
       <r>   -6.8804    1.0000 </r>
       <r>   -6.8664    1.0000 </r>
       <r>   -6.7824    1.0000 </r>
       <r>   -6.7353    1.0000 </r>
       <r>   -6.5981    1.0000 </r>
       <r>   -6.5316    1.0000 </r>
       <r>   -6.4428    1.0000 </r>
       <r>   -6.4010    1.0000 </r>
       <r>   -6.3105    1.0000 </r>
       <r>   -6.2666    1.0000 </r>
       <r>   -6.2275    1.0000 </r>
       <r>   -6.1770    1.0000 </r>
       <r>   -6.0929    1.0000 </r>
       <r>   -6.0137    1.0000 </r>
       <r>   -5.9499    1.0000 </r>
       <r>   -5.8819    1.0000 </r>
       <r>   -5.8340    1.0000 </r>
       <r>   -5.7566    1.0000 </r>
       <r>   -5.6779    1.0000 </r>
       <r>   -5.6023    1.0000 </r>
       <r>   -5.3548    1.0000 </r>
       <r>   -5.2806    1.0000 </r>
       <r>   -5.1533    1.0000 </r>
       <r>   -5.0896    1.0000 </r>
       <r>   -4.9496    1.0000 </r>
       <r>   -4.9089    1.0000 </r>
       <r>   -4.6475    1.0000 </r>
       <r>   -4.5448    1.0000 </r>
       <r>   -4.4835    1.0000 </r>
       <r>   -4.4071    1.0000 </r>
       <r>   -4.2254    1.0000 </r>
       <r>   -4.1947    1.0000 </r>
       <r>   -4.0330    1.0000 </r>
       <r>   -3.8821    1.0000 </r>
       <r>   -3.6279    0.9963 </r>
       <r>   -3.5265    0.9749 </r>
       <r>   -2.9855    0.0309 </r>
       <r>   -2.9252    0.0109 </r>
       <r>   -2.7737    0.0004 </r>
       <r>   -2.5945    0.0000 </r>
       <r>   -2.5209    0.0000 </r>
       <r>   -2.4618    0.0000 </r>
       <r>   -2.4103    0.0000 </r>
       <r>   -2.2353    0.0000 </r>
       <r>   -2.1569    0.0000 </r>
       <r>   -2.0412    0.0000 </r>
       <r>   -1.9820    0.0000 </r>
       <r>   -1.9171    0.0000 </r>
       <r>   -1.6258    0.0000 </r>
       <r>   -1.4762    0.0000 </r>
       <r>   -1.2960    0.0000 </r>
       <r>   -1.2052    0.0000 </r>
       <r>   -1.1516    0.0000 </r>
       <r>   -1.1162    0.0000 </r>
       <r>   -1.0505    0.0000 </r>
       <r>   -0.9684    0.0000 </r>
       <r>   -0.9153    0.0000 </r>
       <r>   -0.8321    0.0000 </r>
       <r>   -0.7406    0.0000 </r>
       <r>   -0.6744    0.0000 </r>
       <r>   -0.5558    0.0000 </r>
       <r>   -0.4913    0.0000 </r>
       <r>   -0.2529    0.0000 </r>
       <r>   -0.1881    0.0000 </r>
       <r>   -0.1326    0.0000 </r>
       <r>   -0.0029    0.0000 </r>
       <r>    0.2554    0.0000 </r>
       <r>    0.5319    0.0000 </r>
       <r>    0.6493    0.0000 </r>
       <r>    0.8065    0.0000 </r>
       <r>    0.8851    0.0000 </r>
       <r>    0.9936    0.0000 </r>
       <r>    1.1169    0.0000 </r>
       <r>    1.3151    0.0000 </r>
       <r>    2.1171    0.0000 </r>
       <r>    2.2786    0.0000 </r>
       <r>    2.3805    0.0000 </r>
      </set>
      <set comment="kpoint 32">
       <r>  -17.5132    1.0000 </r>
       <r>  -17.1193    1.0000 </r>
       <r>  -17.0875    1.0000 </r>
       <r>  -16.6137    1.0000 </r>
       <r>  -16.4004    1.0000 </r>
       <r>  -16.3556    1.0000 </r>
       <r>  -16.3157    1.0000 </r>
       <r>  -16.2229    1.0000 </r>
       <r>  -16.1102    1.0000 </r>
       <r>  -16.0672    1.0000 </r>
       <r>  -15.9593    1.0000 </r>
       <r>  -15.9112    1.0000 </r>
       <r>  -15.7939    1.0000 </r>
       <r>  -15.7184    1.0000 </r>
       <r>  -15.6072    1.0000 </r>
       <r>  -15.5148    1.0000 </r>
       <r>  -15.3974    1.0000 </r>
       <r>  -15.2756    1.0000 </r>
       <r>   -9.6220    1.0000 </r>
       <r>   -9.5621    1.0000 </r>
       <r>   -9.3469    1.0000 </r>
       <r>   -8.9110    1.0000 </r>
       <r>   -8.7535    1.0000 </r>
       <r>   -8.5973    1.0000 </r>
       <r>   -8.5260    1.0000 </r>
       <r>   -8.4462    1.0000 </r>
       <r>   -8.4015    1.0000 </r>
       <r>   -8.3529    1.0000 </r>
       <r>   -8.2828    1.0000 </r>
       <r>   -8.2501    1.0000 </r>
       <r>   -8.1389    1.0000 </r>
       <r>   -8.0816    1.0000 </r>
       <r>   -8.0225    1.0000 </r>
       <r>   -7.9129    1.0000 </r>
       <r>   -7.7687    1.0000 </r>
       <r>   -7.7183    1.0000 </r>
       <r>   -7.5412    1.0000 </r>
       <r>   -7.4494    1.0000 </r>
       <r>   -7.3221    1.0000 </r>
       <r>   -7.2464    1.0000 </r>
       <r>   -7.1974    1.0000 </r>
       <r>   -7.0746    1.0000 </r>
       <r>   -7.0061    1.0000 </r>
       <r>   -6.8940    1.0000 </r>
       <r>   -6.8643    1.0000 </r>
       <r>   -6.7541    1.0000 </r>
       <r>   -6.6890    1.0000 </r>
       <r>   -6.6028    1.0000 </r>
       <r>   -6.5070    1.0000 </r>
       <r>   -6.4610    1.0000 </r>
       <r>   -6.4327    1.0000 </r>
       <r>   -6.3643    1.0000 </r>
       <r>   -6.2839    1.0000 </r>
       <r>   -6.2563    1.0000 </r>
       <r>   -6.1866    1.0000 </r>
       <r>   -6.0582    1.0000 </r>
       <r>   -5.9635    1.0000 </r>
       <r>   -5.9251    1.0000 </r>
       <r>   -5.8807    1.0000 </r>
       <r>   -5.7554    1.0000 </r>
       <r>   -5.6622    1.0000 </r>
       <r>   -5.6218    1.0000 </r>
       <r>   -5.5579    1.0000 </r>
       <r>   -5.4678    1.0000 </r>
       <r>   -5.3175    1.0000 </r>
       <r>   -5.2059    1.0000 </r>
       <r>   -5.0809    1.0000 </r>
       <r>   -4.9463    1.0000 </r>
       <r>   -4.9046    1.0000 </r>
       <r>   -4.6719    1.0000 </r>
       <r>   -4.5758    1.0000 </r>
       <r>   -4.4695    1.0000 </r>
       <r>   -4.3917    1.0000 </r>
       <r>   -4.2171    1.0000 </r>
       <r>   -4.1688    1.0000 </r>
       <r>   -4.0201    1.0000 </r>
       <r>   -3.8953    1.0000 </r>
       <r>   -3.6302    0.9964 </r>
       <r>   -3.4900    0.9554 </r>
       <r>   -3.1285    0.1959 </r>
       <r>   -2.9318    0.0123 </r>
       <r>   -2.7514    0.0002 </r>
       <r>   -2.5953    0.0000 </r>
       <r>   -2.4895    0.0000 </r>
       <r>   -2.4309    0.0000 </r>
       <r>   -2.3623    0.0000 </r>
       <r>   -2.2546    0.0000 </r>
       <r>   -2.1280    0.0000 </r>
       <r>   -2.0238    0.0000 </r>
       <r>   -1.9760    0.0000 </r>
       <r>   -1.9022    0.0000 </r>
       <r>   -1.7207    0.0000 </r>
       <r>   -1.4933    0.0000 </r>
       <r>   -1.2763    0.0000 </r>
       <r>   -1.1998    0.0000 </r>
       <r>   -1.1551    0.0000 </r>
       <r>   -1.0842    0.0000 </r>
       <r>   -1.0041    0.0000 </r>
       <r>   -0.9789    0.0000 </r>
       <r>   -0.9316    0.0000 </r>
       <r>   -0.8370    0.0000 </r>
       <r>   -0.7384    0.0000 </r>
       <r>   -0.6909    0.0000 </r>
       <r>   -0.5835    0.0000 </r>
       <r>   -0.5361    0.0000 </r>
       <r>   -0.3332    0.0000 </r>
       <r>   -0.1678    0.0000 </r>
       <r>   -0.0996    0.0000 </r>
       <r>    0.0651    0.0000 </r>
       <r>    0.2209    0.0000 </r>
       <r>    0.4416    0.0000 </r>
       <r>    0.6413    0.0000 </r>
       <r>    0.7416    0.0000 </r>
       <r>    0.9289    0.0000 </r>
       <r>    0.9812    0.0000 </r>
       <r>    1.2018    0.0000 </r>
       <r>    1.3615    0.0000 </r>
       <r>    2.0871    0.0000 </r>
       <r>    2.2465    0.0000 </r>
       <r>    2.5453    0.0000 </r>
      </set>
      <set comment="kpoint 33">
       <r>  -17.5071    1.0000 </r>
       <r>  -17.2268    1.0000 </r>
       <r>  -16.9326    1.0000 </r>
       <r>  -16.6134    1.0000 </r>
       <r>  -16.5035    1.0000 </r>
       <r>  -16.3991    1.0000 </r>
       <r>  -16.3106    1.0000 </r>
       <r>  -16.1633    1.0000 </r>
       <r>  -16.0925    1.0000 </r>
       <r>  -16.0293    1.0000 </r>
       <r>  -15.9446    1.0000 </r>
       <r>  -15.9232    1.0000 </r>
       <r>  -15.7966    1.0000 </r>
       <r>  -15.7520    1.0000 </r>
       <r>  -15.5924    1.0000 </r>
       <r>  -15.5226    1.0000 </r>
       <r>  -15.3817    1.0000 </r>
       <r>  -15.2947    1.0000 </r>
       <r>   -9.6852    1.0000 </r>
       <r>   -9.4329    1.0000 </r>
       <r>   -9.2783    1.0000 </r>
       <r>   -8.9339    1.0000 </r>
       <r>   -8.8553    1.0000 </r>
       <r>   -8.7633    1.0000 </r>
       <r>   -8.5462    1.0000 </r>
       <r>   -8.4169    1.0000 </r>
       <r>   -8.3745    1.0000 </r>
       <r>   -8.3319    1.0000 </r>
       <r>   -8.3016    1.0000 </r>
       <r>   -8.1998    1.0000 </r>
       <r>   -8.1163    1.0000 </r>
       <r>   -8.0601    1.0000 </r>
       <r>   -7.9970    1.0000 </r>
       <r>   -7.8394    1.0000 </r>
       <r>   -7.8072    1.0000 </r>
       <r>   -7.6456    1.0000 </r>
       <r>   -7.6002    1.0000 </r>
       <r>   -7.4793    1.0000 </r>
       <r>   -7.2853    1.0000 </r>
       <r>   -7.2476    1.0000 </r>
       <r>   -7.1453    1.0000 </r>
       <r>   -7.1187    1.0000 </r>
       <r>   -7.0135    1.0000 </r>
       <r>   -6.9781    1.0000 </r>
       <r>   -6.8428    1.0000 </r>
       <r>   -6.7768    1.0000 </r>
       <r>   -6.6381    1.0000 </r>
       <r>   -6.5777    1.0000 </r>
       <r>   -6.5387    1.0000 </r>
       <r>   -6.4852    1.0000 </r>
       <r>   -6.4102    1.0000 </r>
       <r>   -6.3552    1.0000 </r>
       <r>   -6.3088    1.0000 </r>
       <r>   -6.2331    1.0000 </r>
       <r>   -6.2022    1.0000 </r>
       <r>   -6.0720    1.0000 </r>
       <r>   -5.9973    1.0000 </r>
       <r>   -5.9357    1.0000 </r>
       <r>   -5.8659    1.0000 </r>
       <r>   -5.7892    1.0000 </r>
       <r>   -5.7435    1.0000 </r>
       <r>   -5.6551    1.0000 </r>
       <r>   -5.5753    1.0000 </r>
       <r>   -5.3967    1.0000 </r>
       <r>   -5.2788    1.0000 </r>
       <r>   -5.1745    1.0000 </r>
       <r>   -5.0523    1.0000 </r>
       <r>   -4.9264    1.0000 </r>
       <r>   -4.8004    1.0000 </r>
       <r>   -4.7491    1.0000 </r>
       <r>   -4.5549    1.0000 </r>
       <r>   -4.4358    1.0000 </r>
       <r>   -4.3304    1.0000 </r>
       <r>   -4.2416    1.0000 </r>
       <r>   -4.1611    1.0000 </r>
       <r>   -4.0439    1.0000 </r>
       <r>   -3.8998    1.0000 </r>
       <r>   -3.6413    0.9972 </r>
       <r>   -3.4948    0.9585 </r>
       <r>   -3.2600    0.5293 </r>
       <r>   -2.9124    0.0085 </r>
       <r>   -2.7452    0.0002 </r>
       <r>   -2.5831    0.0000 </r>
       <r>   -2.5130    0.0000 </r>
       <r>   -2.4023    0.0000 </r>
       <r>   -2.3248    0.0000 </r>
       <r>   -2.2710    0.0000 </r>
       <r>   -2.0992    0.0000 </r>
       <r>   -2.0053    0.0000 </r>
       <r>   -1.9462    0.0000 </r>
       <r>   -1.9005    0.0000 </r>
       <r>   -1.7518    0.0000 </r>
       <r>   -1.4966    0.0000 </r>
       <r>   -1.2683    0.0000 </r>
       <r>   -1.2071    0.0000 </r>
       <r>   -1.1317    0.0000 </r>
       <r>   -1.1113    0.0000 </r>
       <r>   -1.0072    0.0000 </r>
       <r>   -0.9575    0.0000 </r>
       <r>   -0.9222    0.0000 </r>
       <r>   -0.8493    0.0000 </r>
       <r>   -0.7711    0.0000 </r>
       <r>   -0.7060    0.0000 </r>
       <r>   -0.6147    0.0000 </r>
       <r>   -0.5084    0.0000 </r>
       <r>   -0.3839    0.0000 </r>
       <r>   -0.2267    0.0000 </r>
       <r>   -0.0948    0.0000 </r>
       <r>    0.1153    0.0000 </r>
       <r>    0.1823    0.0000 </r>
       <r>    0.4073    0.0000 </r>
       <r>    0.6180    0.0000 </r>
       <r>    0.6753    0.0000 </r>
       <r>    0.9672    0.0000 </r>
       <r>    1.0035    0.0000 </r>
       <r>    1.2894    0.0000 </r>
       <r>    1.4530    0.0000 </r>
       <r>    2.1186    0.0000 </r>
       <r>    2.2764    0.0000 </r>
       <r>    2.3734    0.0000 </r>
      </set>
      <set comment="kpoint 34">
       <r>  -17.4942    1.0000 </r>
       <r>  -17.2827    1.0000 </r>
       <r>  -16.7717    1.0000 </r>
       <r>  -16.6809    1.0000 </r>
       <r>  -16.5935    1.0000 </r>
       <r>  -16.4112    1.0000 </r>
       <r>  -16.3033    1.0000 </r>
       <r>  -16.1573    1.0000 </r>
       <r>  -16.0852    1.0000 </r>
       <r>  -15.9828    1.0000 </r>
       <r>  -15.9381    1.0000 </r>
       <r>  -15.9166    1.0000 </r>
       <r>  -15.7954    1.0000 </r>
       <r>  -15.7755    1.0000 </r>
       <r>  -15.5860    1.0000 </r>
       <r>  -15.5273    1.0000 </r>
       <r>  -15.3828    1.0000 </r>
       <r>  -15.3026    1.0000 </r>
       <r>   -9.7238    1.0000 </r>
       <r>   -9.2718    1.0000 </r>
       <r>   -9.2120    1.0000 </r>
       <r>   -9.0127    1.0000 </r>
       <r>   -8.9741    1.0000 </r>
       <r>   -8.8595    1.0000 </r>
       <r>   -8.5545    1.0000 </r>
       <r>   -8.4325    1.0000 </r>
       <r>   -8.3845    1.0000 </r>
       <r>   -8.2822    1.0000 </r>
       <r>   -8.2778    1.0000 </r>
       <r>   -8.2244    1.0000 </r>
       <r>   -8.1046    1.0000 </r>
       <r>   -8.0376    1.0000 </r>
       <r>   -7.9182    1.0000 </r>
       <r>   -7.8340    1.0000 </r>
       <r>   -7.8022    1.0000 </r>
       <r>   -7.6273    1.0000 </r>
       <r>   -7.5663    1.0000 </r>
       <r>   -7.4464    1.0000 </r>
       <r>   -7.4132    1.0000 </r>
       <r>   -7.1994    1.0000 </r>
       <r>   -7.1459    1.0000 </r>
       <r>   -7.1201    1.0000 </r>
       <r>   -7.0388    1.0000 </r>
       <r>   -6.9711    1.0000 </r>
       <r>   -6.8546    1.0000 </r>
       <r>   -6.7230    1.0000 </r>
       <r>   -6.6324    1.0000 </r>
       <r>   -6.6013    1.0000 </r>
       <r>   -6.5517    1.0000 </r>
       <r>   -6.4679    1.0000 </r>
       <r>   -6.3640    1.0000 </r>
       <r>   -6.3545    1.0000 </r>
       <r>   -6.2926    1.0000 </r>
       <r>   -6.2809    1.0000 </r>
       <r>   -6.2486    1.0000 </r>
       <r>   -6.1344    1.0000 </r>
       <r>   -5.9896    1.0000 </r>
       <r>   -5.9384    1.0000 </r>
       <r>   -5.8778    1.0000 </r>
       <r>   -5.8153    1.0000 </r>
       <r>   -5.7485    1.0000 </r>
       <r>   -5.6481    1.0000 </r>
       <r>   -5.6012    1.0000 </r>
       <r>   -5.4497    1.0000 </r>
       <r>   -5.2473    1.0000 </r>
       <r>   -5.0625    1.0000 </r>
       <r>   -4.9734    1.0000 </r>
       <r>   -4.9580    1.0000 </r>
       <r>   -4.8880    1.0000 </r>
       <r>   -4.6789    1.0000 </r>
       <r>   -4.5445    1.0000 </r>
       <r>   -4.3992    1.0000 </r>
       <r>   -4.2775    1.0000 </r>
       <r>   -4.2407    1.0000 </r>
       <r>   -4.2010    1.0000 </r>
       <r>   -4.0613    1.0000 </r>
       <r>   -3.9094    1.0000 </r>
       <r>   -3.6479    0.9976 </r>
       <r>   -3.5167    0.9705 </r>
       <r>   -3.3075    0.6589 </r>
       <r>   -2.8937    0.0059 </r>
       <r>   -2.7497    0.0002 </r>
       <r>   -2.5605    0.0000 </r>
       <r>   -2.5469    0.0000 </r>
       <r>   -2.3989    0.0000 </r>
       <r>   -2.3041    0.0000 </r>
       <r>   -2.2804    0.0000 </r>
       <r>   -2.0860    0.0000 </r>
       <r>   -2.0030    0.0000 </r>
       <r>   -1.9423    0.0000 </r>
       <r>   -1.8867    0.0000 </r>
       <r>   -1.7460    0.0000 </r>
       <r>   -1.4923    0.0000 </r>
       <r>   -1.2690    0.0000 </r>
       <r>   -1.1954    0.0000 </r>
       <r>   -1.1518    0.0000 </r>
       <r>   -1.1138    0.0000 </r>
       <r>   -1.0240    0.0000 </r>
       <r>   -0.9451    0.0000 </r>
       <r>   -0.8941    0.0000 </r>
       <r>   -0.8652    0.0000 </r>
       <r>   -0.7910    0.0000 </r>
       <r>   -0.7304    0.0000 </r>
       <r>   -0.6336    0.0000 </r>
       <r>   -0.4675    0.0000 </r>
       <r>   -0.3672    0.0000 </r>
       <r>   -0.2903    0.0000 </r>
       <r>   -0.1077    0.0000 </r>
       <r>    0.1216    0.0000 </r>
       <r>    0.1685    0.0000 </r>
       <r>    0.4087    0.0000 </r>
       <r>    0.5979    0.0000 </r>
       <r>    0.6645    0.0000 </r>
       <r>    0.9730    0.0000 </r>
       <r>    1.0260    0.0000 </r>
       <r>    1.3322    0.0000 </r>
       <r>    1.4985    0.0000 </r>
       <r>    2.2035    0.0000 </r>
       <r>    2.2209    0.0000 </r>
       <r>    2.3702    0.0000 </r>
      </set>
     </set>
    </set>
   </array>
  </eigenvalues>
  <separator name="orbital magnetization" >
   <v name="MAGDIPOLOUT">      0.00000000      0.00000000      0.00000000</v>
  </separator>
 </calculation>
 <structure name="finalpos" >
  <crystal>
   <varray name="basis" >
    <v>       8.38979249       4.84198267       0.00000000 </v>
    <v>      -8.38026382       4.82560377       0.00000000 </v>
    <v>       0.00000000       0.00000000      30.00000000 </v>
   </varray>
   <i name="volume">   2431.88719410 </i>
   <varray name="rec_basis" >
    <v>       0.05952912       0.10337976       0.00000000 </v>
    <v>      -0.05973118       0.10349731       0.00000000 </v>
    <v>       0.00000000       0.00000000       0.03333333 </v>
   </varray>
  </crystal>
  <varray name="positions" >
   <v>       0.31478079       0.01836254      -0.00061246 </v>
   <v>       0.64263004       0.33372155      -0.00033406 </v>
   <v>       0.63267698       0.65069608       0.00067779 </v>
   <v>       0.32535796       0.33165721      -0.00000522 </v>
   <v>       1.01924036       0.33173983      -0.00001910 </v>
   <v>       0.01362305       0.03356548       0.00024330 </v>
   <v>       0.01673452       0.64384185       0.00178459 </v>
   <v>       0.31461099       0.63365589      -0.00005083 </v>
   <v>       0.70589177       0.02252808      -0.00161802 </v>
   <v>       0.11682030       0.22626615       0.94315931 </v>
   <v>       0.22356455       0.11197365       0.05453493 </v>
   <v>       0.11356612       0.55011736       0.94403308 </v>
   <v>       0.22353889       0.44019872       0.05689531 </v>
   <v>       0.10997843       0.88683486       0.95167254 </v>
   <v>       0.23078323       0.78195937       0.04980286 </v>
   <v>       0.44151478       0.21889681       0.94831541 </v>
   <v>       0.55083518       0.11207236       0.04587650 </v>
   <v>       0.44599011       0.55532606       0.94580101 </v>
   <v>       0.55682344       0.44760343       0.05115847 </v>
   <v>       0.44522781       0.89207523       0.95968949 </v>
   <v>       0.55648416       0.77943782       0.04864666 </v>
   <v>       0.78128139       0.23356207       0.95026904 </v>
   <v>       0.89474221       0.11624194       0.05624523 </v>
   <v>       0.77373272       0.55528038       0.95373976 </v>
   <v>       0.87950902       0.43192216       0.04943894 </v>
   <v>       0.78112904       0.88511530       0.95011021 </v>
   <v>       0.88714663       0.77356228       0.04054516 </v>
  </varray>
 </structure>
</modeling>
