unknown system                          
           1
     8.857841    5.107690    0.000000
    -8.854969    5.102750    0.000000
     0.000000    0.000000   30.000000
   V    Mo   W    S 
   3   3   3  18
Direct configuration=     1
   0.33333334  0.00000000  0.00000000
   0.66666669  0.33333334  0.00000000
   0.66666669  0.66666669  0.00000000
   0.33333334  0.33333334  0.00000000
   1.00000000  0.33333334  0.00000000
   0.00000000  0.00000000  0.00000000
   0.00000000  0.66666669  0.00000000
   0.33333334  0.66666669  0.00000000
   0.66666669  0.00000000  0.00000000
   0.11068511  0.22244981  0.95539999
   0.22244981  0.11068511  0.04460000
   0.11068511  0.55578315  0.95539999
   0.22244981  0.44401845  0.04460000
   0.11068511  0.88911647  0.95539999
   0.22244981  0.77735180  0.04460000
   0.44401845  0.22244981  0.95539999
   0.55578315  0.11068511  0.04460000
   0.44401845  0.55578315  0.95539999
   0.55578315  0.44401845  0.04460000
   0.44401845  0.88911647  0.95539999
   0.55578315  0.77735180  0.04460000
   0.77735180  0.22244981  0.95539999
   0.88911647  0.11068511  0.04460000
   0.77735180  0.55578315  0.95539999
   0.88911647  0.44401845  0.04460000
   0.77735180  0.88911647  0.95539999
   0.88911647  0.77735180  0.04460000
unknown system                          
           1
     8.669825    5.001445    0.000000
    -8.667175    4.996888    0.000000
     0.000000    0.000000   30.000000
   V    Mo   W    S 
   3   3   3  18
Direct configuration=     2
   0.33242574  0.00152795  0.00010031
   0.66622497  0.33334798  0.00004853
   0.66661320  0.66625156 -0.00009917
   0.33101220  0.33197184  0.00003254
   1.00148254  0.33188516  0.00001612
   0.00135163  0.00280789 -0.00015414
  -0.00039513  0.66659573  0.00002848
   0.33200168  0.66369367  0.00011386
   0.66950470  0.00165108 -0.00004237
   0.11092356  0.22202529  0.95066152
   0.22466775  0.10858365  0.04803723
   0.11132522  0.55616331  0.95073931
   0.22259187  0.44544709  0.04931833
   0.11493466  0.89004058  0.95195426
   0.22400738  0.78151381  0.04813518
   0.44650883  0.21994277  0.95305361
   0.55357023  0.11268349  0.04697453
   0.44856820  0.55821854  0.95190503
   0.55988524  0.44631115  0.04683900
   0.44236835  0.89080378  0.95212780
   0.55733098  0.77569265  0.04797887
   0.77481832  0.22357874  0.95201069
   0.88777714  0.11064286  0.04928772
   0.77411779  0.55401384  0.95306559
   0.88485144  0.44313554  0.04798865
   0.77496395  0.88465636  0.95189276
   0.88478202  0.77502816  0.04798567
unknown system                          
           1
     8.488464    4.900869    0.000000
    -8.486665    4.897782    0.000000
     0.000000    0.000000   30.000000
   V    Mo   W    S 
   3   3   3  18
Direct configuration=     3
   0.33211847  0.00186322  0.00006559
   0.66612502  0.33334722  0.00010042
   0.66662891  0.66621071 -0.00006021
   0.32980391  0.33163185  0.00003337
   1.00221018  0.33141269  0.00000969
   0.00166786  0.00393558 -0.00017164
  -0.00024238  0.66660798  0.00009235
   0.33125886  0.66259064  0.00007298
   0.67058450  0.00220457 -0.00011003
   0.11092930  0.22202316  0.95043365
   0.22472233  0.10853937  0.04814105
   0.11140793  0.55636372  0.95074417
   0.22270751  0.44566100  0.04948133
   0.11490884  0.88987923  0.95197852
   0.22397405  0.78137272  0.04806900
   0.44654321  0.21992818  0.95310803
   0.55367444  0.11258498  0.04688748
   0.44854972  0.55839193  0.95191968
   0.55993721  0.44634651  0.04674944
   0.44246664  0.89070382  0.95233477
   0.55723450  0.77577622  0.04789423
   0.77467727  0.22337742  0.95202385
   0.88756537  0.11052592  0.04942495
   0.77426809  0.55407118  0.95308730
   0.88488329  0.44330556  0.04790911
   0.77479134  0.88469697  0.95189114
   0.88481810  0.77486208  0.04788966
unknown system                          
           1
     8.296139    4.789045    0.000000
    -8.290149    4.778699    0.000000
     0.000000    0.000000   30.000000
   V    Mo   W    S 
   3   3   3  18
Direct configuration=     4
   0.33068866  0.00264171 -0.00010892
   0.66594620  0.33337744  0.00027125
   0.66672106  0.66635132  0.00012355
   0.32473012  0.33065291  0.00002635
   1.00535966  0.32973077 -0.00000205
   0.00255179  0.00824926 -0.00016267
   0.00082845  0.66673349  0.00030882
   0.32806324  0.65832999 -0.00011576
   0.67470117  0.00406955 -0.00032476
   0.11105603  0.22206311  0.94792475
   0.22520782  0.10807151  0.04996372
   0.11113907  0.55618628  0.94913054
   0.22266151  0.44545800  0.05178416
   0.11581205  0.89046106  0.95064847
   0.22472923  0.78235729  0.04931208
   0.44697546  0.21965957  0.95203410
   0.55331110  0.11290401  0.04789396
   0.44954303  0.55872706  0.95051348
   0.56055209  0.44667713  0.04767524
   0.44216656  0.89098631  0.95174856
   0.55756180  0.77546860  0.04899615
   0.77445033  0.22407886  0.95061456
   0.88771144  0.11056267  0.05158674
   0.77331507  0.55348702  0.95181529
   0.88399024  0.44260730  0.04901411
   0.77443688  0.88371068  0.95039838
   0.88400439  0.77461155  0.04892979
unknown system                          
           1
     8.312229    4.799305    0.000000
    -8.300822    4.779572    0.000000
     0.000000    0.000000   30.000000
   V    Mo   W    S 
   3   3   3  18
Direct configuration=     5
   0.32765083  0.00413189 -0.00043045
   0.66531214  0.33342688  0.00046340
   0.66701533  0.66681680  0.00043775
   0.31584538  0.32933548 -0.00000452
   1.01136510  0.32693089 -0.00002186
   0.00371586  0.01585636 -0.00007636
   0.00299689  0.66696359  0.00059693
   0.32125834  0.64944647 -0.00034138
   0.68321609  0.00817397 -0.00058959
   0.11124067  0.22199684  0.94426409
   0.22525089  0.10824664  0.05240477
   0.11002134  0.55470064  0.94698466
   0.22218461  0.44451315  0.05510809
   0.11610763  0.89137821  0.94903645
   0.22600360  0.78343916  0.05093326
   0.44680448  0.21998442  0.95062032
   0.55317236  0.11312184  0.04917531
   0.44988819  0.55788208  0.94871865
   0.55971691  0.44627433  0.04885981
   0.44225301  0.89083063  0.95153480
   0.55758443  0.77532273  0.05003795
   0.77546544  0.22537376  0.94886767
   0.88869649  0.11125975  0.05454857
   0.77250675  0.55285343  0.95019683
   0.88370885  0.44132458  0.05026926
   0.77525118  0.88305314  0.94833548
   0.88398170  0.77557680  0.05007001
unknown system                          
           1
     8.307642    4.798963    0.000000
    -8.295278    4.777563    0.000000
     0.000000    0.000000   30.000000
   V    Mo   W    S 
   3   3   3  18
Direct configuration=     6
   0.32626505  0.00511532 -0.00041590
   0.66460099  0.33328407  0.00052295
   0.66731732  0.66709660  0.00045820
   0.31588513  0.32939214 -0.00005378
   1.01140938  0.32725376 -0.00007489
   0.00352199  0.01595585 -0.00018231
   0.00373780  0.66674122  0.00066524
   0.31921909  0.64695674 -0.00023718
   0.68610643  0.00978340 -0.00062173
   0.11116903  0.22181540  0.94399044
   0.22485937  0.10874697  0.05248684
   0.10923727  0.55356619  0.94682053
   0.22186950  0.44411404  0.05542695
   0.11536465  0.89151369  0.94911159
   0.22643356  0.78325730  0.05086751
   0.44617339  0.22051481  0.95064511
   0.55335763  0.11276727  0.04899241
   0.44901509  0.55702912  0.94875594
   0.55849718  0.44571485  0.04875755
   0.44276579  0.89016016  0.95219645
   0.55709942  0.77557100  0.04967274
   0.77670586  0.22582283  0.94890233
   0.88932016  0.11191756  0.05481399
   0.77277366  0.55300311  0.95027961
   0.88445943  0.44106174  0.05007355
   0.77611824  0.88352406  0.94826295
   0.88493203  0.77653524  0.04988281
unknown system                          
           1
     8.313615    4.804992    0.000000
    -8.299029    4.779737    0.000000
     0.000000    0.000000   30.000000
   V    Mo   W    S 
   3   3   3  18
Direct configuration=     7
   0.32480667  0.00633623 -0.00042633
   0.66381173  0.33308323  0.00060427
   0.66753995  0.66737186  0.00050708
   0.31506956  0.32917852 -0.00009328
   1.01209275  0.32727884 -0.00010631
   0.00348078  0.01680222 -0.00020721
   0.00458376  0.66637654  0.00073398
   0.31699026  0.64418071 -0.00023828
   0.68924124  0.01146045 -0.00066123
   0.11116172  0.22176673  0.94371666
   0.22461313  0.10891790  0.05268919
   0.10878400  0.55296048  0.94657613
   0.22160524  0.44365781  0.05578852
   0.11497926  0.89157163  0.94907083
   0.22678927  0.78323129  0.05086775
   0.44582599  0.22075680  0.95056705
   0.55343328  0.11250276  0.04885308
   0.44854470  0.55661725  0.94870848
   0.55794029  0.44549546  0.04872890
   0.44314536  0.88978869  0.95283020
   0.55681174  0.77574771  0.04940381
   0.77742032  0.22622770  0.94880455
   0.88985339  0.11231677  0.05511817
   0.77290163  0.55307106  0.95030590
   0.88470221  0.44085143  0.04999872
   0.77661807  0.88370166  0.94808801
   0.88546816  0.77696271  0.04977127
unknown system                          
           1
     8.322753    4.817347    0.000000
    -8.302276    4.781861    0.000000
     0.000000    0.000000   30.000000
   V    Mo   W    S 
   3   3   3  18
Direct configuration=     8
   0.32337397  0.00768786 -0.00044602
   0.66291137  0.33283836  0.00068531
   0.66777266  0.66769011  0.00056353
   0.31466021  0.32891010 -0.00011554
   1.01249999  0.32749634 -0.00012645
   0.00343169  0.01735969 -0.00024084
   0.00538045  0.66580139  0.00080732
   0.31517584  0.64188872 -0.00022782
   0.69197595  0.01291585 -0.00074066
   0.11113936  0.22171317  0.94354714
   0.22439252  0.10903450  0.05286078
   0.10837861  0.55245289  0.94635023
   0.22137884  0.44320281  0.05605521
   0.11461845  0.89155374  0.94907953
   0.22712603  0.78319728  0.05079735
   0.44551243  0.22090468  0.95050291
   0.55347002  0.11221346  0.04865209
   0.44810966  0.55627434  0.94870188
   0.55757401  0.44540630  0.04866988
   0.44350579  0.88949320  0.95355584
   0.55654638  0.77595855  0.04908694
   0.77800379  0.22658386  0.94875195
   0.89042873  0.11272712  0.05536652
   0.77302212  0.55312152  0.95039234
   0.88481188  0.44069475  0.04989568
   0.77705867  0.88386408  0.94796560
   0.88595503  0.77722978  0.04960919
unknown system                          
           1
     8.336681    4.825851    0.000000
    -8.315072    4.788405    0.000000
     0.000000    0.000000   30.000000
   V    Mo   W    S 
   3   3   3  18
Direct configuration=     9
   0.31939807  0.01191577 -0.00051833
   0.65988767  0.33201873  0.00089842
   0.66836311  0.66875543  0.00072818
   0.31369156  0.32783059 -0.00015657
   1.01367097  0.32840896 -0.00016907
   0.00347742  0.01919837 -0.00029511
   0.00766431  0.66324987  0.00099038
   0.31076839  0.63602228 -0.00022251
   0.69909874  0.01662918 -0.00099318
   0.11108569  0.22166453  0.94322360
   0.22372052  0.10923082  0.05337231
   0.10746865  0.55132234  0.94572176
   0.22083042  0.44183408  0.05668002
   0.11360200  0.89131738  0.94918835
   0.22804105  0.78312615  0.05047438
   0.44464775  0.22113023  0.95026446
   0.55343428  0.11130164  0.04796623
   0.44696600  0.55542478  0.94874635
   0.55694942  0.44550184  0.04850289
   0.44444114  0.88896430  0.95581353
   0.55592188  0.77663546  0.04813099
   0.77939488  0.22760310  0.94864697
   0.89211352  0.11382452  0.05594594
   0.77334904  0.55322298  0.95074165
   0.88469562  0.44021073  0.04961660
   0.77826029  0.88426476  0.94766227
   0.88727206  0.77760563  0.04903940
unknown system                          
           1
     8.340948    4.829592    0.000000
    -8.317062    4.788203    0.000000
     0.000000    0.000000   30.000000
   V    Mo   W    S 
   3   3   3  18
Direct configuration=    10
   0.31894306  0.01270565 -0.00055765
   0.65868532  0.33174047  0.00089787
   0.66839697  0.66921961  0.00076533
   0.31368579  0.32741562 -0.00012090
   1.01390320  0.32895154 -0.00015234
   0.00367269  0.01988482 -0.00027113
   0.00828885  0.66163066  0.00098835
   0.31074598  0.63562813 -0.00019982
   0.69961950  0.01690422 -0.00105796
   0.11111532  0.22177842  0.94316284
   0.22339183  0.10931554  0.05357898
   0.10738051  0.55114601  0.94548902
   0.22074343  0.44136813  0.05679706
   0.11322615  0.89116182  0.94927901
   0.22829212  0.78317595  0.05036572
   0.44438976  0.22115969  0.95010236
   0.55325909  0.11102766  0.04776796
   0.44677396  0.55522111  0.94872705
   0.55696671  0.44576797  0.04852217
   0.44452544  0.88913070  0.95643040
   0.55588947  0.77685366  0.04792568
   0.77964748  0.22799280  0.94861938
   0.89264766  0.11415469  0.05605427
   0.77338277  0.55318014  0.95085927
   0.88426504  0.43983655  0.04963838
   0.77866946  0.88435205  0.94757156
   0.88770689  0.77751082  0.04881705
unknown system                          
           1
     8.345869    4.831000    0.000000
    -8.322300    4.790171    0.000000
     0.000000    0.000000   30.000000
   V    Mo   W    S 
   3   3   3  18
Direct configuration=    11
   0.31755127  0.01459727 -0.00060037
   0.65648158  0.33126291  0.00090176
   0.66834474  0.67000360  0.00082369
   0.31341401  0.32659750 -0.00009495
   1.01451245  0.32983750 -0.00015416
   0.00394201  0.02139967 -0.00024981
   0.00962364  0.65882738  0.00102840
   0.30956416  0.63357298 -0.00017893
   0.70214849  0.01824195 -0.00118954
   0.11115832  0.22197120  0.94312801
   0.22287683  0.10940257  0.05382663
   0.10734869  0.55081684  0.94515439
   0.22062406  0.44069398  0.05696499
   0.11252938  0.89086141  0.94952209
   0.22864319  0.78312420  0.05013626
   0.44384265  0.22119802  0.94990647
   0.55301843  0.11057303  0.04738182
   0.44634949  0.55482009  0.94875525
   0.55686756  0.44612850  0.04848066
   0.44478294  0.88926128  0.95757425
   0.55581872  0.77728142  0.04751473
   0.78013841  0.22851881  0.94866245
   0.89340118  0.11467209  0.05618226
   0.77352366  0.55316264  0.95112352
   0.88370230  0.43926698  0.04958347
   0.77939613  0.88466650  0.94749182
   0.88861017  0.77745415  0.04832475
unknown system                          
           1
     8.346238    4.831100    0.000000
    -8.322653    4.790244    0.000000
     0.000000    0.000000   30.000000
   V    Mo   W    S 
   3   3   3  18
Direct configuration=    12
   0.31775642  0.01454235 -0.00060012
   0.65592423  0.33125296  0.00083699
   0.66794586  0.67015775  0.00082017
   0.31359099  0.32644978 -0.00007460
   1.01451923  0.33012103 -0.00013932
   0.00408500  0.02181107 -0.00022328
   0.00989198  0.65781513  0.00101327
   0.31002809  0.63388460 -0.00017211
   0.70179643  0.01810349 -0.00119091
   0.11123040  0.22214782  0.94314956
   0.22274350  0.10939931  0.05384741
   0.10763451  0.55086546  0.94507566
   0.22069835  0.44065837  0.05693904
   0.11233761  0.89071138  0.94964877
   0.22862325  0.78308601  0.05012170
   0.44373313  0.22118090  0.94984306
   0.55287756  0.11058408  0.04736149
   0.44645893  0.55481764  0.94873086
   0.55692298  0.44629131  0.04851205
   0.44468676  0.88943895  0.95760496
   0.55596028  0.77736822  0.04756313
   0.78007186  0.22859888  0.94869996
   0.89337467  0.11473216  0.05614905
   0.77354121  0.55313560  0.95117553
   0.88338125  0.43895866  0.04965094
   0.77952566  0.88477051  0.94751083
   0.88887432  0.77733100  0.04814582
unknown system                          
           1
     8.348306    4.831152    0.000000
    -8.324584    4.790069    0.000000
     0.000000    0.000000   30.000000
   V    Mo   W    S 
   3   3   3  18
Direct configuration=    13
   0.31774668  0.01457940 -0.00060038
   0.65583727  0.33125094  0.00083117
   0.66788241  0.67017440  0.00082116
   0.31360886  0.32643081 -0.00007312
   1.01453044  0.33015822 -0.00013805
   0.00409779  0.02188156 -0.00022113
   0.00994063  0.65767077  0.00101437
   0.31004226  0.63386304 -0.00017141
   0.70182497  0.01812351 -0.00119417
   0.11123849  0.22216833  0.94315102
   0.22272375  0.10939863  0.05385304
   0.10766574  0.55086283  0.94506226
   0.22070443  0.44064667  0.05693954
   0.11230486  0.89068833  0.94966592
   0.22862775  0.78307535  0.05011689
   0.44371373  0.22117868  0.94983437
   0.55286235  0.11058045  0.04735352
   0.44646478  0.55481213  0.94872815
   0.55692668  0.44631060  0.04851380
   0.44468646  0.88945187  0.95762523
   0.55597127  0.77738563  0.04756221
   0.78007312  0.22861359  0.94870538
   0.89338237  0.11474700  0.05614940
   0.77354758  0.55313375  0.95118557
   0.88334449  0.43891971  0.04965543
   0.77954950  0.88478918  0.94751260
   0.88891579  0.77731904  0.04811714
unknown system                          
           1
     8.351791    4.833563    0.000000
    -8.327828    4.792060    0.000000
     0.000000    0.000000   30.000000
   V    Mo   W    S 
   3   3   3  18
Direct configuration=    14
   0.31758473  0.01506325 -0.00060922
   0.65477113  0.33116486  0.00077066
   0.66733907  0.67043679  0.00083278
   0.31371906  0.32617869 -0.00005384
   1.01471777  0.33060883 -0.00012376
   0.00422517  0.02276299 -0.00019887
   0.01053872  0.65590615  0.00102420
   0.31004025  0.63347129 -0.00015621
   0.70232992  0.01848482 -0.00123899
   0.11132766  0.22241563  0.94316670
   0.22242356  0.10942409  0.05395184
   0.10799618  0.55080582  0.94488047
   0.22076198  0.44044841  0.05695773
   0.11186243  0.89039602  0.94986545
   0.22869957  0.78292224  0.05004694
   0.44347550  0.22119914  0.94971202
   0.55267451  0.11050711  0.04723245
   0.44646400  0.55468917  0.94869713
   0.55693979  0.44653429  0.04853296
   0.44471015  0.88960303  0.95794612
   0.55607094  0.77763323  0.04751559
   0.78011999  0.22882533  0.94876996
   0.89353886  0.11496163  0.05616098
   0.77362347  0.55306763  0.95130923
   0.88287936  0.43843148  0.04970301
   0.77990691  0.88505923  0.94751815
   0.88947378  0.77721328  0.04778641
unknown system                          
           1
     8.357928    4.835609    0.000000
    -8.333538    4.793382    0.000000
     0.000000    0.000000   30.000000
   V    Mo   W    S 
   3   3   3  18
Direct configuration=    15
   0.31760830  0.01498849 -0.00060649
   0.65500883  0.33120501  0.00079279
   0.66746996  0.67039532  0.00083625
   0.31372781  0.32620975 -0.00006084
   1.01463694  0.33051141 -0.00012890
   0.00418931  0.02247535 -0.00020609
   0.01036781  0.65637107  0.00102663
   0.31013724  0.63359998 -0.00016294
   0.70217632  0.01831013 -0.00123328
   0.11128972  0.22230977  0.94316199
   0.22256291  0.10940125  0.05391029
   0.10786093  0.55083449  0.94495194
   0.22073413  0.44052422  0.05695076
   0.11204007  0.89053521  0.94979903
   0.22867585  0.78303970  0.05006305
   0.44355718  0.22117425  0.94976507
   0.55275083  0.11052879  0.04727051
   0.44646801  0.55474577  0.94872493
   0.55697430  0.44648656  0.04850990
   0.44468818  0.88956129  0.95785232
   0.55604649  0.77749705  0.04751806
   0.78012210  0.22874843  0.94874680
   0.89351005  0.11488174  0.05615522
   0.77357817  0.55313636  0.95127842
   0.88304477  0.43862888  0.04967792
   0.77974697  0.88489323  0.94752284
   0.88924129  0.77722093  0.04788373
unknown system                          
           1
     8.360242    4.835771    0.000000
    -8.336050    4.793896    0.000000
     0.000000    0.000000   30.000000
   V    Mo   W    S 
   3   3   3  18
Direct configuration=    16
   0.31723360  0.01552623 -0.00061453
   0.65382024  0.33110681  0.00072083
   0.66645871  0.67060078  0.00085389
   0.31391908  0.32580897 -0.00003978
   1.01483317  0.33102023 -0.00011480
   0.00455684  0.02338775 -0.00017664
   0.01117539  0.65475446  0.00105791
   0.31026525  0.63329186 -0.00016503
   0.70255559  0.01856815 -0.00126995
   0.11141470  0.22257913  0.94318216
   0.22238225  0.10934441  0.05393909
   0.10828067  0.55080910  0.94480358
   0.22080867  0.44038193  0.05694695
   0.11175395  0.89029660  0.95004822
   0.22874795  0.78294959  0.04996539
   0.44322933  0.22104300  0.94967880
   0.55255259  0.11043806  0.04714580
   0.44654260  0.55470478  0.94869102
   0.55695968  0.44671870  0.04854111
   0.44465062  0.88972968  0.95813843
   0.55618009  0.77771767  0.04751055
   0.78015683  0.22887771  0.94881993
   0.89357162  0.11505118  0.05615693
   0.77374008  0.55321016  0.95142666
   0.88265423  0.43818556  0.04972329
   0.78000476  0.88508939  0.94754818
   0.88976595  0.77702257  0.04748191
unknown system                          
           1
     8.357884    4.835718    0.000000
    -8.333642    4.793745    0.000000
     0.000000    0.000000   30.000000
   V    Mo   W    S 
   3   3   3  18
Direct configuration=    17
   0.31714997  0.01582369 -0.00061572
   0.65304631  0.33117913  0.00065802
   0.66540393  0.67057735  0.00086129
   0.31422524  0.32579033 -0.00003030
   1.01491112  0.33129573 -0.00009433
   0.00468814  0.02406253 -0.00014938
   0.01167290  0.65347041  0.00107477
   0.31048629  0.63314850 -0.00016962
   0.70275081  0.01873700 -0.00129064
   0.11152754  0.22281543  0.94316745
   0.22216974  0.10933901  0.05402098
   0.10862815  0.55073495  0.94464765
   0.22086627  0.44023366  0.05697486
   0.11139251  0.89000744  0.95020257
   0.22886466  0.78282020  0.04994771
   0.44302681  0.22100533  0.94957336
   0.55239804  0.11042408  0.04707621
   0.44667959  0.55467678  0.94862466
   0.55697281  0.44688881  0.04858798
   0.44466840  0.88983633  0.95830324
   0.55629731  0.77793983  0.04754516
   0.78017081  0.22906182  0.94886166
   0.89363545  0.11521370  0.05618716
   0.77385820  0.55321206  0.95153372
   0.88229907  0.43773825  0.04977720
   0.78026044  0.88531633  0.94756751
   0.89016396  0.77686577  0.04715671
unknown system                          
           1
     8.346920    4.831510    0.000000
    -8.322088    4.788501    0.000000
     0.000000    0.000000   30.000000
   V    Mo   W    S 
   3   3   3  18
Direct configuration=    18
   0.31722799  0.01567064 -0.00062492
   0.65334556  0.33112876  0.00070346
   0.66620690  0.67079451  0.00086925
   0.31405904  0.32580539 -0.00003889
   1.01492266  0.33133654 -0.00009981
   0.00450860  0.02368916 -0.00016390
   0.01141831  0.65387473  0.00106509
   0.31036475  0.63318762 -0.00017494
   0.70265697  0.01859431 -0.00129204
   0.11145506  0.22270576  0.94316800
   0.22223129  0.10935318  0.05402020
   0.10842257  0.55079083  0.94470486
   0.22082953  0.44025891  0.05696896
   0.11152917  0.89014229  0.95012009
   0.22879800  0.78291163  0.04994944
   0.44312540  0.22107142  0.94961459
   0.55249575  0.11042339  0.04709807
   0.44653580  0.55463327  0.94869554
   0.55696122  0.44681809  0.04853643
   0.44465670  0.88977939  0.95826465
   0.55625002  0.77780753  0.04749192
   0.78016907  0.22898167  0.94884142
   0.89365612  0.11514660  0.05616696
   0.77378864  0.55320827  0.95148952
   0.88244788  0.43797244  0.04974508
   0.78014577  0.88518889  0.94755223
   0.89000568  0.77693921  0.04732862
unknown system                          
           1
     8.361526    4.835218    0.000000
    -8.337351    4.793383    0.000000
     0.000000    0.000000   30.000000
   V    Mo   W    S 
   3   3   3  18
Direct configuration=    19
   0.31722860  0.01554243 -0.00060970
   0.65328893  0.33101005  0.00071941
   0.66831171  0.67209472  0.00085452
   0.31341585  0.32550950 -0.00000850
   1.01522946  0.33179100 -0.00012220
   0.00398332  0.02346012 -0.00017302
   0.01127788  0.65350255  0.00099528
   0.30989223  0.63289408 -0.00011371
   0.70289878  0.01859499 -0.00126415
   0.11130875  0.22270225  0.94319222
   0.22212294  0.10936111  0.05404507
   0.10831016  0.55084838  0.94461486
   0.22086101  0.44025818  0.05697627
   0.11138282  0.89001650  0.95010237
   0.22866166  0.78292325  0.04992995
   0.44317309  0.22130548  0.94957139
   0.55262450  0.11036772  0.04710473
   0.44634155  0.55441408  0.94879981
   0.55681979  0.44690789  0.04847274
   0.44463647  0.88968218  0.95832619
   0.55616916  0.77774957  0.04740515
   0.78010250  0.22892402  0.94882882
   0.89368635  0.11520679  0.05614810
   0.77380960  0.55325552  0.95145691
   0.88234733  0.43796894  0.04982850
   0.78010396  0.88498109  0.94742189
   0.89022606  0.77694210  0.04749698
unknown system                          
           1
     8.368929    4.836544    0.000000
    -8.345248    4.795591    0.000000
     0.000000    0.000000   30.000000
   V    Mo   W    S 
   3   3   3  18
Direct configuration=    20
   0.31699317  0.01614276 -0.00061246
   0.65217586  0.33121749  0.00058992
   0.66462258  0.67082976  0.00086113
   0.31438154  0.32561630 -0.00001254
   1.01506284  0.33163346 -0.00008000
   0.00478723  0.02474915 -0.00012460
   0.01222102  0.65212743  0.00108532
   0.31063112  0.63293764 -0.00016009
   0.70302099  0.01893254 -0.00130672
   0.11161893  0.22305982  0.94317235
   0.22195920  0.10931214  0.05408263
   0.10900725  0.55067776  0.94448354
   0.22094263  0.44011170  0.05698981
   0.11103609  0.88969503  0.95037811
   0.22895924  0.78270354  0.04991045
   0.44280872  0.22097207  0.94946796
   0.55226469  0.11039869  0.04699823
   0.44681150  0.55462426  0.94857505
   0.55695149  0.44709177  0.04862644
   0.44466427  0.88993475  0.95848220
   0.55639578  0.77815358  0.04758041
   0.78016255  0.22919985  0.94891480
   0.89367840  0.11538478  0.05620412
   0.77401821  0.55327039  0.95165212
   0.88193069  0.43728369  0.04984669
   0.78049179  0.88548323  0.94756663
   0.89061668  0.77667089  0.04682839
unknown system                          
           1
     8.369470    4.836189    0.000000
    -8.345948    4.795514    0.000000
     0.000000    0.000000   30.000000
   V    Mo   W    S 
   3   3   3  18
Direct configuration=    21
   0.31680608  0.01657261 -0.00061154
   0.65109075  0.33146043  0.00048499
   0.66227325  0.67040572  0.00085503
   0.31507740  0.32570705 -0.00000277
   1.01512679  0.33187020 -0.00004856
   0.00515772  0.02569679 -0.00008459
   0.01300184  0.65057251  0.00113801
   0.31112502  0.63285300 -0.00018693
   0.70315904  0.01913698 -0.00133600
   0.11184350  0.22339616  0.94315593
   0.22173035  0.10928054  0.05415269
   0.10962623  0.55055071  0.94431281
   0.22103852  0.43995371  0.05701171
   0.11060267  0.88927085  0.95061538
   0.22915859  0.78250099  0.04988490
   0.44250138  0.22081924  0.94934094
   0.55204035  0.11043545  0.04690318
   0.44715887  0.55469200  0.94843926
   0.55700694  0.44734317  0.04872293
   0.44466370  0.89008054  0.95865438
   0.55657252  0.77847640  0.04770882
   0.78016393  0.22942339  0.94898821
   0.89369176  0.11558104  0.05626058
   0.77425459  0.55336770  0.95183380
   0.88149307  0.43665822  0.04990325
   0.78078830  0.88578123  0.94762860
   0.89106132  0.77632782  0.04627488
unknown system                          
           1
     8.365745    4.833264    0.000000
    -8.341747    4.791774    0.000000
     0.000000    0.000000   30.000000
   V    Mo   W    S 
   3   3   3  18
Direct configuration=    22
   0.31674710  0.01667121 -0.00060989
   0.65084109  0.33153640  0.00045579
   0.66151921  0.67017280  0.00084922
   0.31527869  0.32576843  0.00000094
   1.01515397  0.33188387 -0.00004086
   0.00529236  0.02597154 -0.00007320
   0.01320379  0.65024711  0.00115530
   0.31125019  0.63282874 -0.00018675
   0.70321272  0.01920381 -0.00134103
   0.11191346  0.22347783  0.94316015
   0.22168807  0.10927890  0.05416093
   0.10978530  0.55052020  0.94428317
   0.22107020  0.43992960  0.05700450
   0.11051210  0.88916951  0.95067455
   0.22921921  0.78244701  0.04987476
   0.44242816  0.22076932  0.94931247
   0.55198673  0.11045351  0.04687564
   0.44726437  0.55472787  0.94839318
   0.55702660  0.44740285  0.04875611
   0.44466176  0.89011938  0.95869196
   0.55661264  0.77855811  0.04774986
   0.78016533  0.22946796  0.94901363
   0.89367597  0.11560838  0.05626408
   0.77432015  0.55340598  0.95188787
   0.88140052  0.43650678  0.04990924
   0.78085397  0.88585612  0.94765952
   0.89113080  0.77623121  0.04611878
unknown system                          
           1
     8.372998    4.835591    0.000000
    -8.350690    4.797040    0.000000
     0.000000    0.000000   30.000000
   V    Mo   W    S 
   3   3   3  18
Direct configuration=    23
   0.31658628  0.01682355 -0.00060211
   0.65044911  0.33161099  0.00040963
   0.66066664  0.67013066  0.00083964
   0.31537708  0.32572392  0.00001211
   1.01521862  0.33192331 -0.00002846
   0.00544908  0.02642845 -0.00005486
   0.01357200  0.64969297  0.00117549
   0.31137297  0.63271097 -0.00017982
   0.70338183  0.01931163 -0.00134335
   0.11199433  0.22360921  0.94317901
   0.22160727  0.10925026  0.05416211
   0.11003990  0.55046889  0.94422622
   0.22112483  0.43989542  0.05697889
   0.11036758  0.88900394  0.95078162
   0.22928171  0.78233900  0.04984927
   0.44223954  0.22066956  0.94926277
   0.55188934  0.11042769  0.04683110
   0.44741146  0.55475935  0.94834170
   0.55700340  0.44752246  0.04880156
   0.44467398  0.89018802  0.95876592
   0.55669982  0.77872233  0.04780194
   0.78016951  0.22949647  0.94905851
   0.89363422  0.11565473  0.05625376
   0.77445624  0.55347019  0.95196494
   0.88127935  0.43628422  0.04992669
   0.78095869  0.88600972  0.94769726
   0.89130967  0.77608655  0.04588836
unknown system                          
           1
     8.375872    4.835096    0.000000
    -8.354216    4.797692    0.000000
     0.000000    0.000000   30.000000
   V    Mo   W    S 
   3   3   3  18
Direct configuration=    24
   0.31658145  0.01704757 -0.00060723
   0.64991707  0.33183561  0.00034988
   0.65862788  0.66913026  0.00082906
   0.31613760  0.32606266  0.00001298
   1.01526827  0.33194577 -0.00001252
   0.00581379  0.02696096 -0.00003325
   0.01389854  0.64907996  0.00122544
   0.31170575  0.63277082 -0.00018369
   0.70337431  0.01946637 -0.00136555
   0.11218023  0.22376303  0.94317837
   0.22154885  0.10929567  0.05418789
   0.11035381  0.55041992  0.94418722
   0.22118782  0.43985234  0.05697927
   0.11018760  0.88880316  0.95088586
   0.22943891  0.78225243  0.04983582
   0.44222991  0.22061415  0.94922101
   0.55181528  0.11057229  0.04677161
   0.44764829  0.55486955  0.94822214
   0.55713852  0.44759738  0.04887299
   0.44463886  0.89024356  0.95882054