   27   27  100    1
  0.9710400E+02  0.1002848E-08  0.1002848E-08  0.3000000E-08  0.5000000E-15
  1.000000000000000E-004
  CAR 
 unknown system                          
    159     34    120
 
  0.0000000E+00  0.0000000E+00  0.0000000E+00  0.1562500E-01
    1      -17.806567   1.000000
    2      -16.734022   1.000000
    3      -16.673477   1.000000
    4      -16.594249   1.000000
    5      -16.540030   1.000000
    6      -16.492302   1.000000
    7      -16.448121   1.000000
    8      -16.249734   1.000000
    9      -16.143764   1.000000
   10      -16.125791   1.000000
   11      -16.095210   1.000000
   12      -15.986076   1.000000
   13      -15.885907   1.000000
   14      -15.767031   1.000000
   15      -15.621359   1.000000
   16      -15.375735   1.000000
   17      -15.368078   1.000000
   18      -15.217870   1.000000
   19       -9.326238   1.000000
   20       -8.965908   1.000000
   21       -8.947533   1.000000
   22       -8.877367   1.000000
   23       -8.714867   1.000000
   24       -8.693581   1.000000
   25       -8.647897   1.000000
   26       -8.599281   1.000000
   27       -8.498678   1.000000
   28       -8.496903   1.000000
   29       -8.471171   1.000000
   30       -8.468597   1.000000
   31       -8.406488   1.000000
   32       -8.110004   1.000000
   33       -8.054066   1.000000
   34       -8.009514   1.000000
   35       -7.815007   1.000000
   36       -7.750849   1.000000
   37       -7.688037   1.000000
   38       -7.655021   1.000000
   39       -7.430215   1.000000
   40       -7.409974   1.000000
   41       -7.346829   1.000000
   42       -7.221677   1.000000
   43       -7.124919   1.000000
   44       -6.897137   1.000000
   45       -6.808463   1.000000
   46       -6.807798   1.000000
   47       -6.733193   1.000000
   48       -6.658341   1.000000
   49       -6.532815   1.000000
   50       -6.489629   1.000000
   51       -6.415876   1.000000
   52       -6.338454   1.000000
   53       -6.319445   1.000000
   54       -6.271821   1.000000
   55       -6.226762   1.000000
   56       -6.164726   1.000000
   57       -6.082980   1.000000
   58       -5.979754   1.000000
   59       -5.837867   1.000000
   60       -5.546927   1.000000
   61       -5.422785   1.000000
   62       -5.327160   1.000000
   63       -5.275485   1.000000
   64       -5.213236   1.000000
   65       -5.104926   1.000000
   66       -4.986002   1.000000
   67       -4.939372   1.000000
   68       -4.817976   1.000000
   69       -4.812878   1.000000
   70       -4.686265   1.000000
   71       -4.678937   1.000000
   72       -4.596219   1.000000
   73       -4.563227   1.000000
   74       -4.385025   1.000000
   75       -4.088136   1.000000
   76       -3.987090   0.999997
   77       -3.857073   0.999864
   78       -3.582585   0.955380
   79       -3.487288   0.847453
   80       -3.460401   0.798268
   81       -3.221756   0.197101
   82       -2.948083   0.002658
   83       -2.863468   0.000355
   84       -2.733986   0.000008
   85       -2.473921   0.000000
   86       -2.466654   0.000000
   87       -2.396391   0.000000
   88       -2.355944   0.000000
   89       -2.199994   0.000000
   90       -2.191512   0.000000
   91       -1.594248   0.000000
   92       -1.549718   0.000000
   93       -1.453251   0.000000
   94       -1.305992   0.000000
   95       -1.099157   0.000000
   96       -1.080441   0.000000
   97       -1.003093   0.000000
   98       -0.879802   0.000000
   99       -0.778154   0.000000
  100       -0.659075   0.000000
  101       -0.630121   0.000000
  102       -0.555738   0.000000
  103       -0.519244   0.000000
  104       -0.331320   0.000000
  105       -0.218821   0.000000
  106       -0.172864   0.000000
  107       -0.168051   0.000000
  108        0.002522   0.000000
  109        0.036472   0.000000
  110        0.279984   0.000000
  111        0.316450   0.000000
  112        0.644552   0.000000
  113        0.664779   0.000000
  114        0.884878   0.000000
  115        0.943794   0.000000
  116        0.944265   0.000000
  117        1.274841   0.000000
  118        1.643994   0.000000
  119        1.831043   0.000000
  120        2.149502   0.000000
 
  0.1250000E+00  0.2775558E-16  0.0000000E+00  0.3125000E-01
    1      -17.780998   1.000000
    2      -16.795346   1.000000
    3      -16.729496   1.000000
    4      -16.630911   1.000000
    5      -16.565408   1.000000
    6      -16.425643   1.000000
    7      -16.395342   1.000000
    8      -16.311743   1.000000
    9      -16.163984   1.000000
   10      -16.098971   1.000000
   11      -16.019822   1.000000
   12      -15.946696   1.000000
   13      -15.881094   1.000000
   14      -15.751514   1.000000
   15      -15.627717   1.000000
   16      -15.388306   1.000000
   17      -15.374425   1.000000
   18      -15.226372   1.000000
   19       -9.310109   1.000000
   20       -9.169005   1.000000
   21       -9.015642   1.000000
   22       -9.005862   1.000000
   23       -8.756011   1.000000
   24       -8.686042   1.000000
   25       -8.664667   1.000000
   26       -8.561026   1.000000
   27       -8.544127   1.000000
   28       -8.478319   1.000000
   29       -8.398096   1.000000
   30       -8.364367   1.000000
   31       -8.296593   1.000000
   32       -8.020237   1.000000
   33       -7.946162   1.000000
   34       -7.940202   1.000000
   35       -7.821099   1.000000
   36       -7.810576   1.000000
   37       -7.697490   1.000000
   38       -7.499663   1.000000
   39       -7.472749   1.000000
   40       -7.416697   1.000000
   41       -7.293487   1.000000
   42       -7.280454   1.000000
   43       -7.120341   1.000000
   44       -6.957232   1.000000
   45       -6.896474   1.000000
   46       -6.799459   1.000000
   47       -6.723493   1.000000
   48       -6.655210   1.000000
   49       -6.537133   1.000000
   50       -6.518252   1.000000
   51       -6.409245   1.000000
   52       -6.350053   1.000000
   53       -6.339036   1.000000
   54       -6.248745   1.000000
   55       -6.188936   1.000000
   56       -6.150368   1.000000
   57       -6.049907   1.000000
   58       -5.942611   1.000000
   59       -5.785027   1.000000
   60       -5.540904   1.000000
   61       -5.447337   1.000000
   62       -5.380201   1.000000
   63       -5.315036   1.000000
   64       -5.237070   1.000000
   65       -5.174855   1.000000
   66       -5.020951   1.000000
   67       -4.995000   1.000000
   68       -4.895828   1.000000
   69       -4.829455   1.000000
   70       -4.661621   1.000000
   71       -4.586527   1.000000
   72       -4.553029   1.000000
   73       -4.510894   1.000000
   74       -4.348234   1.000000
   75       -4.050831   1.000000
   76       -3.925160   0.999981
   77       -3.891872   0.999949
   78       -3.748518   0.997965
   79       -3.590328   0.960300
   80       -3.336574   0.483993
   81       -3.182543   0.129385
   82       -2.966545   0.003946
   83       -2.827945   0.000138
   84       -2.732070   0.000008
   85       -2.545195   0.000000
   86       -2.420523   0.000000
   87       -2.376675   0.000000
   88       -2.309309   0.000000
   89       -2.200449   0.000000
   90       -2.140240   0.000000
   91       -1.630000   0.000000
   92       -1.530620   0.000000
   93       -1.465898   0.000000
   94       -1.290631   0.000000
   95       -1.110385   0.000000
   96       -1.060182   0.000000
   97       -1.029647   0.000000
   98       -0.884539   0.000000
   99       -0.803342   0.000000
  100       -0.692246   0.000000
  101       -0.671207   0.000000
  102       -0.589679   0.000000
  103       -0.529372   0.000000
  104       -0.419060   0.000000
  105       -0.349405   0.000000
  106       -0.273896   0.000000
  107       -0.224538   0.000000
  108        0.081377   0.000000
  109        0.189495   0.000000
  110        0.230135   0.000000
  111        0.344905   0.000000
  112        0.630878   0.000000
  113        0.687610   0.000000
  114        0.880028   0.000000
  115        0.950174   0.000000
  116        0.973982   0.000000
  117        1.295751   0.000000
  118        1.689604   0.000000
  119        1.868622   0.000000
  120        2.184980   0.000000
 
  0.2500000E+00  0.5551115E-16  0.0000000E+00  0.3125000E-01
    1      -17.705331   1.000000
    2      -16.998171   1.000000
    3      -16.732582   1.000000
    4      -16.701133   1.000000
    5      -16.580651   1.000000
    6      -16.431023   1.000000
    7      -16.351437   1.000000
    8      -16.260655   1.000000
    9      -16.172292   1.000000
   10      -16.055476   1.000000
   11      -15.982458   1.000000
   12      -15.880691   1.000000
   13      -15.837017   1.000000
   14      -15.696162   1.000000
   15      -15.643991   1.000000
   16      -15.426174   1.000000
   17      -15.384411   1.000000
   18      -15.245899   1.000000
   19       -9.498117   1.000000
   20       -9.283404   1.000000
   21       -9.160093   1.000000
   22       -9.105447   1.000000
   23       -8.801568   1.000000
   24       -8.761850   1.000000
   25       -8.677822   1.000000
   26       -8.542236   1.000000
   27       -8.502855   1.000000
   28       -8.431857   1.000000
   29       -8.270510   1.000000
   30       -8.240715   1.000000
   31       -8.122220   1.000000
   32       -8.049727   1.000000
   33       -7.921056   1.000000
   34       -7.840676   1.000000
   35       -7.771089   1.000000
   36       -7.758338   1.000000
   37       -7.575694   1.000000
   38       -7.466908   1.000000
   39       -7.444206   1.000000
   40       -7.402688   1.000000
   41       -7.263390   1.000000
   42       -7.232929   1.000000
   43       -7.156690   1.000000
   44       -6.989351   1.000000
   45       -6.865822   1.000000
   46       -6.857501   1.000000
   47       -6.737589   1.000000
   48       -6.686617   1.000000
   49       -6.536169   1.000000
   50       -6.507753   1.000000
   51       -6.485926   1.000000
   52       -6.349897   1.000000
   53       -6.281477   1.000000
   54       -6.193252   1.000000
   55       -6.130627   1.000000
   56       -6.125156   1.000000
   57       -5.979448   1.000000
   58       -5.897601   1.000000
   59       -5.744598   1.000000
   60       -5.668746   1.000000
   61       -5.562871   1.000000
   62       -5.478679   1.000000
   63       -5.447255   1.000000
   64       -5.328277   1.000000
   65       -5.241971   1.000000
   66       -5.129061   1.000000
   67       -4.918070   1.000000
   68       -4.869178   1.000000
   69       -4.825592   1.000000
   70       -4.691883   1.000000
   71       -4.497539   1.000000
   72       -4.471096   1.000000
   73       -4.370217   1.000000
   74       -4.345578   1.000000
   75       -4.171833   1.000000
   76       -3.983003   0.999997
   77       -3.945119   0.999990
   78       -3.740630   0.997576
   79       -3.605461   0.968641
   80       -3.210716   0.176163
   81       -3.159843   0.098557
   82       -3.014205   0.010180
   83       -2.781827   0.000037
   84       -2.716269   0.000005
   85       -2.587012   0.000000
   86       -2.471246   0.000000
   87       -2.307480   0.000000
   88       -2.195744   0.000000
   89       -2.140252   0.000000
   90       -2.060639   0.000000
   91       -1.688463   0.000000
   92       -1.528415   0.000000
   93       -1.490882   0.000000
   94       -1.261913   0.000000
   95       -1.146139   0.000000
   96       -1.108638   0.000000
   97       -1.002151   0.000000
   98       -0.929876   0.000000
   99       -0.831985   0.000000
  100       -0.818506   0.000000
  101       -0.756136   0.000000
  102       -0.639886   0.000000
  103       -0.573007   0.000000
  104       -0.527817   0.000000
  105       -0.508754   0.000000
  106       -0.392795   0.000000
  107       -0.334356   0.000000
  108        0.099071   0.000000
  109        0.145427   0.000000
  110        0.283366   0.000000
  111        0.344012   0.000000
  112        0.694201   0.000000
  113        0.719409   0.000000
  114        0.894174   0.000000
  115        1.009703   0.000000
  116        1.046441   0.000000
  117        1.333590   0.000000
  118        1.815989   0.000000
  119        1.977761   0.000000
  120        2.290230   0.000000
 
  0.3750000E+00  0.0000000E+00  0.0000000E+00  0.3125000E-01
    1      -17.583319   1.000000
    2      -17.212257   1.000000
    3      -16.777749   1.000000
    4      -16.692286   1.000000
    5      -16.610912   1.000000
    6      -16.463620   1.000000
    7      -16.326125   1.000000
    8      -16.200350   1.000000
    9      -16.163978   1.000000
   10      -16.002595   1.000000
   11      -15.944939   1.000000
   12      -15.845937   1.000000
   13      -15.807588   1.000000
   14      -15.673053   1.000000
   15      -15.645201   1.000000
   16      -15.446585   1.000000
   17      -15.395513   1.000000
   18      -15.264422   1.000000
   19       -9.723432   1.000000
   20       -9.347991   1.000000
   21       -9.272168   1.000000
   22       -9.050484   1.000000
   23       -8.880488   1.000000
   24       -8.790711   1.000000
   25       -8.662022   1.000000
   26       -8.551113   1.000000
   27       -8.422908   1.000000
   28       -8.307884   1.000000
   29       -8.283371   1.000000
   30       -8.155277   1.000000
   31       -8.120689   1.000000
   32       -8.013504   1.000000
   33       -7.903791   1.000000
   34       -7.852694   1.000000
   35       -7.805479   1.000000
   36       -7.698750   1.000000
   37       -7.615823   1.000000
   38       -7.490794   1.000000
   39       -7.413391   1.000000
   40       -7.341607   1.000000
   41       -7.192550   1.000000
   42       -7.104790   1.000000
   43       -7.077831   1.000000
   44       -6.943664   1.000000
   45       -6.857188   1.000000
   46       -6.821861   1.000000
   47       -6.771520   1.000000
   48       -6.592520   1.000000
   49       -6.529209   1.000000
   50       -6.514220   1.000000
   51       -6.402685   1.000000
   52       -6.327055   1.000000
   53       -6.224833   1.000000
   54       -6.169255   1.000000
   55       -6.111236   1.000000
   56       -6.073395   1.000000
   57       -6.008843   1.000000
   58       -5.954561   1.000000
   59       -5.920154   1.000000
   60       -5.759530   1.000000
   61       -5.637349   1.000000
   62       -5.598833   1.000000
   63       -5.546566   1.000000
   64       -5.329852   1.000000
   65       -5.303220   1.000000
   66       -5.146877   1.000000
   67       -4.916650   1.000000
   68       -4.818931   1.000000
   69       -4.784430   1.000000
   70       -4.709726   1.000000
   71       -4.609306   1.000000
   72       -4.425906   1.000000
   73       -4.362217   1.000000
   74       -4.308118   1.000000
   75       -4.212055   1.000000
   76       -4.108450   1.000000
   77       -3.939731   0.999988
   78       -3.570700   0.946886
   79       -3.544029   0.923180
   80       -3.196203   0.150869
   81       -3.114230   0.053443
   82       -3.035169   0.014951
   83       -2.811459   0.000087
   84       -2.676391   0.000001
   85       -2.586073   0.000000
   86       -2.519383   0.000000
   87       -2.231481   0.000000
   88       -2.127134   0.000000
   89       -2.091384   0.000000
   90       -1.955328   0.000000
   91       -1.744226   0.000000
   92       -1.558964   0.000000
   93       -1.489795   0.000000
   94       -1.287953   0.000000
   95       -1.167881   0.000000
   96       -1.159044   0.000000
   97       -1.004435   0.000000
   98       -0.982420   0.000000
   99       -0.898282   0.000000
  100       -0.864261   0.000000
  101       -0.840301   0.000000
  102       -0.708666   0.000000
  103       -0.642025   0.000000
  104       -0.602493   0.000000
  105       -0.536236   0.000000
  106       -0.477029   0.000000
  107       -0.441093   0.000000
  108       -0.021946   0.000000
  109        0.168230   0.000000
  110        0.260778   0.000000
  111        0.304611   0.000000
  112        0.699156   0.000000
  113        0.829718   0.000000
  114        0.940345   0.000000
  115        1.092767   0.000000
  116        1.113606   0.000000
  117        1.366060   0.000000
  118        2.003533   0.000000
  119        2.152195   0.000000
  120        2.462403   0.000000
 
  0.5000000E+00  0.1110223E-15  0.0000000E+00  0.1562500E-01
    1      -17.449569   1.000000
    2      -17.378920   1.000000
    3      -16.795636   1.000000
    4      -16.681254   1.000000
    5      -16.627917   1.000000
    6      -16.474069   1.000000
    7      -16.322169   1.000000
    8      -16.181499   1.000000
    9      -16.155612   1.000000
   10      -16.000079   1.000000
   11      -15.882733   1.000000
   12      -15.834708   1.000000
   13      -15.806930   1.000000
   14      -15.687394   1.000000
   15      -15.656572   1.000000
   16      -15.433633   1.000000
   17      -15.403574   1.000000
   18      -15.271869   1.000000
   19       -9.804450   1.000000
   20       -9.380939   1.000000
   21       -9.312845   1.000000
   22       -9.000354   1.000000
   23       -8.917217   1.000000
   24       -8.745617   1.000000
   25       -8.680699   1.000000
   26       -8.624466   1.000000
   27       -8.333399   1.000000
   28       -8.304175   1.000000
   29       -8.232237   1.000000
   30       -8.122853   1.000000
   31       -8.079165   1.000000
   32       -8.071099   1.000000
   33       -7.933806   1.000000
   34       -7.874830   1.000000
   35       -7.770106   1.000000
   36       -7.751690   1.000000
   37       -7.610951   1.000000
   38       -7.522024   1.000000
   39       -7.437945   1.000000
   40       -7.362376   1.000000
   41       -7.107579   1.000000
   42       -7.047391   1.000000
   43       -6.988133   1.000000
   44       -6.863733   1.000000
   45       -6.853912   1.000000
   46       -6.743362   1.000000
   47       -6.651758   1.000000
   48       -6.645150   1.000000
   49       -6.550796   1.000000
   50       -6.512368   1.000000
   51       -6.482048   1.000000
   52       -6.331075   1.000000
   53       -6.275350   1.000000
   54       -6.206675   1.000000
   55       -6.148996   1.000000
   56       -6.026711   1.000000
   57       -5.980149   1.000000
   58       -5.940946   1.000000
   59       -5.809265   1.000000
   60       -5.735404   1.000000
   61       -5.718410   1.000000
   62       -5.584561   1.000000
   63       -5.574629   1.000000
   64       -5.521037   1.000000
   65       -5.299984   1.000000
   66       -5.141609   1.000000
   67       -5.089698   1.000000
   68       -4.809559   1.000000
   69       -4.748169   1.000000
   70       -4.704651   1.000000
   71       -4.479127   1.000000
   72       -4.475982   1.000000
   73       -4.394565   1.000000
   74       -4.343073   1.000000
   75       -4.216125   1.000000
   76       -4.071882   1.000000
   77       -3.948276   0.999991
   78       -3.563659   0.941278
   79       -3.392038   0.637601
   80       -3.299150   0.380273
   81       -3.101276   0.044196
   82       -2.951582   0.002869
   83       -2.882849   0.000580
   84       -2.644262   0.000000
   85       -2.600451   0.000000
   86       -2.522266   0.000000
   87       -2.194892   0.000000
   88       -2.109718   0.000000
   89       -2.076833   0.000000
   90       -1.909855   0.000000
   91       -1.766889   0.000000
   92       -1.576918   0.000000
   93       -1.483197   0.000000
   94       -1.280277   0.000000
   95       -1.202591   0.000000
   96       -1.195048   0.000000
   97       -1.018229   0.000000
   98       -1.000231   0.000000
   99       -0.902137   0.000000
  100       -0.890567   0.000000
  101       -0.869749   0.000000
  102       -0.736164   0.000000
  103       -0.683129   0.000000
  104       -0.583223   0.000000
  105       -0.578464   0.000000
  106       -0.516464   0.000000
  107       -0.465317   0.000000
  108       -0.068097   0.000000
  109        0.167213   0.000000
  110        0.266065   0.000000
  111        0.268259   0.000000
  112        0.695356   0.000000
  113        0.873274   0.000000
  114        0.964649   0.000000
  115        1.126231   0.000000
  116        1.141500   0.000000
  117        1.378928   0.000000
  118        2.222358   0.000000
  119        2.260242   0.000000
  120        2.380974   0.000000
 
  0.0000000E+00  0.1250000E+00  0.0000000E+00  0.3125000E-01
    1      -17.782222   1.000000
    2      -16.781316   1.000000
    3      -16.729571   1.000000
    4      -16.659593   1.000000
    5      -16.541133   1.000000
    6      -16.455439   1.000000
    7      -16.402638   1.000000
    8      -16.268122   1.000000
    9      -16.145354   1.000000
   10      -16.094508   1.000000
   11      -16.035744   1.000000
   12      -15.969255   1.000000
   13      -15.875463   1.000000
   14      -15.761105   1.000000
   15      -15.631227   1.000000
   16      -15.388366   1.000000
   17      -15.372566   1.000000
   18      -15.221313   1.000000
   19       -9.315703   1.000000
   20       -9.138219   1.000000
   21       -9.012167   1.000000
   22       -8.972232   1.000000
   23       -8.773087   1.000000
   24       -8.733237   1.000000
   25       -8.647122   1.000000
   26       -8.601052   1.000000
   27       -8.535368   1.000000
   28       -8.512303   1.000000
   29       -8.405968   1.000000
   30       -8.300594   1.000000
   31       -8.254831   1.000000
   32       -8.075452   1.000000
   33       -8.018196   1.000000
   34       -7.895895   1.000000
   35       -7.797873   1.000000
   36       -7.750491   1.000000
   37       -7.677550   1.000000
   38       -7.579865   1.000000
   39       -7.502438   1.000000
   40       -7.422591   1.000000
   41       -7.305235   1.000000
   42       -7.213909   1.000000
   43       -7.163459   1.000000
   44       -6.962654   1.000000
   45       -6.848878   1.000000
   46       -6.776938   1.000000
   47       -6.717032   1.000000
   48       -6.672630   1.000000
   49       -6.501753   1.000000
   50       -6.459187   1.000000
   51       -6.426250   1.000000
   52       -6.403756   1.000000
   53       -6.312376   1.000000
   54       -6.280164   1.000000
   55       -6.247221   1.000000
   56       -6.122856   1.000000
   57       -6.058415   1.000000
   58       -5.964614   1.000000
   59       -5.798476   1.000000
   60       -5.525598   1.000000
   61       -5.453021   1.000000
   62       -5.422908   1.000000
   63       -5.333734   1.000000
   64       -5.245979   1.000000
   65       -5.062288   1.000000
   66       -5.040112   1.000000
   67       -4.936796   1.000000
   68       -4.891765   1.000000
   69       -4.802801   1.000000
   70       -4.723849   1.000000
   71       -4.649819   1.000000
   72       -4.569032   1.000000
   73       -4.486674   1.000000
   74       -4.297502   1.000000
   75       -4.078533   1.000000
   76       -3.954739   0.999993
   77       -3.874175   0.999915
   78       -3.696565   0.993884
   79       -3.603279   0.967536
   80       -3.427823   0.727439
   81       -3.124861   0.062126
   82       -2.928513   0.001719
   83       -2.829162   0.000143
   84       -2.720180   0.000005
   85       -2.505242   0.000000
   86       -2.442135   0.000000
   87       -2.373566   0.000000
   88       -2.342093   0.000000
   89       -2.197719   0.000000
   90       -2.154199   0.000000
   91       -1.609632   0.000000
   92       -1.546344   0.000000
   93       -1.448428   0.000000
   94       -1.311165   0.000000
   95       -1.094715   0.000000
   96       -1.070164   0.000000
   97       -1.004839   0.000000
   98       -0.895336   0.000000
   99       -0.818256   0.000000
  100       -0.720830   0.000000
  101       -0.667651   0.000000
  102       -0.600279   0.000000
  103       -0.557062   0.000000
  104       -0.412051   0.000000
  105       -0.333851   0.000000
  106       -0.201633   0.000000
  107       -0.126764   0.000000
  108        0.005339   0.000000
  109        0.121264   0.000000
  110        0.189561   0.000000
  111        0.287162   0.000000
  112        0.676378   0.000000
  113        0.706875   0.000000
  114        0.901583   0.000000
  115        0.943127   0.000000
  116        0.996912   0.000000
  117        1.285903   0.000000
  118        1.686284   0.000000
  119        1.870947   0.000000
  120        2.184309   0.000000
 
  0.1250000E+00  0.1250000E+00  0.0000000E+00  0.3125000E-01
    1      -17.731772   1.000000
    2      -16.922017   1.000000
    3      -16.769057   1.000000
    4      -16.699752   1.000000
    5      -16.526414   1.000000
    6      -16.419708   1.000000
    7      -16.374052   1.000000
    8      -16.274993   1.000000
    9      -16.165850   1.000000
   10      -16.070631   1.000000
   11      -15.994922   1.000000
   12      -15.907335   1.000000
   13      -15.840127   1.000000
   14      -15.728283   1.000000
   15      -15.639811   1.000000
   16      -15.414347   1.000000
   17      -15.379014   1.000000
   18      -15.237031   1.000000
   19       -9.387598   1.000000
   20       -9.273049   1.000000
   21       -9.210093   1.000000
   22       -9.033022   1.000000
   23       -8.797655   1.000000
   24       -8.745897   1.000000
   25       -8.620436   1.000000
   26       -8.542122   1.000000
   27       -8.493742   1.000000
   28       -8.441764   1.000000
   29       -8.373886   1.000000
   30       -8.295464   1.000000
   31       -8.181995   1.000000
   32       -8.040915   1.000000
   33       -7.948189   1.000000
   34       -7.867648   1.000000
   35       -7.738706   1.000000
   36       -7.723400   1.000000
   37       -7.589995   1.000000
   38       -7.510766   1.000000
   39       -7.444887   1.000000
   40       -7.363824   1.000000
   41       -7.346029   1.000000
   42       -7.211475   1.000000
   43       -7.133929   1.000000
   44       -7.054883   1.000000
   45       -6.868591   1.000000
   46       -6.828799   1.000000
   47       -6.737586   1.000000
   48       -6.674330   1.000000
   49       -6.540103   1.000000
   50       -6.490199   1.000000
   51       -6.432759   1.000000
   52       -6.390207   1.000000
   53       -6.306805   1.000000
   54       -6.246787   1.000000
   55       -6.167686   1.000000
   56       -6.123714   1.000000
   57       -5.972946   1.000000
   58       -5.921288   1.000000
   59       -5.742551   1.000000
   60       -5.632081   1.000000
   61       -5.524434   1.000000
   62       -5.448623   1.000000
   63       -5.394076   1.000000
   64       -5.288506   1.000000
   65       -5.223304   1.000000
   66       -5.119160   1.000000
   67       -4.947787   1.000000
   68       -4.881427   1.000000
   69       -4.789528   1.000000
   70       -4.710668   1.000000
   71       -4.588679   1.000000
   72       -4.477450   1.000000
   73       -4.373725   1.000000
   74       -4.287284   1.000000
   75       -4.128005   1.000000
   76       -4.015151   0.999999
   77       -3.848518   0.999828
   78       -3.809251   0.999520
   79       -3.633900   0.980409
   80       -3.311402   0.413663
   81       -3.103837   0.045914
   82       -2.966664   0.003956
   83       -2.781138   0.000036
   84       -2.709450   0.000004
   85       -2.563538   0.000000
   86       -2.451347   0.000000
   87       -2.336747   0.000000
   88       -2.248215   0.000000
   89       -2.165738   0.000000
   90       -2.087933   0.000000
   91       -1.656160   0.000000
   92       -1.529409   0.000000
   93       -1.479565   0.000000
   94       -1.284929   0.000000
   95       -1.119895   0.000000
   96       -1.082913   0.000000
   97       -1.019664   0.000000
   98       -0.916977   0.000000
   99       -0.842236   0.000000
  100       -0.794902   0.000000
  101       -0.730288   0.000000
  102       -0.642967   0.000000
  103       -0.559760   0.000000
  104       -0.534233   0.000000
  105       -0.476566   0.000000
  106       -0.281646   0.000000
  107       -0.234220   0.000000
  108        0.052511   0.000000
  109        0.138706   0.000000
  110        0.244298   0.000000
  111        0.300948   0.000000
  112        0.676541   0.000000
  113        0.727648   0.000000
  114        0.907755   0.000000
  115        0.961017   0.000000
  116        1.064865   0.000000
  117        1.323852   0.000000
  118        1.772414   0.000000
  119        1.944148   0.000000
  120        2.254641   0.000000
 
  0.2500000E+00  0.1250000E+00  0.0000000E+00  0.3125000E-01
    1      -17.633238   1.000000
    2      -17.104190   1.000000
    3      -16.872402   1.000000
    4      -16.694688   1.000000
    5      -16.504711   1.000000
    6      -16.427113   1.000000
    7      -16.340330   1.000000
    8      -16.243755   1.000000
    9      -16.159261   1.000000
   10      -16.035961   1.000000
   11      -15.958275   1.000000
   12      -15.881918   1.000000
   13      -15.805236   1.000000
   14      -15.672856   1.000000
   15      -15.643314   1.000000
   16      -15.444687   1.000000
   17      -15.388287   1.000000
   18      -15.255937   1.000000
   19       -9.612852   1.000000
   20       -9.407887   1.000000
   21       -9.285509   1.000000
   22       -9.057658   1.000000
   23       -8.793308   1.000000
   24       -8.734636   1.000000
   25       -8.612706   1.000000
   26       -8.508007   1.000000
   27       -8.461347   1.000000
   28       -8.369814   1.000000
   29       -8.277239   1.000000
   30       -8.216695   1.000000
   31       -8.130784   1.000000
   32       -8.095798   1.000000
   33       -7.977337   1.000000
   34       -7.897170   1.000000
   35       -7.790211   1.000000
   36       -7.642690   1.000000
   37       -7.565953   1.000000
   38       -7.461613   1.000000
   39       -7.385098   1.000000
   40       -7.292562   1.000000
   41       -7.248261   1.000000
   42       -7.176555   1.000000
   43       -7.128873   1.000000
   44       -6.964341   1.000000
   45       -6.867265   1.000000
   46       -6.799854   1.000000
   47       -6.751114   1.000000