       N       E                     dE             d eps       ncg     rms          rms(c)
DAV:   1     0.112430369404E+04    0.11243E+04   -0.35860E+04  8160   0.577E+02
DAV:   2    -0.254437805173E+01   -0.11268E+04   -0.10860E+04 10920   0.173E+02
DAV:   3    -0.199426785589E+03   -0.19688E+03   -0.18881E+03 10880   0.820E+01
DAV:   4    -0.208938915904E+03   -0.95121E+01   -0.91745E+01 12160   0.263E+01
DAV:   5    -0.209272878329E+03   -0.33396E+00   -0.33294E+00 11640   0.361E+00    0.274E+01
DAV:   6    -0.237428254398E+03   -0.28155E+02   -0.10890E+02 12720   0.605E+01    0.593E+01
DAV:   7    -0.196709662697E+03    0.40719E+02   -0.17839E+02 13280   0.151E+02    0.206E+01
DAV:   8    -0.190358884345E+03    0.63508E+01   -0.21148E+01 11480   0.134E+01    0.140E+01
DAV:   9    -0.188344380686E+03    0.20145E+01   -0.40732E+00 11920   0.633E+00    0.934E+00
DAV:  10    -0.187127641816E+03    0.12167E+01   -0.16148E+00 13240   0.758E+00    0.286E+00
DAV:  11    -0.187114003644E+03    0.13638E-01   -0.63090E-01 12200   0.229E+00    0.299E+00
DAV:  12    -0.187144207818E+03   -0.30204E-01   -0.76266E-01 12120   0.391E+00    0.412E+00
DAV:  13    -0.186990502613E+03    0.15371E+00   -0.36582E-01 13120   0.350E+00    0.175E+00
DAV:  14    -0.186957927392E+03    0.32575E-01   -0.75948E-02 13000   0.162E+00    0.599E-01
DAV:  15    -0.186956883552E+03    0.10438E-02   -0.16733E-02 12840   0.666E-01    0.740E-01
DAV:  16    -0.186953538576E+03    0.33450E-02   -0.11180E-02 13520   0.596E-01    0.397E-01
DAV:  17    -0.186951505771E+03    0.20328E-02   -0.57999E-03 12840   0.369E-01    0.195E-01
DAV:  18    -0.186951234690E+03    0.27108E-03   -0.12313E-03 11960   0.145E-01    0.861E-02
DAV:  19    -0.186951296560E+03   -0.61870E-04   -0.50723E-04  8800   0.668E-02
   1 F= -.18695130E+03 E0= -.18678040E+03  d E =-.186951E+03
       N       E                     dE             d eps       ncg     rms          rms(c)
DAV:   1    -0.187578315927E+03   -0.62708E+00   -0.26882E+02  8160   0.348E+01    0.474E+00
DAV:   2    -0.189801754818E+03   -0.22234E+01   -0.20544E+01 12040   0.164E+01    0.113E+01
DAV:   3    -0.189320058205E+03    0.48170E+00   -0.47607E+00 12240   0.131E+01    0.598E+00
DAV:   4    -0.188829977486E+03    0.49008E+00   -0.58354E-01 12520   0.399E+00    0.201E+00
DAV:   5    -0.188913793293E+03   -0.83816E-01   -0.42342E-01 11880   0.334E+00    0.470E+00
DAV:   6    -0.188840308129E+03    0.73485E-01   -0.71816E-01 12160   0.432E+00    0.308E+00
DAV:   7    -0.188742221597E+03    0.98087E-01   -0.22806E-01 12360   0.197E+00    0.102E+00
DAV:   8    -0.188741320943E+03    0.90065E-03   -0.74667E-02 11600   0.137E+00    0.144E+00
DAV:   9    -0.188727107224E+03    0.14214E-01   -0.38647E-02 11440   0.109E+00    0.591E-01
DAV:  10    -0.188724163662E+03    0.29436E-02   -0.71999E-03 11080   0.357E-01    0.243E-01
DAV:  11    -0.188723928699E+03    0.23496E-03   -0.25986E-03 12000   0.188E-01    0.122E-01
DAV:  12    -0.188723893892E+03    0.34807E-04   -0.11715E-03 10840   0.105E-01    0.767E-02
DAV:  13    -0.188724052657E+03   -0.15876E-03   -0.24208E-04  6040   0.587E-02    0.220E-02
DAV:  14    -0.188724220952E+03   -0.16829E-03   -0.82569E-05  6920   0.292E-02    0.342E-02
DAV:  15    -0.188724317010E+03   -0.96058E-04   -0.38089E-05  6200   0.210E-02
   2 F= -.18872432E+03 E0= -.18858597E+03  d E =-.177302E+01
       N       E                     dE             d eps       ncg     rms          rms(c)
DAV:   1    -0.190668167494E+03   -0.19439E+01   -0.31525E+01  9040   0.143E+01    0.445E+00
DAV:   2    -0.190596167366E+03    0.72000E-01   -0.27570E+00 11840   0.933E+00    0.714E+00
DAV:   3    -0.190154433310E+03    0.44173E+00   -0.13485E+00 12160   0.860E+00    0.435E+00
DAV:   4    -0.189933635220E+03    0.22080E+00   -0.73630E-01 12960   0.432E+00    0.251E+00
DAV:   5    -0.189893261420E+03    0.40374E-01   -0.36913E-01 12240   0.277E+00    0.250E+00
DAV:   6    -0.189835609406E+03    0.57652E-01   -0.12823E-01 12360   0.218E+00    0.776E-01
DAV:   7    -0.189828833719E+03    0.67757E-02   -0.14039E-02 11600   0.553E-01    0.209E-01
DAV:   8    -0.189828791252E+03    0.42466E-04   -0.26490E-03 11240   0.160E-01    0.150E-01
DAV:   9    -0.189829053982E+03   -0.26273E-03   -0.12141E-03 10720   0.184E-01    0.193E-01
DAV:  10    -0.189829393351E+03   -0.33937E-03   -0.17327E-03 10120   0.278E-01    0.243E-01
DAV:  11    -0.189828818383E+03    0.57497E-03   -0.85192E-04  8840   0.175E-01    0.205E-02
DAV:  12    -0.189828866084E+03   -0.47701E-04   -0.81137E-05  5880   0.303E-02
   3 F= -.18982887E+03 E0= -.18971180E+03  d E =-.110455E+01
       N       E                     dE             d eps       ncg     rms          rms(c)
DAV:   1    -0.191435962978E+03   -0.16071E+01   -0.78461E+01  8160   0.202E+01    0.465E+00
DAV:   2    -0.191219467653E+03    0.21650E+00   -0.54058E+00 13320   0.747E+00    0.441E+00
DAV:   3    -0.191439915577E+03   -0.22045E+00   -0.16251E+00 12040   0.911E+00    0.755E+00
DAV:   4    -0.191041863563E+03    0.39805E+00   -0.18838E+00 11680   0.860E+00    0.410E+00
DAV:   5    -0.191029185968E+03    0.12678E-01   -0.85857E-01 11600   0.578E+00    0.367E+00
DAV:   6    -0.190840116675E+03    0.18907E+00   -0.22126E-01 11200   0.310E+00    0.679E-01
DAV:   7    -0.190836824344E+03    0.32923E-02   -0.37326E-02 11600   0.696E-01    0.464E-01
DAV:   8    -0.190834098701E+03    0.27256E-02   -0.73548E-03 10640   0.430E-01    0.284E-01
DAV:   9    -0.190833841104E+03    0.25760E-03   -0.24481E-03 11600   0.330E-01    0.202E-01
DAV:  10    -0.190833944051E+03   -0.10295E-03   -0.13850E-03 11840   0.179E-01    0.103E-01
DAV:  11    -0.190833808220E+03    0.13583E-03   -0.51732E-04  9760   0.906E-02    0.425E-02
DAV:  12    -0.190833813151E+03   -0.49305E-05   -0.10414E-04  6600   0.402E-02
   4 F= -.19083381E+03 E0= -.19073195E+03  d E =-.100495E+01
       N       E                     dE             d eps       ncg     rms          rms(c)
DAV:   1    -0.192160814182E+03   -0.13270E+01   -0.15798E+02  8160   0.280E+01    0.555E+00
DAV:   2    -0.191900128175E+03    0.26069E+00   -0.89593E+00 10840   0.758E+00    0.365E+00
DAV:   3    -0.192183364924E+03   -0.28324E+00   -0.23478E+00 12360   0.920E+00    0.711E+00
DAV:   4    -0.191719784507E+03    0.46358E+00   -0.15497E+00 12360   0.916E+00    0.371E+00
DAV:   5    -0.191536991971E+03    0.18279E+00   -0.43070E-01 11560   0.387E+00    0.155E+00
DAV:   6    -0.191532213287E+03    0.47787E-02   -0.18574E-01 12680   0.297E+00    0.166E+00
DAV:   7    -0.191503942147E+03    0.28271E-01   -0.62060E-02 12520   0.173E+00    0.415E-01
DAV:   8    -0.191500795012E+03    0.31471E-02   -0.75243E-03 11200   0.435E-01    0.245E-01
DAV:   9    -0.191501191719E+03   -0.39671E-03   -0.40033E-03 11840   0.408E-01    0.297E-01
DAV:  10    -0.191500653537E+03    0.53818E-03   -0.27436E-03 11640   0.267E-01    0.713E-02
DAV:  11    -0.191500624683E+03    0.28854E-04   -0.38213E-04  9560   0.752E-02
   5 F= -.19150062E+03 E0= -.19139889E+03  d E =-.666812E+00
       N       E                     dE             d eps       ncg     rms          rms(c)
DAV:   1    -0.191565542454E+03   -0.64889E-01   -0.61858E+00  8160   0.523E+00    0.676E-01
DAV:   2    -0.191630635678E+03   -0.65093E-01   -0.28321E-01 12840   0.292E+00    0.219E+00
DAV:   3    -0.191577676814E+03    0.52959E-01   -0.98830E-02 12680   0.235E+00    0.382E-01
DAV:   4    -0.191578882043E+03   -0.12052E-02   -0.12287E-02 11640   0.616E-01    0.593E-01
DAV:   5    -0.191576083722E+03    0.27983E-02   -0.92111E-03 11720   0.597E-01    0.244E-01
DAV:   6    -0.191575762555E+03    0.32117E-03   -0.22895E-03 10520   0.231E-01    0.128E-01
DAV:   7    -0.191575738972E+03    0.23583E-04   -0.13592E-03 11040   0.193E-01    0.159E-01
DAV:   8    -0.191575514790E+03    0.22418E-03   -0.67479E-04  8920   0.166E-01    0.450E-02
DAV:   9    -0.191575527541E+03   -0.12750E-04   -0.75285E-05  6320   0.460E-02
   6 F= -.19157553E+03 E0= -.19147092E+03  d E =-.749029E-01
       N       E                     dE             d eps       ncg     rms          rms(c)
DAV:   1    -0.191652173922E+03   -0.76659E-01   -0.95736E+00  8160   0.649E+00    0.850E-01
DAV:   2    -0.191761120768E+03   -0.10895E+00   -0.39243E-01 13360   0.384E+00    0.303E+00
DAV:   3    -0.191664392698E+03    0.96728E-01   -0.18999E-01 12360   0.312E+00    0.551E-01
DAV:   4    -0.191669211685E+03   -0.48190E-02   -0.31892E-02 11440   0.103E+00    0.983E-01
DAV:   5    -0.191660907106E+03    0.83046E-02   -0.20020E-02 11600   0.842E-01    0.229E-01
DAV:   6    -0.191660578434E+03    0.32867E-03   -0.28470E-03 10120   0.216E-01    0.131E-01
DAV:   7    -0.191660273438E+03    0.30500E-03   -0.10882E-03 10400   0.112E-01    0.415E-02
DAV:   8    -0.191660292889E+03   -0.19452E-04   -0.19623E-04  7040   0.748E-02
   7 F= -.19166029E+03 E0= -.19155336E+03  d E =-.847653E-01
       N       E                     dE             d eps       ncg     rms          rms(c)
DAV:   1    -0.191694486591E+03   -0.34213E-01   -0.17155E+00  8160   0.276E+00    0.358E-01
DAV:   2    -0.191712048108E+03   -0.17562E-01   -0.68418E-02 13480   0.153E+00    0.120E+00
DAV:   3    -0.191696622203E+03    0.15426E-01   -0.29591E-02 11920   0.124E+00    0.252E-01
DAV:   4    -0.191697705061E+03   -0.10829E-02   -0.65787E-03 11200   0.469E-01    0.436E-01
DAV:   5    -0.191696023591E+03    0.16815E-02   -0.38934E-03 10360   0.379E-01    0.103E-01
DAV:   6    -0.191696150346E+03   -0.12676E-03   -0.93435E-04 10080   0.169E-01    0.147E-01
DAV:   7    -0.191696106930E+03    0.43416E-04   -0.11207E-03  8600   0.218E-01    0.127E-01
DAV:   8    -0.191695931066E+03    0.17586E-03   -0.31186E-04  6800   0.110E-01    0.126E-02
DAV:   9    -0.191695945660E+03   -0.14595E-04   -0.43641E-05  6560   0.227E-02
   8 F= -.19169595E+03 E0= -.19158859E+03  d E =-.356528E-01
       N       E                     dE             d eps       ncg     rms          rms(c)
DAV:   1    -0.191803122785E+03   -0.10719E+00   -0.25849E+01  8160   0.107E+01    0.129E+00
DAV:   2    -0.192019850564E+03   -0.21673E+00   -0.92165E-01 13200   0.541E+00    0.435E+00
DAV:   3    -0.191846734374E+03    0.17312E+00   -0.48626E-01 12280   0.453E+00    0.119E+00
DAV:   4    -0.191851586146E+03   -0.48518E-02   -0.10042E-01 12080   0.190E+00    0.155E+00
DAV:   5    -0.191829438285E+03    0.22148E-01   -0.50118E-02 12240   0.134E+00    0.364E-01
DAV:   6    -0.191828661018E+03    0.77727E-03   -0.92852E-03 11000   0.410E-01    0.289E-01
DAV:   7    -0.191830943641E+03   -0.22826E-02   -0.11387E-02 11600   0.697E-01    0.598E-01
DAV:   8    -0.191827375871E+03    0.35678E-02   -0.63411E-03 10840   0.532E-01    0.625E-02
DAV:   9    -0.191827394610E+03   -0.18739E-04   -0.34741E-04  8400   0.662E-02
   9 F= -.19182739E+03 E0= -.19172086E+03  d E =-.131449E+00
       N       E                     dE             d eps       ncg     rms          rms(c)
DAV:   1    -0.191896897599E+03   -0.69522E-01   -0.12054E+01  8160   0.741E+00    0.945E-01
DAV:   2    -0.191995488886E+03   -0.98591E-01   -0.49936E-01 13280   0.371E+00    0.298E+00
DAV:   3    -0.191921399919E+03    0.74089E-01   -0.23455E-01 12200   0.302E+00    0.978E-01
DAV:   4    -0.191924160730E+03   -0.27608E-02   -0.61707E-02 11200   0.155E+00    0.119E+00
DAV:   5    -0.191909729676E+03    0.14431E-01   -0.28204E-02 12240   0.107E+00    0.267E-01
DAV:   6    -0.191909656808E+03    0.72868E-04   -0.69686E-03 10320   0.367E-01    0.275E-01
DAV:   7    -0.191910495781E+03   -0.83897E-03   -0.71392E-03 11200   0.571E-01    0.428E-01
DAV:   8    -0.191908596979E+03    0.18988E-02   -0.31929E-03  9880   0.378E-01    0.459E-02
DAV:   9    -0.191908607462E+03   -0.10483E-04   -0.19977E-04  6360   0.496E-02
  10 F= -.19190861E+03 E0= -.19180308E+03  d E =-.812129E-01
       N       E                     dE             d eps       ncg     rms          rms(c)
DAV:   1    -0.191961314710E+03   -0.52718E-01   -0.18630E+01  8160   0.920E+00    0.103E+00
DAV:   2    -0.192060962622E+03   -0.99648E-01   -0.67837E-01 13120   0.362E+00    0.274E+00
DAV:   3    -0.192006003913E+03    0.54959E-01   -0.24619E-01 12080   0.300E+00    0.117E+00
DAV:   4    -0.192007353410E+03   -0.13495E-02   -0.68067E-02 11360   0.174E+00    0.128E+00
DAV:   5    -0.191989478806E+03    0.17875E-01   -0.29869E-02 11880   0.124E+00    0.305E-01
DAV:   6    -0.191989239350E+03    0.23946E-03   -0.81998E-03 11680   0.340E-01    0.203E-01
DAV:   7    -0.191988300967E+03    0.93838E-03   -0.25676E-03 10800   0.204E-01    0.938E-02
DAV:   8    -0.191988411578E+03   -0.11061E-03   -0.86522E-04 10520   0.187E-01    0.137E-01
DAV:   9    -0.191988219044E+03    0.19253E-03   -0.40380E-04  7800   0.134E-01    0.390E-02
DAV:  10    -0.191988195564E+03    0.23480E-04   -0.10472E-04  5760   0.397E-02
  11 F= -.19198820E+03 E0= -.19188509E+03  d E =-.795881E-01
       N       E                     dE             d eps       ncg     rms          rms(c)
DAV:   1    -0.191974818959E+03    0.13400E-01   -0.15199E+00  8160   0.260E+00    0.263E-01
DAV:   2    -0.191979393286E+03   -0.45743E-02   -0.40256E-02 11320   0.675E-01    0.548E-01
DAV:   3    -0.191977349191E+03    0.20441E-02   -0.11760E-02 11320   0.688E-01    0.388E-01
DAV:   4    -0.191976485958E+03    0.86323E-03   -0.40605E-03 11400   0.366E-01    0.225E-01
DAV:   5    -0.191976078802E+03    0.40716E-03   -0.14790E-03  9840   0.299E-01    0.129E-01
DAV:   6    -0.191975916082E+03    0.16272E-03   -0.71049E-04 10160   0.159E-01    0.643E-02
DAV:   7    -0.191975864245E+03    0.51837E-04   -0.23842E-04  8440   0.775E-02
  12 F= -.19197586E+03 E0= -.19187181E+03  d E =0.123313E-01
       N       E                     dE             d eps       ncg     rms          rms(c)
DAV:   1    -0.191998475663E+03   -0.22560E-01   -0.17817E+00  8160   0.286E+00    0.310E-01
DAV:   2    -0.192004479610E+03   -0.60039E-02   -0.61355E-02 12480   0.886E-01    0.533E-01
DAV:   3    -0.192002873495E+03    0.16061E-02   -0.11710E-02 12080   0.778E-01    0.385E-01
DAV:   4    -0.192002435241E+03    0.43825E-03   -0.53890E-03 10080   0.481E-01    0.356E-01
DAV:   5    -0.192001205680E+03    0.12296E-02   -0.27012E-03  9840   0.371E-01    0.124E-01
DAV:   6    -0.192001734414E+03   -0.52873E-03   -0.18416E-03 10120   0.272E-01    0.258E-01
DAV:   7    -0.192001114977E+03    0.61944E-03   -0.14260E-03  9640   0.263E-01    0.652E-02
DAV:   8    -0.192001065397E+03    0.49580E-04   -0.11019E-04  5640   0.593E-02
  13 F= -.19200107E+03 E0= -.19189822E+03  d E =-.252012E-01
       N       E                     dE             d eps       ncg     rms          rms(c)
DAV:   1    -0.192015636268E+03   -0.14521E-01   -0.62131E-01  8160   0.170E+00    0.205E-01
DAV:   2    -0.192017081669E+03   -0.14454E-02   -0.23556E-02 11200   0.464E-01    0.201E-01
DAV:   3    -0.192017430506E+03   -0.34884E-03   -0.30050E-03 12120   0.443E-01    0.271E-01
DAV:   4    -0.192016547185E+03    0.88332E-03   -0.15026E-03 10240   0.300E-01    0.107E-01
DAV:   5    -0.192016737932E+03   -0.19075E-03   -0.10153E-03  8720   0.219E-01    0.179E-01
DAV:   6    -0.192016459782E+03    0.27815E-03   -0.73846E-04  8240   0.177E-01    0.595E-02
DAV:   7    -0.192016486023E+03   -0.26241E-04   -0.25089E-04  5800   0.105E-01
  14 F= -.19201649E+03 E0= -.19191426E+03  d E =-.154206E-01
       N       E                     dE             d eps       ncg     rms          rms(c)
DAV:   1    -0.192044003147E+03   -0.27543E-01   -0.26979E+00  8160   0.354E+00    0.405E-01
DAV:   2    -0.192051318455E+03   -0.73153E-02   -0.98000E-02 11760   0.939E-01    0.529E-01
DAV:   3    -0.192053328261E+03   -0.20098E-02   -0.21096E-02 12240   0.978E-01    0.732E-01
DAV:   4    -0.192048690029E+03    0.46382E-02   -0.97045E-03 11040   0.629E-01    0.248E-01
DAV:   5    -0.192048506658E+03    0.18337E-03   -0.22607E-03 10200   0.411E-01    0.217E-01
DAV:   6    -0.192048251850E+03    0.25481E-03   -0.20051E-03 12000   0.281E-01    0.162E-01
DAV:   7    -0.192048038162E+03    0.21369E-03   -0.93007E-04  8960   0.214E-01    0.876E-02
DAV:   8    -0.192047948293E+03    0.89869E-04   -0.16617E-04  5880   0.847E-02
  15 F= -.19204795E+03 E0= -.19194808E+03  d E =-.314623E-01
       N       E                     dE             d eps       ncg     rms          rms(c)
DAV:   1    -0.192068666464E+03   -0.20628E-01   -0.13297E+00  8160   0.249E+00    0.300E-01
DAV:   2    -0.192072820074E+03   -0.41536E-02   -0.48696E-02 11280   0.688E-01    0.472E-01
DAV:   3    -0.192072505956E+03    0.31412E-03   -0.11662E-02 12000   0.729E-01    0.463E-01
DAV:   4    -0.192070453606E+03    0.20523E-02   -0.37797E-03 11040   0.386E-01    0.124E-01
DAV:   5    -0.192070781105E+03   -0.32750E-03   -0.15352E-03 10040   0.301E-01    0.212E-01
DAV:   6    -0.192070373937E+03    0.40717E-03   -0.11222E-03 10560   0.247E-01    0.949E-02
DAV:   7    -0.192070342311E+03    0.31626E-04   -0.48335E-04  8600   0.155E-01
  16 F= -.19207034E+03 E0= -.19197199E+03  d E =-.223940E-01
       N       E                     dE             d eps       ncg     rms          rms(c)
DAV:   1    -0.192077613002E+03   -0.72391E-02   -0.15162E-01  8160   0.841E-01    0.115E-01
DAV:   2    -0.192078748136E+03   -0.11351E-02   -0.68703E-03 11480   0.361E-01    0.311E-01
DAV:   3    -0.192077898999E+03    0.84914E-03   -0.23244E-03 11480   0.333E-01    0.106E-01
DAV:   4    -0.192077861149E+03    0.37850E-04   -0.33492E-04  8000   0.124E-01
  17 F= -.19207786E+03 E0= -.19198007E+03  d E =-.751884E-02
       N       E                     dE             d eps       ncg     rms          rms(c)
DAV:   1    -0.192040632216E+03    0.37267E-01   -0.33027E+00  8160   0.393E+00    0.512E-01
DAV:   2    -0.192063071444E+03   -0.22439E-01   -0.13136E-01 11240   0.154E+00    0.148E+00
DAV:   3    -0.192047068206E+03    0.16003E-01   -0.61415E-02 12000   0.152E+00    0.556E-01
DAV:   4    -0.192047229284E+03   -0.16108E-03   -0.12325E-02 10920   0.771E-01    0.553E-01
DAV:   5    -0.192043503803E+03    0.37255E-02   -0.56435E-03 10960   0.626E-01    0.151E-01
DAV:   6    -0.192043456026E+03    0.47777E-04   -0.17606E-03 12480   0.189E-01    0.131E-01
DAV:   7    -0.192043541944E+03   -0.85917E-04   -0.15134E-03 10840   0.263E-01    0.184E-01
DAV:   8    -0.192043189505E+03    0.35244E-03   -0.64280E-04  8520   0.177E-01    0.285E-02
DAV:   9    -0.192043194977E+03   -0.54720E-05   -0.45960E-05  5840   0.297E-02
  18 F= -.19204319E+03 E0= -.19194279E+03  d E =0.346662E-01
       N       E                     dE             d eps       ncg     rms          rms(c)
DAV:   1    -0.192028096349E+03    0.15093E-01   -0.96368E-01  8160   0.212E+00    0.286E-01
DAV:   2    -0.192037895343E+03   -0.97990E-02   -0.39960E-02 12080   0.103E+00    0.101E+00
DAV:   3    -0.192029408708E+03    0.84866E-02   -0.20991E-02 12040   0.926E-01    0.274E-01
DAV:   4    -0.192029695324E+03   -0.28662E-03   -0.39663E-03 10760   0.440E-01    0.312E-01
DAV:   5    -0.192028644606E+03    0.10507E-02   -0.19727E-03 10000   0.341E-01    0.107E-01
DAV:   6    -0.192028849358E+03   -0.20475E-03   -0.10771E-03  9720   0.221E-01    0.184E-01
DAV:   7    -0.192028561958E+03    0.28740E-03   -0.88120E-04  8880   0.214E-01    0.659E-02
DAV:   8    -0.192028503679E+03    0.58279E-04   -0.11609E-04  5720   0.641E-02
  19 F= -.19202850E+03 E0= -.19192619E+03  d E =0.146913E-01
       N       E                     dE             d eps       ncg     rms          rms(c)
DAV:   1    -0.191989076374E+03    0.39486E-01   -0.11635E+01  8160   0.740E+00    0.948E-01
DAV:   2    -0.192103996456E+03   -0.11492E+00   -0.49062E-01 12160   0.324E+00    0.392E+00
DAV:   3    -0.192010631963E+03    0.93364E-01   -0.30756E-01 12360   0.309E+00    0.962E-01
DAV:   4    -0.192012430662E+03   -0.17987E-02   -0.49693E-02 10640   0.149E+00    0.105E+00
DAV:   5    -0.191998986893E+03    0.13444E-01   -0.21062E-02 11560   0.116E+00    0.347E-01
DAV:   6    -0.192001847536E+03   -0.28606E-02   -0.13313E-02 12160   0.755E-01    0.665E-01
DAV:   7    -0.191998181243E+03    0.36663E-02   -0.11504E-02 11200   0.753E-01    0.236E-01
DAV:   8    -0.191997312176E+03    0.86907E-03   -0.15977E-03 10240   0.215E-01    0.415E-02
DAV:   9    -0.191997308527E+03    0.36489E-05   -0.18853E-04  7680   0.461E-02
  20 F= -.19199731E+03 E0= -.19189326E+03  d E =0.311952E-01
       N       E                     dE             d eps       ncg     rms          rms(c)
DAV:   1    -0.192014986084E+03   -0.17674E-01   -0.36285E+00  8160   0.416E+00    0.509E-01
DAV:   2    -0.192021191584E+03   -0.62055E-02   -0.11686E-01 10880   0.997E-01    0.528E-01
DAV:   3    -0.192025246922E+03   -0.40553E-02   -0.28800E-02 11680   0.116E+00    0.866E-01
DAV:   4    -0.192017704240E+03    0.75427E-02   -0.15595E-02 11720   0.867E-01    0.246E-01
DAV:   5    -0.192017853908E+03   -0.14967E-03   -0.46564E-03 10600   0.438E-01    0.343E-01
DAV:   6    -0.192017370881E+03    0.48303E-03   -0.53136E-03 12080   0.478E-01    0.281E-01
DAV:   7    -0.192017116126E+03    0.25476E-03   -0.27373E-03  9800   0.324E-01    0.217E-01
DAV:   8    -0.192016619214E+03    0.49691E-03   -0.73188E-04  8480   0.194E-01    0.295E-02
DAV:   9    -0.192016610245E+03    0.89687E-05   -0.62842E-05  6640   0.313E-02
  21 F= -.19201661E+03 E0= -.19191202E+03  d E =-.193017E-01
       N       E                     dE             d eps       ncg     rms          rms(c)
DAV:   1    -0.192025127410E+03   -0.85082E-02   -0.46983E-01  8160   0.146E+00    0.172E-01
DAV:   2    -0.192028127395E+03   -0.30000E-02   -0.20911E-02 11320   0.541E-01    0.488E-01
DAV:   3    -0.192026400392E+03    0.17270E-02   -0.66427E-03 11200   0.483E-01    0.189E-01
DAV:   4    -0.192026181692E+03    0.21870E-03   -0.90738E-04  8800   0.167E-01    0.108E-01
DAV:   5    -0.192026181358E+03    0.33367E-06   -0.67423E-04  9280   0.185E-01
  22 F= -.19202618E+03 E0= -.19192211E+03  d E =-.957111E-02
       N       E                     dE             d eps       ncg     rms          rms(c)
DAV:   1    -0.192030443146E+03   -0.42615E-02   -0.10380E-01  8160   0.708E-01    0.102E-01
DAV:   2    -0.192030885064E+03   -0.44192E-03   -0.40911E-03 12360   0.230E-01    0.177E-01
DAV:   3    -0.192030656118E+03    0.22895E-03   -0.13478E-03 11040   0.258E-01    0.127E-01
DAV:   4    -0.192030546065E+03    0.11005E-03   -0.47923E-04  8440   0.142E-01    0.699E-02
DAV:   5    -0.192030530719E+03    0.15345E-04   -0.23125E-04  7800   0.118E-01
  23 F= -.19203053E+03 E0= -.19192683E+03  d E =-.434936E-02
       N       E                     dE             d eps       ncg     rms          rms(c)
DAV:   1    -0.192045998091E+03   -0.15452E-01   -0.14438E+00  8160   0.260E+00    0.313E-01
DAV:   2    -0.192050709883E+03   -0.47118E-02   -0.55039E-02 11680   0.760E-01    0.470E-01
DAV:   3    -0.192050246565E+03    0.46332E-03   -0.11856E-02 12120   0.765E-01    0.432E-01
DAV:   4    -0.192048291514E+03    0.19551E-02   -0.36213E-03 10880   0.407E-01    0.147E-01
DAV:   5    -0.192048935876E+03   -0.64436E-03   -0.24086E-03 10400   0.328E-01    0.308E-01
DAV:   6    -0.192048251006E+03    0.68487E-03   -0.20727E-03  9640   0.289E-01    0.125E-01
DAV:   7    -0.192048105232E+03    0.14577E-03   -0.50966E-04  8400   0.171E-01    0.677E-02
DAV:   8    -0.192048052673E+03    0.52559E-04   -0.95963E-05  7320   0.774E-02
  24 F= -.19204805E+03 E0= -.19194496E+03  d E =-.175220E-01
       N       E                     dE             d eps       ncg     rms          rms(c)
DAV:   1    -0.192053497335E+03   -0.53921E-02   -0.14065E-01  8160   0.810E-01    0.955E-02
DAV:   2    -0.192053827699E+03   -0.33036E-03   -0.51411E-03 10640   0.192E-01    0.823E-02
DAV:   3    -0.192053969046E+03   -0.14135E-03   -0.65997E-04 11440   0.206E-01    0.140E-01
DAV:   4    -0.192053746766E+03    0.22228E-03   -0.34441E-04  8640   0.151E-01    0.491E-02
DAV:   5    -0.192053778847E+03   -0.32082E-04   -0.17550E-04  6280   0.993E-02
  25 F= -.19205378E+03 E0= -.19195096E+03  d E =-.572617E-02
       N       E                     dE             d eps       ncg     rms          rms(c)
DAV:   1    -0.192044063005E+03    0.96838E-02   -0.51037E-01  8160   0.154E+00    0.225E-01
DAV:   2    -0.192053023439E+03   -0.89604E-02   -0.31431E-02 12240   0.931E-01    0.991E-01
DAV:   3    -0.192044933523E+03    0.80899E-02   -0.16947E-02 11160   0.819E-01    0.165E-01
DAV:   4    -0.192045381854E+03   -0.44833E-03   -0.21774E-03  9960   0.315E-01    0.273E-01
DAV:   5    -0.192044621481E+03    0.76037E-03   -0.14454E-03  9680   0.275E-01    0.652E-02
DAV:   6    -0.192044655798E+03   -0.34317E-04   -0.31774E-04  7440   0.898E-02
  26 F= -.19204466E+03 E0= -.19194083E+03  d E =0.912305E-02
       N       E                     dE             d eps       ncg     rms          rms(c)
DAV:   1    -0.192034515785E+03    0.10106E-01   -0.62026E-01  8160   0.170E+00    0.230E-01
DAV:   2    -0.192039758570E+03   -0.52428E-02   -0.27465E-02 12280   0.780E-01    0.696E-01
DAV:   3    -0.192035777258E+03    0.39813E-02   -0.11053E-02 12120   0.684E-01    0.235E-01
DAV:   4    -0.192036129564E+03   -0.35231E-03   -0.31112E-03  9840   0.385E-01    0.294E-01
DAV:   5    -0.192035250194E+03    0.87937E-03   -0.16233E-03  9880   0.292E-01    0.910E-02
DAV:   6    -0.192035466739E+03   -0.21654E-03   -0.83906E-04  9560   0.212E-01    0.168E-01
DAV:   7    -0.192035167366E+03    0.29937E-03   -0.50126E-04  8440   0.161E-01    0.167E-02
DAV:   8    -0.192035177589E+03   -0.10224E-04   -0.44794E-05  6320   0.246E-02
  27 F= -.19203518E+03 E0= -.19193129E+03  d E =0.947821E-02
       N       E                     dE             d eps       ncg     rms          rms(c)
DAV:   1    -0.192041625752E+03   -0.64584E-02   -0.30696E-01  8160   0.120E+00    0.165E-01
DAV:   2    -0.192044148894E+03   -0.25231E-02   -0.14495E-02 12040   0.549E-01    0.494E-01
DAV:   3    -0.192042136794E+03    0.20121E-02   -0.56568E-03 11440   0.476E-01    0.165E-01
DAV:   4    -0.192042244679E+03   -0.10789E-03   -0.14349E-03  9880   0.252E-01    0.192E-01
DAV:   5    -0.192041907232E+03    0.33745E-03   -0.95086E-04  9320   0.225E-01    0.911E-02
DAV:   6    -0.192041912254E+03   -0.50213E-05   -0.44687E-04  8560   0.142E-01
  28 F= -.19204191E+03 E0= -.19193780E+03  d E =-.673466E-02
       N       E                     dE             d eps       ncg     rms          rms(c)
DAV:   1    -0.192043089782E+03   -0.11825E-02   -0.21266E-01  8160   0.101E+00    0.143E-01
DAV:   2    -0.192045355969E+03   -0.22662E-02   -0.92801E-03 12240   0.487E-01    0.499E-01
DAV:   3    -0.192043141667E+03    0.22143E-02   -0.50349E-03 10960   0.459E-01    0.128E-01
DAV:   4    -0.192043054149E+03    0.87519E-04   -0.67178E-04  9240   0.133E-01
  29 F= -.19204305E+03 E0= -.19193957E+03  d E =-.114189E-02
       N       E                     dE             d eps       ncg     rms          rms(c)
DAV:   1    -0.192053311875E+03   -0.10170E-01   -0.60384E-01  8160   0.168E+00    0.231E-01
DAV:   2    -0.192058805589E+03   -0.54937E-02   -0.29241E-02 12400   0.790E-01    0.661E-01
DAV:   3    -0.192054462098E+03    0.43435E-02   -0.10170E-02 11920   0.723E-01    0.171E-01
DAV:   4    -0.192054391057E+03    0.71042E-04   -0.11670E-03  9960   0.212E-01    0.165E-01
DAV:   5    -0.192054248732E+03    0.14232E-03   -0.10467E-03 10800   0.236E-01    0.137E-01
DAV:   6    -0.192054358579E+03   -0.10985E-03   -0.92188E-04  8920   0.194E-01    0.160E-01
DAV:   7    -0.192054105878E+03    0.25270E-03   -0.41461E-04  8280   0.163E-01    0.357E-02
DAV:   8    -0.192054088935E+03    0.16944E-04   -0.51748E-05  6320   0.400E-02
  30 F= -.19205409E+03 E0= -.19195105E+03  d E =-.110348E-01
       N       E                     dE             d eps       ncg     rms          rms(c)
DAV:   1    -0.192053690119E+03    0.41576E-03   -0.31549E-03  8160   0.124E-01    0.197E-02
DAV:   2    -0.192053721245E+03   -0.31126E-04   -0.11450E-04  6520   0.668E-02
  31 F= -.19205372E+03 E0= -.19195009E+03  d E =0.367690E-03
       N       E                     dE             d eps       ncg     rms          rms(c)
DAV:   1    -0.192064839378E+03   -0.11149E-01   -0.75479E-01  8160   0.187E+00    0.215E-01
DAV:   2    -0.192067250680E+03   -0.24113E-02   -0.28247E-02 11520   0.530E-01    0.295E-01
DAV:   3    -0.192067232089E+03    0.18592E-04   -0.49373E-03 11920   0.516E-01    0.313E-01
DAV:   4    -0.192066618859E+03    0.61323E-03   -0.23974E-03  9920   0.342E-01    0.212E-01
DAV:   5    -0.192066271438E+03    0.34742E-03   -0.10320E-03  9400   0.241E-01    0.108E-01
DAV:   6    -0.192066488066E+03   -0.21663E-03   -0.89012E-04  9440   0.204E-01    0.174E-01
DAV:   7    -0.192066179826E+03    0.30824E-03   -0.57915E-04  8520   0.179E-01    0.367E-02
DAV:   8    -0.192066169264E+03    0.10563E-04   -0.55862E-05  5680   0.365E-02
  32 F= -.19206617E+03 E0= -.19196389E+03  d E =-.124480E-01
       N       E                     dE             d eps       ncg     rms          rms(c)
DAV:   1    -0.192066720515E+03   -0.54069E-03   -0.15404E-03  8720   0.867E-02    0.130E-02
DAV:   2    -0.192066724171E+03   -0.36559E-05   -0.58812E-05  6520   0.307E-02
  33 F= -.19206672E+03 E0= -.19196454E+03  d E =-.554907E-03
       N       E                     dE             d eps       ncg     rms          rms(c)
DAV:   1    -0.192081060853E+03   -0.14340E-01   -0.11754E+00  8160   0.236E+00    0.282E-01
DAV:   2    -0.192084691806E+03   -0.36310E-02   -0.32078E-02 12360   0.714E-01    0.523E-01
DAV:   3    -0.192082606994E+03    0.20848E-02   -0.78997E-03 11840   0.675E-01    0.320E-01
DAV:   4    -0.192083101233E+03   -0.49424E-03   -0.45958E-03 11080   0.482E-01    0.397E-01
DAV:   5    -0.192081484627E+03    0.16166E-02   -0.25901E-03  9960   0.402E-01    0.865E-02
DAV:   6    -0.192081910520E+03   -0.42589E-03   -0.11461E-03 10320   0.236E-01    0.213E-01
DAV:   7    -0.192081420694E+03    0.48983E-03   -0.75648E-04  8840   0.208E-01    0.207E-02
DAV:   8    -0.192081435140E+03   -0.14446E-04   -0.40856E-05  5880   0.260E-02
  34 F= -.19208144E+03 E0= -.19198045E+03  d E =-.147110E-01
       N       E                     dE             d eps       ncg     rms          rms(c)
DAV:   1    -0.192067819311E+03    0.13601E-01   -0.12596E+00  8160   0.246E+00    0.336E-01
DAV:   2    -0.192075973038E+03   -0.81537E-02   -0.43223E-02 12280   0.110E+00    0.927E-01
DAV:   3    -0.192068777968E+03    0.71951E-02   -0.18369E-02 11920   0.940E-01    0.338E-01
DAV:   4    -0.192069507433E+03   -0.72946E-03   -0.61194E-03 10640   0.579E-01    0.437E-01
DAV:   5    -0.192067414118E+03    0.20933E-02   -0.33998E-03 10640   0.433E-01    0.113E-01
DAV:   6    -0.192067999362E+03   -0.58524E-03   -0.19548E-03 10280   0.312E-01    0.264E-01
DAV:   7    -0.192067269804E+03    0.72956E-03   -0.12821E-03  9680   0.263E-01    0.328E-02
DAV:   8    -0.192067268904E+03    0.89963E-06   -0.54936E-05  6160   0.333E-02
  35 F= -.19206727E+03 E0= -.19196466E+03  d E =0.141662E-01
       N       E                     dE             d eps       ncg     rms          rms(c)
DAV:   1    -0.192078003033E+03   -0.10733E-01   -0.65712E-01  8160   0.174E+00    0.200E-01
DAV:   2    -0.192079966572E+03   -0.19635E-02   -0.24388E-02 11560   0.493E-01    0.237E-01
DAV:   3    -0.192080039301E+03   -0.72730E-04   -0.31896E-03 12120   0.455E-01    0.266E-01
DAV:   4    -0.192079561500E+03    0.47780E-03   -0.19293E-03 10000   0.307E-01    0.198E-01
DAV:   5    -0.192079277872E+03    0.28363E-03   -0.96846E-04  8640   0.229E-01    0.102E-01
DAV:   6    -0.192079310521E+03   -0.32649E-04   -0.49918E-04  9000   0.138E-01
  36 F= -.19207931E+03 E0= -.19197766E+03  d E =-.120416E-01
       N       E                     dE             d eps       ncg     rms          rms(c)
DAV:   1    -0.192080222036E+03   -0.94416E-03   -0.48422E-03 12160   0.208E-01    0.690E-02
DAV:   2    -0.192081270935E+03   -0.10489E-02   -0.23203E-03 11000   0.348E-01    0.317E-01
DAV:   3    -0.192080168313E+03    0.11026E-02   -0.16076E-03  9920   0.304E-01    0.439E-02
DAV:   4    -0.192080183291E+03   -0.14977E-04   -0.74244E-05  5760   0.605E-02
  37 F= -.19208018E+03 E0= -.19197844E+03  d E =-.872770E-03
       N       E                     dE             d eps       ncg     rms          rms(c)
DAV:   1    -0.192090937571E+03   -0.10769E-01   -0.59910E-01  8160   0.168E+00    0.210E-01
DAV:   2    -0.192092343844E+03   -0.14063E-02   -0.21834E-02 11160   0.402E-01    0.220E-01
DAV:   3    -0.192093152703E+03   -0.80886E-03   -0.44630E-03 12200   0.488E-01    0.388E-01
DAV:   4    -0.192091925603E+03    0.12271E-02   -0.25852E-03  9800   0.353E-01    0.170E-01
DAV:   5    -0.192091759491E+03    0.16611E-03   -0.89672E-04  9080   0.239E-01    0.118E-01
DAV:   6    -0.192091790570E+03   -0.31079E-04   -0.64689E-04  8360   0.171E-01
  38 F= -.19209179E+03 E0= -.19199110E+03  d E =-.116073E-01
       N       E                     dE             d eps       ncg     rms          rms(c)
DAV:   1    -0.192096592928E+03   -0.48334E-02   -0.11490E-01  8160   0.745E-01    0.107E-01
DAV:   2    -0.192097314152E+03   -0.72122E-03   -0.52721E-03 11600   0.315E-01    0.225E-01
DAV:   3    -0.192096846243E+03    0.46791E-03   -0.13599E-03 11040   0.293E-01    0.108E-01
DAV:   4    -0.192096882876E+03   -0.36633E-04   -0.54905E-04  8160   0.165E-01
  39 F= -.19209688E+03 E0= -.19199627E+03  d E =-.509231E-02
       N       E                     dE             d eps       ncg     rms          rms(c)
DAV:   1    -0.192106479971E+03   -0.96337E-02   -0.47034E-01  8160   0.148E+00    0.194E-01
DAV:   2    -0.192108523338E+03   -0.20434E-02   -0.18091E-02 12440   0.491E-01    0.364E-01
DAV:   3    -0.192107661378E+03    0.86196E-03   -0.41854E-03 11920   0.479E-01    0.240E-01
DAV:   4    -0.192107532199E+03    0.12918E-03   -0.16715E-03  9560   0.297E-01    0.208E-01
DAV:   5    -0.192107128215E+03    0.40398E-03   -0.97230E-04  9760   0.255E-01    0.894E-02
DAV:   6    -0.192107259292E+03   -0.13108E-03   -0.58310E-04  9560   0.174E-01    0.136E-01
DAV:   7    -0.192107082114E+03    0.17718E-03   -0.42667E-04  8880   0.161E-01    0.421E-02
DAV:   8    -0.192107060539E+03    0.21575E-04   -0.55782E-05  5840   0.410E-02
  40 F= -.19210706E+03 E0= -.19200696E+03  d E =-.101777E-01
       N       E                     dE             d eps       ncg     rms          rms(c)
DAV:   1    -0.192114901451E+03   -0.78193E-02   -0.30393E-01  8160   0.120E+00    0.149E-01
DAV:   2    -0.192116129323E+03   -0.12279E-02   -0.12191E-02 10680   0.357E-01    0.264E-01
DAV:   3    -0.192115822540E+03    0.30678E-03   -0.27464E-03 11680   0.373E-01    0.217E-01
DAV:   4    -0.192115536992E+03    0.28555E-03   -0.90235E-04  8600   0.216E-01    0.130E-01
DAV:   5    -0.192115373771E+03    0.16322E-03   -0.38372E-04  8760   0.169E-01    0.553E-02
DAV:   6    -0.192115402542E+03   -0.28771E-04   -0.21645E-04  6640   0.946E-02
  41 F= -.19211540E+03 E0= -.19201594E+03  d E =-.834200E-02
       N       E                     dE             d eps       ncg     rms          rms(c)
DAV:   1    -0.192121854185E+03   -0.64804E-02   -0.20035E-01  8160   0.973E-01    0.131E-01
DAV:   2    -0.192123346284E+03   -0.14921E-02   -0.91477E-03 12000   0.407E-01    0.334E-01
DAV:   3    -0.192122338078E+03    0.10082E-02   -0.25624E-03 11640   0.375E-01    0.133E-01
DAV:   4    -0.192122399053E+03   -0.60976E-04   -0.66638E-04  8440   0.203E-01
  42 F= -.19212240E+03 E0= -.19202313E+03  d E =-.699651E-02
       N       E                     dE             d eps       ncg     rms          rms(c)
DAV:   1    -0.192127946756E+03   -0.56087E-02   -0.15202E-01  8160   0.864E-01    0.136E-01
DAV:   2    -0.192129557717E+03   -0.16110E-02   -0.79739E-03 12240   0.459E-01    0.381E-01
DAV:   3    -0.192128175315E+03    0.13824E-02   -0.28761E-03 11960   0.399E-01    0.113E-01
DAV:   4    -0.192128300246E+03   -0.12493E-03   -0.62752E-04  8520   0.201E-01    0.155E-01
DAV:   5    -0.192128065132E+03    0.23511E-03   -0.49850E-04  8920   0.181E-01    0.617E-02
DAV:   6    -0.192128130383E+03   -0.65250E-04   -0.28691E-04  8200   0.129E-01
  43 F= -.19212813E+03 E0= -.19203010E+03  d E =-.573133E-02
       N       E                     dE             d eps       ncg     rms          rms(c)
DAV:   1    -0.192141578100E+03   -0.13513E-01   -0.96205E-01  8160   0.212E+00    0.286E-01
DAV:   2    -0.192149732220E+03   -0.81541E-02   -0.45119E-02 12200   0.962E-01    0.782E-01
DAV:   3    -0.192143617683E+03    0.61145E-02   -0.12402E-02 11600   0.839E-01    0.256E-01
DAV:   4    -0.192143953834E+03   -0.33615E-03   -0.28433E-03 10800   0.424E-01    0.304E-01
DAV:   5    -0.192142900842E+03    0.10530E-02   -0.14972E-03 10280   0.338E-01    0.757E-02
DAV:   6    -0.192143018717E+03   -0.11787E-03   -0.61412E-04 10160   0.138E-01    0.109E-01
DAV:   7    -0.192142927700E+03    0.91017E-04   -0.49640E-04  9360   0.167E-01
  44 F= -.19214293E+03 E0= -.19204588E+03  d E =-.147973E-01
       N       E                     dE             d eps       ncg     rms          rms(c)
DAV:   1    -0.192142650230E+03    0.36849E-03   -0.63816E-03  8320   0.192E-01    0.452E-02
DAV:   2    -0.192142682833E+03   -0.32603E-04   -0.41669E-04 10080   0.113E-01
  45 F= -.19214268E+03 E0= -.19204529E+03  d E =0.244867E-03
       N       E                     dE             d eps       ncg     rms          rms(c)
DAV:   1    -0.192142720219E+03   -0.69989E-04   -0.30067E-04  8720   0.118E-01    0.467E-02
DAV:   2    -0.192143237617E+03   -0.51740E-03   -0.95805E-04 10120   0.244E-01    0.234E-01
DAV:   3    -0.192142669581E+03    0.56804E-03   -0.70110E-04  8760   0.206E-01    0.215E-02
DAV:   4    -0.192142697804E+03   -0.28223E-04   -0.44142E-05  5880   0.483E-02
  46 F= -.19214270E+03 E0= -.19204548E+03  d E =-.149714E-04
       N       E                     dE             d eps       ncg     rms          rms(c)
DAV:   1    -0.192154304103E+03   -0.11635E-01   -0.67303E-01  8160   0.177E+00    0.244E-01
DAV:   2    -0.192160991974E+03   -0.66879E-02   -0.30526E-02 11920   0.873E-01    0.745E-01
DAV:   3    -0.192155362375E+03    0.56296E-02   -0.10037E-02 11640   0.758E-01    0.193E-01
DAV:   4    -0.192155609896E+03   -0.24752E-03   -0.17186E-03  9800   0.334E-01    0.238E-01
DAV:   5    -0.192154937621E+03    0.67228E-03   -0.95557E-04 10640   0.277E-01    0.628E-02
DAV:   6    -0.192155017592E+03   -0.79971E-04   -0.39941E-04  9240   0.117E-01
  47 F= -.19215502E+03 E0= -.19205920E+03  d E =-.123198E-01
       N       E                     dE             d eps       ncg     rms          rms(c)
DAV:   1    -0.192156548706E+03   -0.16111E-02   -0.13324E-02  9680   0.290E-01    0.751E-02
DAV:   2    -0.192157619156E+03   -0.10705E-02   -0.25206E-03 12560   0.367E-01    0.317E-01
DAV:   3    -0.192156495467E+03    0.11237E-02   -0.16372E-03  9880   0.319E-01    0.370E-02
DAV:   4    -0.192156519129E+03   -0.23661E-04   -0.75198E-05  5440   0.632E-02
  48 F= -.19215652E+03 E0= -.19206069E+03  d E =-.150154E-02
       N       E                     dE             d eps       ncg     rms          rms(c)
DAV:   1    -0.192154877707E+03    0.16178E-02   -0.31101E-02  8160   0.379E-01    0.658E-02
DAV:   2    -0.192155606347E+03   -0.72864E-03   -0.24897E-03 12560   0.317E-01    0.255E-01
DAV:   3    -0.192154897922E+03    0.70842E-03   -0.11190E-03  9240   0.257E-01    0.289E-02
DAV:   4    -0.192154903632E+03   -0.57099E-05   -0.48626E-05  5440   0.421E-02
  49 F= -.19215490E+03 E0= -.19205894E+03  d E =0.161550E-02
       N       E                     dE             d eps       ncg     rms          rms(c)
DAV:   1    -0.192168617642E+03   -0.13720E-01   -0.93474E-01  8160   0.209E+00    0.312E-01
DAV:   2    -0.192180714074E+03   -0.12096E-01   -0.49996E-02 11920   0.124E+00    0.983E-01
DAV:   3    -0.192170109585E+03    0.10604E-01   -0.16941E-02 12080   0.102E+00    0.231E-01
DAV:   4    -0.192170620067E+03   -0.51048E-03   -0.29189E-03 10640   0.450E-01    0.313E-01
DAV:   5    -0.192169499695E+03    0.11204E-02   -0.15461E-03 10160   0.340E-01    0.798E-02
DAV:   6    -0.192169827501E+03   -0.32781E-03   -0.93139E-04 10280   0.218E-01    0.186E-01
DAV:   7    -0.192169469792E+03    0.35771E-03   -0.71550E-04  8600   0.209E-01    0.433E-02
DAV:   8    -0.192169451827E+03    0.17965E-04   -0.62714E-05  5840   0.432E-02
  50 F= -.19216945E+03 E0= -.19207499E+03  d E =-.145482E-01
       N       E                     dE             d eps       ncg     rms          rms(c)
DAV:   1    -0.192182214119E+03   -0.12744E-01   -0.87976E-01  8160   0.202E+00    0.298E-01
DAV:   2    -0.192193710138E+03   -0.11496E-01   -0.45900E-02 11560   0.115E+00    0.973E-01
DAV:   3    -0.192183560167E+03    0.10150E-01   -0.15497E-02 11720   0.977E-01    0.206E-01
DAV:   4    -0.192183951329E+03   -0.39116E-03   -0.22709E-03 10640   0.393E-01    0.271E-01
DAV:   5    -0.192183068708E+03    0.88262E-03   -0.12009E-03 11160   0.317E-01    0.726E-02
DAV:   6    -0.192183086476E+03   -0.17768E-04   -0.39079E-04  9320   0.951E-02
  51 F= -.19218309E+03 E0= -.19209007E+03  d E =-.136346E-01
       N       E                     dE             d eps       ncg     rms          rms(c)
DAV:   1    -0.192211135301E+03   -0.28067E-01   -0.68842E+00  8160   0.566E+00    0.817E-01
DAV:   2    -0.192286231950E+03   -0.75097E-01   -0.32944E-01 11360   0.307E+00    0.232E+00
DAV:   3    -0.192220950722E+03    0.65281E-01   -0.87364E-02 11480   0.248E+00    0.536E-01
DAV:   4    -0.192224189201E+03   -0.32385E-02   -0.16338E-02 12040   0.109E+00    0.774E-01
DAV:   5    -0.192217095874E+03    0.70933E-02   -0.93845E-03 11520   0.905E-01    0.201E-01
DAV:   6    -0.192217162363E+03   -0.66489E-04   -0.30544E-03 11960   0.267E-01    0.152E-01
DAV:   7    -0.192216632013E+03    0.53035E-03   -0.11083E-03 11480   0.152E-01    0.644E-02
DAV:   8    -0.192216636451E+03   -0.44384E-05   -0.26010E-04  8720   0.113E-01
  52 F= -.19221664E+03 E0= -.19212755E+03  d E =-.335500E-01
       N       E                     dE             d eps       ncg     rms          rms(c)
DAV:   1    -0.192231541257E+03   -0.14909E-01   -0.68860E+00  8160   0.564E+00    0.796E-01
DAV:   2    -0.192306404773E+03   -0.74864E-01   -0.32711E-01 11440   0.303E+00    0.229E+00
DAV:   3    -0.192242468153E+03    0.63937E-01   -0.87291E-02 11800   0.248E+00    0.520E-01
DAV:   4    -0.192244377718E+03   -0.19096E-02   -0.14084E-02 11840   0.985E-01    0.675E-01
DAV:   5    -0.192238945282E+03    0.54324E-02   -0.76546E-03 11960   0.828E-01    0.209E-01
DAV:   6    -0.192238836686E+03    0.10860E-03   -0.27805E-03 12040   0.283E-01    0.147E-01
DAV:   7    -0.192238364758E+03    0.47193E-03   -0.10734E-03 11440   0.135E-01    0.350E-02
DAV:   8    -0.192238366401E+03   -0.16428E-05   -0.11164E-04  7200   0.601E-02
  53 F= -.19223837E+03 E0= -.19215266E+03  d E =-.217299E-01
       N       E                     dE             d eps       ncg     rms          rms(c)
DAV:   1    -0.192236850220E+03    0.15145E-02   -0.20528E-01  8160   0.100E+00    0.167E-01
DAV:   2    -0.192239404416E+03   -0.25542E-02   -0.10679E-02 12440   0.592E-01    0.494E-01
DAV:   3    -0.192236913827E+03    0.24906E-02   -0.46407E-03 11120   0.545E-01    0.129E-01
DAV:   4    -0.192236829036E+03    0.84791E-04   -0.54617E-04  8640   0.151E-01
  54 F= -.19223683E+03 E0= -.19215093E+03  d E =0.153736E-02
       N       E                     dE             d eps       ncg     rms          rms(c)
DAV:   1    -0.192241283969E+03   -0.43701E-02   -0.21024E+00  8160   0.308E+00    0.445E-01
DAV:   2    -0.192262977902E+03   -0.21694E-01   -0.11277E-01 11120   0.178E+00    0.122E+00
DAV:   3    -0.192245478247E+03    0.17500E-01   -0.28535E-02 11800   0.138E+00    0.303E-01
DAV:   4    -0.192246207556E+03   -0.72931E-03   -0.48834E-03 11280   0.614E-01    0.418E-01
DAV:   5    -0.192244215468E+03    0.19921E-02   -0.27549E-03 10800   0.490E-01    0.121E-01
DAV:   6    -0.192244135969E+03    0.79499E-04   -0.10340E-03 11960   0.152E-01    0.713E-02
DAV:   7    -0.192244103561E+03    0.32409E-04   -0.44244E-04  9520   0.131E-01
  55 F= -.19224410E+03 E0= -.19216012E+03  d E =-.727452E-02
       N       E                     dE             d eps       ncg     rms          rms(c)
DAV:   1    -0.192241621329E+03    0.25146E-02   -0.50885E-01  8160   0.155E+00    0.265E-01
DAV:   2    -0.192249115281E+03   -0.74940E-02   -0.32268E-02 11040   0.108E+00    0.831E-01
DAV:   3    -0.192242043313E+03    0.70720E-02   -0.12486E-02 12120   0.890E-01    0.187E-01
DAV:   4    -0.192242228568E+03   -0.18526E-03   -0.17581E-03 10840   0.380E-01    0.244E-01
DAV:   5    -0.192241512728E+03    0.71584E-03   -0.11110E-03 10240   0.301E-01    0.866E-02
DAV:   6    -0.192241536224E+03   -0.23496E-04   -0.60171E-04  9320   0.160E-01
  56 F= -.19224154E+03 E0= -.19215626E+03  d E =0.256734E-02
       N       E                     dE             d eps       ncg     rms          rms(c)
DAV:   1    -0.192242721567E+03   -0.12088E-02   -0.98124E-02  8160   0.680E-01    0.879E-02
DAV:   2    -0.192243171150E+03   -0.44958E-03   -0.39049E-03 12640   0.253E-01    0.178E-01
DAV:   3    -0.192242893792E+03    0.27736E-03   -0.93461E-04 10120   0.240E-01    0.924E-02
DAV:   4    -0.192242806516E+03    0.87277E-04   -0.18519E-04  7200   0.995E-02
  57 F= -.19224281E+03 E0= -.19215784E+03  d E =-.127029E-02
       N       E                     dE             d eps       ncg     rms          rms(c)
DAV:   1    -0.192244042040E+03   -0.11482E-02   -0.69611E-02  8160   0.568E-01    0.107E-01
DAV:   2    -0.192245933976E+03   -0.18919E-02   -0.57022E-03 12360   0.488E-01    0.400E-01
DAV:   3    -0.192244116473E+03    0.18175E-02   -0.26504E-03 11200   0.424E-01    0.582E-02
DAV:   4    -0.192244174193E+03   -0.57721E-04   -0.19297E-04  7840   0.122E-01
  58 F= -.19224417E+03 E0= -.19215933E+03  d E =-.136768E-02
       N       E                     dE             d eps       ncg     rms          rms(c)
DAV:   1    -0.192245911312E+03   -0.17948E-02   -0.34412E-01  8160   0.125E+00    0.168E-01
DAV:   2    -0.192248152560E+03   -0.22412E-02   -0.15083E-02 11160   0.542E-01    0.369E-01
DAV:   3    -0.192246678316E+03    0.14742E-02   -0.35117E-03 12120   0.472E-01    0.145E-01
DAV:   4    -0.192246746445E+03   -0.68129E-04   -0.76694E-04  9240   0.238E-01
  59 F= -.19224675E+03 E0= -.19216252E+03  d E =-.257225E-02
       N       E                     dE             d eps       ncg     rms          rms(c)
DAV:   1    -0.192247363390E+03   -0.68507E-03   -0.10207E-01  8160   0.703E-01    0.115E-01
DAV:   2    -0.192247972090E+03   -0.60870E-03   -0.48381E-03 12640   0.280E-01    0.223E-01
DAV:   3    -0.192247545365E+03    0.42672E-03   -0.13168E-03 10680   0.301E-01    0.120E-01
DAV:   4    -0.192247446474E+03    0.98891E-04   -0.31836E-04  8600   0.136E-01
  60 F= -.19224745E+03 E0= -.19216385E+03  d E =-.700029E-03
       N       E                     dE             d eps       ncg     rms          rms(c)
DAV:   1    -0.192248156492E+03   -0.61113E-03   -0.74398E-01  8160   0.184E+00    0.266E-01
DAV:   2    -0.192255386851E+03   -0.72304E-02   -0.37601E-02 11120   0.983E-01    0.683E-01
DAV:   3    -0.192249780129E+03    0.56067E-02   -0.10009E-02 12080   0.826E-01    0.186E-01
DAV:   4    -0.192250163295E+03   -0.38317E-03   -0.18151E-03 10120   0.369E-01    0.266E-01
DAV:   5    -0.192249368967E+03    0.79433E-03   -0.10680E-03 10080   0.302E-01    0.696E-02
DAV:   6    -0.192249476949E+03   -0.10798E-03   -0.45705E-04  9320   0.129E-01    0.993E-02
DAV:   7    -0.192249389632E+03    0.87317E-04   -0.36889E-04  9480   0.155E-01
  61 F= -.19224939E+03 E0= -.19216667E+03  d E =-.194316E-02
       N       E                     dE             d eps       ncg     rms          rms(c)
DAV:   1    -0.192249321415E+03    0.15553E-03   -0.41701E-02  8160   0.443E-01    0.661E-02
DAV:   2    -0.192249699389E+03   -0.37797E-03   -0.17226E-03 12400   0.260E-01    0.174E-01
DAV:   3    -0.192249327639E+03    0.37175E-03   -0.54528E-04  9160   0.209E-01    0.392E-02
DAV:   4    -0.192249350108E+03   -0.22469E-04   -0.11779E-04  5560   0.860E-02
  62 F= -.19224935E+03 E0= -.19216650E+03  d E =0.395236E-04
