<?xml version="1.0" encoding="ISO-8859-1"?>
<modeling>
 <generator>
  <i name="program" type="string">vasp </i>
  <i name="version" type="string">5.4.1  </i>
  <i name="subversion" type="string">05Feb16 (build Jul 05 2020 17:13:04) complex                          parallel </i>
  <i name="platform" type="string">IFC91_ompi </i>
  <i name="date" type="string">2024 04 27 </i>
  <i name="time" type="string">21:31:50 </i>
 </generator>
 <incar>
  <i type="int" name="ISTART">     0</i>
  <i type="string" name="PREC">normal</i>
  <i type="string" name="ALGO"> Normal</i>
  <i type="int" name="ISPIN">     1</i>
  <i type="int" name="ICHARG">     2</i>
  <i type="int" name="IBRION">     1</i>
  <i type="int" name="NSW">   100</i>
  <i type="int" name="ISIF">     3</i>
  <i type="int" name="ISYM">     0</i>
  <i name="SYMPREC">      0.00000001</i>
  <i name="POTIM">      0.50000000</i>
  <i type="logical" name="LREAL"> F  </i>
  <i type="logical" name="LPLANE"> F  </i>
  <i type="int" name="ISMEAR">     0</i>
  <i type="logical" name="LWAVE"> F  </i>
  <i type="logical" name="LCHARG"> F  </i>
  <v type="int" name="KPOINT_BSE">    -1     0     0     0</v>
 </incar>
 <kpoints>
  <generation param="Gamma">
   <v type="int" name="divisions">       8        8        1 </v>
   <v name="usershift">      0.00000000       0.00000000       0.00000000 </v>
   <v name="genvec1">      0.12500000       0.00000000       0.00000000 </v>
   <v name="genvec2">     -0.00000000       0.12500000       0.00000000 </v>
   <v name="genvec3">      0.00000000       0.00000000       1.00000000 </v>
   <v name="shift">      0.00000000       0.00000000       0.00000000 </v>
  </generation>
  <varray name="kpointlist" >
   <v>       0.00000000       0.00000000       0.00000000 </v>
   <v>       0.12500000       0.00000000       0.00000000 </v>
   <v>       0.25000000       0.00000000       0.00000000 </v>
   <v>       0.37500000       0.00000000       0.00000000 </v>
   <v>       0.50000000       0.00000000       0.00000000 </v>
   <v>       0.00000000       0.12500000       0.00000000 </v>
   <v>       0.12500000       0.12500000       0.00000000 </v>
   <v>       0.25000000       0.12500000       0.00000000 </v>
   <v>       0.37500000       0.12500000       0.00000000 </v>
   <v>       0.50000000       0.12500000       0.00000000 </v>
   <v>      -0.37500000       0.12500000       0.00000000 </v>
   <v>      -0.25000000       0.12500000       0.00000000 </v>
   <v>      -0.12500000       0.12500000       0.00000000 </v>
   <v>       0.00000000       0.25000000       0.00000000 </v>
   <v>       0.12500000       0.25000000       0.00000000 </v>
   <v>       0.25000000       0.25000000       0.00000000 </v>
   <v>       0.37500000       0.25000000       0.00000000 </v>
   <v>       0.50000000       0.25000000       0.00000000 </v>
   <v>      -0.37500000       0.25000000       0.00000000 </v>
   <v>      -0.25000000       0.25000000       0.00000000 </v>
   <v>      -0.12500000       0.25000000       0.00000000 </v>
   <v>      -0.00000000       0.37500000       0.00000000 </v>
   <v>       0.12500000       0.37500000       0.00000000 </v>
   <v>       0.25000000       0.37500000       0.00000000 </v>
   <v>       0.37500000       0.37500000       0.00000000 </v>
   <v>       0.50000000       0.37500000       0.00000000 </v>
   <v>      -0.37500000       0.37500000       0.00000000 </v>
   <v>      -0.25000000       0.37500000       0.00000000 </v>
   <v>      -0.12500000       0.37500000       0.00000000 </v>
   <v>       0.00000000       0.50000000       0.00000000 </v>
   <v>       0.12500000       0.50000000       0.00000000 </v>
   <v>       0.25000000       0.50000000       0.00000000 </v>
   <v>       0.37500000       0.50000000       0.00000000 </v>
   <v>       0.50000000       0.50000000       0.00000000 </v>
  </varray>
  <varray name="weights" >
   <v>       0.01562500 </v>
   <v>       0.03125000 </v>
   <v>       0.03125000 </v>
   <v>       0.03125000 </v>
   <v>       0.01562500 </v>
   <v>       0.03125000 </v>
   <v>       0.03125000 </v>
   <v>       0.03125000 </v>
   <v>       0.03125000 </v>
   <v>       0.03125000 </v>
   <v>       0.03125000 </v>
   <v>       0.03125000 </v>
   <v>       0.03125000 </v>
   <v>       0.03125000 </v>
   <v>       0.03125000 </v>
   <v>       0.03125000 </v>
   <v>       0.03125000 </v>
   <v>       0.03125000 </v>
   <v>       0.03125000 </v>
   <v>       0.03125000 </v>
   <v>       0.03125000 </v>
   <v>       0.03125000 </v>
   <v>       0.03125000 </v>
   <v>       0.03125000 </v>
   <v>       0.03125000 </v>
   <v>       0.03125000 </v>
   <v>       0.03125000 </v>
   <v>       0.03125000 </v>
   <v>       0.03125000 </v>
   <v>       0.01562500 </v>
   <v>       0.03125000 </v>
   <v>       0.03125000 </v>
   <v>       0.03125000 </v>
   <v>       0.01562500 </v>
  </varray>
 </kpoints>
 <parameters>
  <separator name="general" >
   <i type="string" name="SYSTEM">unknown system</i>
   <i type="logical" name="LCOMPAT"> F  </i>
  </separator>
  <separator name="electronic" >
   <i type="string" name="PREC">normal</i>
   <i name="ENMAX">    280.00000000</i>
   <i name="ENAUG">    373.43800000</i>
   <i name="EDIFF">      0.00010000</i>
   <i type="int" name="IALGO">    38</i>
   <i type="int" name="IWAVPR">    11</i>
   <i type="int" name="NBANDS">   120</i>
   <i name="NELECT">    159.00000000</i>
   <i type="int" name="TURBO">     0</i>
   <i type="int" name="IRESTART">     0</i>
   <i type="int" name="NREBOOT">     0</i>
   <i type="int" name="NMIN">     0</i>
   <i name="EREF">      0.00000000</i>
   <separator name="electronic smearing" >
    <i type="int" name="ISMEAR">     0</i>
    <i name="SIGMA">      0.20000000</i>
    <i name="KSPACING">      0.50000000</i>
    <i type="logical" name="KGAMMA"> T  </i>
   </separator>
   <separator name="electronic projectors" >
    <i type="logical" name="LREAL"> F  </i>
    <v name="ROPT">      0.00000000      0.00000000      0.00000000      0.00000000</v>
    <i type="int" name="LMAXPAW">  -100</i>
    <i type="int" name="LMAXMIX">     2</i>
    <i type="logical" name="NLSPLINE"> F  </i>
   </separator>
   <separator name="electronic startup" >
    <i type="int" name="ISTART">     0</i>
    <i type="int" name="ICHARG">     2</i>
    <i type="int" name="INIWAV">     1</i>
   </separator>
   <separator name="electronic spin" >
    <i type="int" name="ISPIN">     1</i>
    <i type="logical" name="LNONCOLLINEAR"> F  </i>
    <v name="MAGMOM">      1.00000000      1.00000000      1.00000000      1.00000000      1.00000000      1.00000000      1.00000000      1.00000000      1.00000000      1.00000000      1.00000000      1.00000000      1.00000000      1.00000000      1.00000000      1.00000000      1.00000000      1.00000000      1.00000000      1.00000000
      1.00000000      1.00000000      1.00000000      1.00000000      1.00000000      1.00000000      1.00000000</v>
    <i name="NUPDOWN">     -1.00000000</i>
    <i type="logical" name="LSORBIT"> F  </i>
    <v name="SAXIS">      0.00000000      0.00000000      1.00000000</v>
    <i type="logical" name="LSPIRAL"> F  </i>
    <v name="QSPIRAL">      0.00000000      0.00000000      0.00000000</v>
    <i type="logical" name="LZEROZ"> F  </i>
   </separator>
   <separator name="electronic exchange-correlation" >
    <i type="logical" name="LASPH"> F  </i>
    <i type="logical" name="LMETAGGA"> F  </i>
   </separator>
   <separator name="electronic convergence" >
    <i type="int" name="NELM">    60</i>
    <i type="int" name="NELMDL">    -5</i>
    <i type="int" name="NELMIN">     2</i>
    <i name="ENINI">    280.00000000</i>
    <separator name="electronic convergence detail" >
     <i type="logical" name="LDIAG"> T  </i>
     <i type="logical" name="LSUBROT"> F  </i>
     <i name="WEIMIN">      0.00100000</i>
     <i name="EBREAK">      0.00000021</i>
     <i name="DEPER">      0.30000000</i>
     <i type="int" name="NRMM">     4</i>
     <i name="TIME">      0.40000000</i>
    </separator>
   </separator>
   <separator name="electronic mixer" >
    <i name="AMIX">      0.40000000</i>
    <i name="BMIX">      1.00000000</i>
    <i name="AMIN">      0.10000000</i>
    <i name="AMIX_MAG">      1.60000000</i>
    <i name="BMIX_MAG">      1.00000000</i>
    <separator name="electronic mixer details" >
     <i type="int" name="IMIX">     4</i>
     <i type="logical" name="MIXFIRST"> F  </i>
     <i type="int" name="MAXMIX">   -45</i>
     <i name="WC">    100.00000000</i>
     <i type="int" name="INIMIX">     1</i>
     <i type="int" name="MIXPRE">     1</i>
     <i type="int" name="MREMOVE">     5</i>
    </separator>
   </separator>
   <separator name="electronic dipolcorrection" >
    <i type="logical" name="LDIPOL"> F  </i>
    <i type="logical" name="LMONO"> F  </i>
    <i type="int" name="IDIPOL">     0</i>
    <i name="EPSILON">      1.00000000</i>
    <v name="DIPOL">   -100.00000000   -100.00000000   -100.00000000</v>
    <i name="EFIELD">      0.00000000</i>
   </separator>
  </separator>
  <separator name="grids" >
   <i type="int" name="NGX">    42</i>
   <i type="int" name="NGY">    42</i>
   <i type="int" name="NGZ">   126</i>
   <i type="int" name="NGXF">    84</i>
   <i type="int" name="NGYF">    84</i>
   <i type="int" name="NGZF">   252</i>
   <i type="logical" name="ADDGRID"> F  </i>
  </separator>
  <separator name="ionic" >
   <i type="int" name="NSW">   100</i>
   <i type="int" name="IBRION">     1</i>
   <i type="int" name="ISIF">     3</i>
   <i name="PSTRESS">      0.00000000</i>
   <i name="EDIFFG">      0.00100000</i>
   <i type="int" name="NFREE">     0</i>
   <i name="POTIM">      0.50000000</i>
   <i name="SMASS">     -3.00000000</i>
   <i name="SCALEE">      1.00000000</i>
  </separator>
  <separator name="ionic md" >
   <i name="TEBEG">      0.00010000</i>
   <i name="TEEND">      0.00010000</i>
   <i type="int" name="NBLOCK">     1</i>
   <i type="int" name="KBLOCK">   100</i>
   <i type="int" name="NPACO">   256</i>
   <i name="APACO">     16.00000000</i>
  </separator>
  <separator name="symmetry" >
   <i type="int" name="ISYM">     0</i>
   <i name="SYMPREC">      0.00000001</i>
  </separator>
  <separator name="dos" >
   <i type="logical" name="LORBIT"> F  </i>
   <v name="RWIGS">     -1.00000000     -1.00000000     -1.00000000     -1.00000000</v>
   <i type="int" name="NEDOS">   301</i>
   <i name="EMIN">     10.00000000</i>
   <i name="EMAX">    -10.00000000</i>
   <i name="EFERMI">      0.00000000</i>
  </separator>
  <separator name="writing" >
   <i type="int" name="NWRITE">     2</i>
   <i type="logical" name="LWAVE"> F  </i>
   <i type="logical" name="LCHARG"> F  </i>
   <i type="logical" name="LPARD"> F  </i>
   <i type="logical" name="LVTOT"> F  </i>
   <i type="logical" name="LVHAR"> F  </i>
   <i type="logical" name="LELF"> F  </i>
   <i type="logical" name="LOPTICS"> F  </i>
   <v name="STM">      0.00000000      0.00000000      0.00000000      0.00000000      0.00000000      0.00000000      0.00000000</v>
  </separator>
  <separator name="performance" >
   <i type="int" name="NPAR">    40</i>
   <i type="int" name="NSIM">     4</i>
   <i type="int" name="NBLK">    -1</i>
   <i type="logical" name="LPLANE"> F  </i>
   <i type="logical" name="LSCALAPACK"> T  </i>
   <i type="logical" name="LSCAAWARE"> F  </i>
   <i type="logical" name="LSCALU"> F  </i>
   <i type="logical" name="LASYNC"> F  </i>
   <i type="logical" name="LORBITALREAL"> F  </i>
  </separator>
  <separator name="miscellaneous" >
   <i type="int" name="IDIOT">     3</i>
   <i type="logical" name="LMUSIC"> F  </i>
   <v name="POMASS">     50.94100000     95.94000000    183.85000000     32.06600000</v>
   <v name="DARWINR">      0.00000000      0.00000000      0.00000000      0.00000000</v>
   <v name="DARWINV">      1.00000000      1.00000000      1.00000000      1.00000000</v>
   <i type="logical" name="LCORR"> T  </i>
  </separator>
  <i type="logical" name="GGA_COMPAT"> T  </i>
  <i type="logical" name="LBERRY"> F  </i>
  <i type="int" name="ICORELEVEL">     0</i>
  <i type="logical" name="LDAU"> F  </i>
  <i type="int" name="I_CONSTRAINED_M">     0</i>
  <separator name="electronic exchange-correlation" >
   <i type="string" name="GGA">--</i>
   <i type="int" name="VOSKOWN">     0</i>
   <i type="logical" name="LHFCALC"> F  </i>
   <i type="string" name="PRECFOCK"></i>
   <i type="logical" name="LSYMGRAD"> F  </i>
   <i type="logical" name="LHFONE"> F  </i>
   <i type="logical" name="LRHFCALC"> F  </i>
   <i type="logical" name="LTHOMAS"> F  </i>
   <i type="logical" name="LMODELHF"> F  </i>
   <i name="ENCUT4O">     -1.00000000</i>
   <i type="int" name="EXXOEP">     0</i>
   <i type="int" name="FOURORBIT">     0</i>
   <i name="AEXX">      0.00000000</i>
   <i name="HFALPHA">      0.00000000</i>
   <i name="MCALPHA">      0.00000000</i>
   <i name="ALDAX">      1.00000000</i>
   <i name="AGGAX">      1.00000000</i>
   <i name="ALDAC">      1.00000000</i>
   <i name="AGGAC">      1.00000000</i>
   <i type="int" name="NKREDX">     1</i>
   <i type="int" name="NKREDY">     1</i>
   <i type="int" name="NKREDZ">     1</i>
   <i type="logical" name="SHIFTRED"> F  </i>
   <i type="logical" name="ODDONLY"> F  </i>
   <i type="logical" name="EVENONLY"> F  </i>
   <i type="int" name="LMAXFOCK">     0</i>
   <i type="int" name="NMAXFOCKAE">     0</i>
   <i type="logical" name="LFOCKAEDFT"> F  </i>
   <i name="HFSCREEN">      0.00000000</i>
   <i name="HFSCREENC">      0.00000000</i>
   <i type="int" name="NBANDSGWLOW">     0</i>
  </separator>
  <separator name="vdW DFT" >
   <i type="logical" name="LUSE_VDW"> F  </i>
   <i name="Zab_VDW">     -0.84910000</i>
   <i name="PARAM1">      0.12340000</i>
   <i name="PARAM2">      1.00000000</i>
   <i name="PARAM3">      0.00000000</i>
  </separator>
  <separator name="model GW" >
   <i type="int" name="MODEL_GW">     0</i>
   <i name="MODEL_EPS0">     58.26239943</i>
   <i name="MODEL_ALPHA">      1.00000000</i>
  </separator>
  <separator name="linear response parameters" >
   <i type="logical" name="LEPSILON"> F  </i>
   <i type="logical" name="LRPA"> F  </i>
   <i type="logical" name="LNABLA"> F  </i>
   <i type="logical" name="LVEL"> F  </i>
   <i type="int" name="KINTER">     0</i>
   <i name="CSHIFT">      0.10000000</i>
   <i name="OMEGAMAX">     -1.00000000</i>
   <i name="DEG_THRESHOLD">      0.00200000</i>
  </separator>
  <separator name="orbital magnetization" >
   <i type="logical" name="NUCIND"> F  </i>
   <v name="MAGPOS">      0.00000000      0.00000000      0.00000000</v>
   <i type="logical" name="LNICSALL"> T  </i>
   <i type="logical" name="ORBITALMAG"> F  </i>
   <i type="logical" name="LMAGBLOCH"> F  </i>
   <i type="logical" name="LCHIMAG"> F  </i>
   <i type="logical" name="LGAUGE"> T  </i>
   <i type="int" name="MAGATOM">     0</i>
   <v name="MAGDIPOL">      0.00000000      0.00000000      0.00000000</v>
   <v name="AVECCONST">      0.00000000      0.00000000      0.00000000</v>
  </separator>
  <separator name="response functions" >
   <i type="logical" name="LADDER"> F  </i>
   <i type="logical" name="LFXC"> F  </i>
   <i type="logical" name="LHARTREE"> T  </i>
   <i type="int" name="IBSE">     0</i>
   <v type="int" name="KPOINT">    -1     0     0     0</v>
   <i type="logical" name="LTCTE"> F  </i>
   <i type="logical" name="LTETE"> F  </i>
   <i type="logical" name="LTRIPLET"> F  </i>
   <i type="logical" name="LFXCEPS"> F  </i>
   <i type="logical" name="LFXHEG"> F  </i>
   <i type="int" name="NATURALO">     0</i>
   <i type="logical" name="L2ORDER"> F  </i>
   <i type="logical" name="LUSEW"> F  </i>
   <i name="ENCUTGW">     -2.00000000</i>
   <i name="ENCUTGWSOFT">     -2.00000000</i>
   <i name="ENCUTLF">     -1.00000000</i>
   <i type="int" name="LMAXMP2">    -1</i>
   <i name="SCISSOR">      0.00000000</i>
   <i type="int" name="NOMEGA">     0</i>
   <i type="int" name="NOMEGAR">     0</i>
   <i type="int" name="NBANDSGW">    -1</i>
   <i type="int" name="NBANDSO">    -1</i>
   <i type="int" name="NBANDSV">    -1</i>
   <i type="int" name="NELM">     1</i>
   <i type="int" name="NELMHF">     1</i>
   <i type="int" name="DIM">     3</i>
   <i type="int" name="ANTIRES">     0</i>
   <i name="OMEGAMAX">    -30.00000000</i>
   <i name="OMEGAMIN">    -30.00000000</i>
   <i name="OMEGATL">   -200.00000000</i>
   <i type="int" name="OMEGAGRID">     0</i>
   <i name="CSHIFT">     -0.10000000</i>
   <i type="logical" name="SELFENERGY"> F  </i>
   <i type="logical" name="LSPECTRAL"> F  </i>
   <i type="logical" name="LSPECTRALGW"> F  </i>
   <i type="logical" name="LSINGLES"> F  </i>
   <i type="logical" name="LFERMIGW"> F  </i>
   <i type="logical" name="ODDONLYGW"> F  </i>
   <i type="logical" name="EVENONLYGW"> F  </i>
   <i type="int" name="NKREDLFX">     1</i>
   <i type="int" name="NKREDLFY">     1</i>
   <i type="int" name="NKREDLFZ">     1</i>
   <i type="int" name="MAXMEM">  1800</i>
   <i type="int" name="TELESCOPE">     0</i>
   <i type="int" name="TAUPAR">     1</i>
   <i type="int" name="OMEGAPAR">    -1</i>
   <i name="LAMBDA">      1.00000000</i>
  </separator>
  <separator name="External order field" >
   <i name="OFIELD_KAPPA">      0.00000000</i>
   <v name="OFIELD_K">      0.00000000      0.00000000      0.00000000</v>
   <i name="OFIELD_Q6_NEAR">      0.00000000</i>
   <i name="OFIELD_Q6_FAR">      0.00000000</i>
   <i name="OFIELD_A">      0.00000000</i>
  </separator>
 </parameters>
 <atominfo>
  <atoms>      27 </atoms>
  <types>       4 </types>
  <array name="atoms" >
   <dimension dim="1">ion</dimension>
   <field type="string">element</field>
   <field type="int">atomtype</field>
   <set>
    <rc><c>V </c><c>   1</c></rc>
    <rc><c>V </c><c>   1</c></rc>
    <rc><c>V </c><c>   1</c></rc>
    <rc><c>Mo</c><c>   2</c></rc>
    <rc><c>Mo</c><c>   2</c></rc>
    <rc><c>Mo</c><c>   2</c></rc>
    <rc><c>W </c><c>   3</c></rc>
    <rc><c>W </c><c>   3</c></rc>
    <rc><c>W </c><c>   3</c></rc>
    <rc><c>S </c><c>   4</c></rc>
    <rc><c>S </c><c>   4</c></rc>
    <rc><c>S </c><c>   4</c></rc>
    <rc><c>S </c><c>   4</c></rc>
    <rc><c>S </c><c>   4</c></rc>
    <rc><c>S </c><c>   4</c></rc>
    <rc><c>S </c><c>   4</c></rc>
    <rc><c>S </c><c>   4</c></rc>
    <rc><c>S </c><c>   4</c></rc>
    <rc><c>S </c><c>   4</c></rc>
    <rc><c>S </c><c>   4</c></rc>
    <rc><c>S </c><c>   4</c></rc>
    <rc><c>S </c><c>   4</c></rc>
    <rc><c>S </c><c>   4</c></rc>
    <rc><c>S </c><c>   4</c></rc>
    <rc><c>S </c><c>   4</c></rc>
    <rc><c>S </c><c>   4</c></rc>
    <rc><c>S </c><c>   4</c></rc>
   </set>
  </array>
  <array name="atomtypes" >
   <dimension dim="1">type</dimension>
   <field type="int">atomspertype</field>
   <field type="string">element</field>
   <field>mass</field>
   <field>valence</field>
   <field type="string">pseudopotential</field>
   <set>
    <rc><c>   3</c><c>V </c><c>     50.94100000</c><c>      5.00000000</c><c> PAW_PBE V 08Apr2002                    </c></rc>
    <rc><c>   3</c><c>Mo</c><c>     95.94000000</c><c>      6.00000000</c><c> PAW_PBE Mo 08Apr2002                   </c></rc>
    <rc><c>   3</c><c>W </c><c>    183.85000000</c><c>      6.00000000</c><c> PAW_PBE W 08Apr2002                    </c></rc>
    <rc><c>  18</c><c>S </c><c>     32.06600000</c><c>      6.00000000</c><c>  PAW_PBE S 17Jan2003                   </c></rc>
   </set>
  </array>
 </atominfo>
 <structure name="initialpos" >
  <crystal>
   <varray name="basis" >
    <v>       8.66999996       5.03999989       0.00000000 </v>
    <v>      -8.66999982       5.04000013       0.00000000 </v>
    <v>       0.00000000       0.00000000      30.00000000 </v>
   </varray>
   <i name="volume">   2621.80797419 </i>
   <varray name="rec_basis" >
    <v>       0.05767013       0.09920635       0.00000000 </v>
    <v>      -0.05767013       0.09920635       0.00000000 </v>
    <v>       0.00000000       0.00000000       0.03333333 </v>
   </varray>
  </crystal>
  <varray name="positions" >
   <v>       0.66666669       0.00000000       0.00000000 </v>
   <v>       0.33333334       0.66666669       0.00000000 </v>
   <v>       0.00000000       0.66666669       0.00000000 </v>
   <v>       0.66666669       0.33333334       0.00000000 </v>
   <v>       0.00000000       0.00000000       0.00000000 </v>
   <v>       0.33333334       0.33333334       0.00000000 </v>
   <v>       1.00000000       0.33333334       0.00000000 </v>
   <v>       0.33333334       0.00000000       0.00000000 </v>
   <v>       0.66666669       0.66666669       0.00000000 </v>
   <v>       0.11068511       0.22244981       0.95539999 </v>
   <v>       0.22244981       0.11068511       0.04460000 </v>
   <v>       0.11068511       0.55578315       0.95539999 </v>
   <v>       0.22244981       0.44401845       0.04460000 </v>
   <v>       0.11068511       0.88911647       0.95539999 </v>
   <v>       0.22244981       0.77735180       0.04460000 </v>
   <v>       0.44401845       0.22244981       0.95539999 </v>
   <v>       0.55578315       0.11068511       0.04460000 </v>
   <v>       0.44401845       0.55578315       0.95539999 </v>
   <v>       0.55578315       0.44401845       0.04460000 </v>
   <v>       0.44401845       0.88911647       0.95539999 </v>
   <v>       0.55578315       0.77735180       0.04460000 </v>
   <v>       0.77735180       0.22244981       0.95539999 </v>
   <v>       0.88911647       0.11068511       0.04460000 </v>
   <v>       0.77735180       0.55578315       0.95539999 </v>
   <v>       0.88911647       0.44401845       0.04460000 </v>
   <v>       0.77735180       0.88911647       0.95539999 </v>
   <v>       0.88911647       0.77735180       0.04460000 </v>
  </varray>
 </structure>
 <calculation>
  <scstep>
   <time name="dav">   21.55   21.61</time>
   <time name="total">   21.60   21.66</time>
   <energy>
    <i name="alphaZ">     81.65567618 </i>
    <i name="ewald">  41890.23009643 </i>
    <i name="hartreedc"> -47722.84936371 </i>
    <i name="XCdc">   -242.93160847 </i>
    <i name="pawpsdc">   3467.42045192 </i>
    <i name="pawaedc">  -2871.19716117 </i>
    <i name="eentropy">     -0.53849980 </i>
    <i name="bandstr">   -238.92842162 </i>
    <i name="atom">   6761.44252427 </i>
    <i name="e_fr_energy">   1124.30369404 </i>
    <i name="e_wo_entrp">   1124.84219383 </i>
    <i name="e_0_energy">   1124.57294393 </i>
   </energy>
  </scstep>
  <scstep>
   <time name="dav">   27.37   27.43</time>
   <time name="total">   27.37   27.44</time>
   <energy>
    <i name="e_fr_energy">     -2.54437805 </i>
    <i name="e_wo_entrp">     -2.39059749 </i>
    <i name="e_0_energy">     -2.46748777 </i>
   </energy>
  </scstep>
  <scstep>
   <time name="dav">   27.29   27.36</time>
   <time name="total">   27.29   27.36</time>
   <energy>
    <i name="e_fr_energy">   -199.42678559 </i>
    <i name="e_wo_entrp">   -199.15550085 </i>
    <i name="e_0_energy">   -199.29114322 </i>
   </energy>
  </scstep>
  <scstep>
   <time name="dav">   29.91   29.99</time>
   <time name="total">   29.92   29.99</time>
   <energy>
    <i name="e_fr_energy">   -208.93891590 </i>
    <i name="e_wo_entrp">   -208.64088419 </i>
    <i name="e_0_energy">   -208.78990005 </i>
   </energy>
  </scstep>
  <scstep>
   <time name="dav">   28.84   28.91</time>
   <time name="total">   29.31   29.39</time>
   <energy>
    <i name="e_fr_energy">   -209.27287833 </i>
    <i name="e_wo_entrp">   -208.97845263 </i>
    <i name="e_0_energy">   -209.12566548 </i>
   </energy>
  </scstep>
  <scstep>
   <time name="dav">   30.96   31.03</time>
   <time name="total">   31.45   31.54</time>
   <energy>
    <i name="e_fr_energy">   -237.42825440 </i>
    <i name="e_wo_entrp">   -237.14219668 </i>
    <i name="e_0_energy">   -237.28522554 </i>
   </energy>
  </scstep>
  <scstep>
   <time name="dav">   32.24   32.32</time>
   <time name="total">   32.74   32.83</time>
   <energy>
    <i name="e_fr_energy">   -196.70966270 </i>
    <i name="e_wo_entrp">   -196.38238741 </i>
    <i name="e_0_energy">   -196.54602505 </i>
   </energy>
  </scstep>
  <scstep>
   <time name="dav">   28.38   28.45</time>
   <time name="total">   28.89   28.97</time>
   <energy>
    <i name="e_fr_energy">   -190.35888434 </i>
    <i name="e_wo_entrp">   -190.09373580 </i>
    <i name="e_0_energy">   -190.22631007 </i>
   </energy>
  </scstep>
  <scstep>
   <time name="dav">   29.34   29.41</time>
   <time name="total">   29.86   29.94</time>
   <energy>
    <i name="e_fr_energy">   -188.34438069 </i>
    <i name="e_wo_entrp">   -188.02171771 </i>
    <i name="e_0_energy">   -188.18304920 </i>
   </energy>
  </scstep>
  <scstep>
   <time name="dav">   32.03   32.11</time>
   <time name="total">   32.56   32.65</time>
   <energy>
    <i name="e_fr_energy">   -187.12764182 </i>
    <i name="e_wo_entrp">   -186.78015883 </i>
    <i name="e_0_energy">   -186.95390032 </i>
   </energy>
  </scstep>
  <scstep>
   <time name="dav">   30.00   30.07</time>
   <time name="total">   30.53   30.61</time>
   <energy>
    <i name="e_fr_energy">   -187.11400364 </i>
    <i name="e_wo_entrp">   -186.77351682 </i>
    <i name="e_0_energy">   -186.94376023 </i>
   </energy>
  </scstep>
  <scstep>
   <time name="dav">   29.79   29.86</time>
   <time name="total">   30.31   30.40</time>
   <energy>
    <i name="e_fr_energy">   -187.14420782 </i>
    <i name="e_wo_entrp">   -186.81080852 </i>
    <i name="e_0_energy">   -186.97750817 </i>
   </energy>
  </scstep>
  <scstep>
   <time name="dav">   31.82   31.90</time>
   <time name="total">   32.35   32.44</time>
   <energy>
    <i name="e_fr_energy">   -186.99050261 </i>
    <i name="e_wo_entrp">   -186.65534786 </i>
    <i name="e_0_energy">   -186.82292524 </i>
   </energy>
  </scstep>
  <scstep>
   <time name="dav">   31.58   31.65</time>
   <time name="total">   32.11   32.19</time>
   <energy>
    <i name="e_fr_energy">   -186.95792739 </i>
    <i name="e_wo_entrp">   -186.61463299 </i>
    <i name="e_0_energy">   -186.78628019 </i>
   </energy>
  </scstep>
  <scstep>
   <time name="dav">   31.23   31.31</time>
   <time name="total">   31.76   31.85</time>
   <energy>
    <i name="e_fr_energy">   -186.95688355 </i>
    <i name="e_wo_entrp">   -186.61367253 </i>
    <i name="e_0_energy">   -186.78527804 </i>
   </energy>
  </scstep>
  <scstep>
   <time name="dav">   32.70   32.78</time>
   <time name="total">   33.23   33.32</time>
   <energy>
    <i name="e_fr_energy">   -186.95353858 </i>
    <i name="e_wo_entrp">   -186.61066176 </i>
    <i name="e_0_energy">   -186.78210017 </i>
   </energy>
  </scstep>
  <scstep>
   <time name="dav">   31.21   31.28</time>
   <time name="total">   31.74   31.82</time>
   <energy>
    <i name="e_fr_energy">   -186.95150577 </i>
    <i name="e_wo_entrp">   -186.61028127 </i>
    <i name="e_0_energy">   -186.78089352 </i>
   </energy>
  </scstep>
  <scstep>
   <time name="dav">   29.43   29.50</time>
   <time name="total">   29.96   30.04</time>
   <energy>
    <i name="e_fr_energy">   -186.95123469 </i>
    <i name="e_wo_entrp">   -186.60947880 </i>
    <i name="e_0_energy">   -186.78035675 </i>
   </energy>
  </scstep>
  <scstep>
   <time name="dav">   22.98   23.04</time>
   <time name="total">   23.02   23.08</time>
   <energy>
    <i name="alphaZ">     81.65567618 </i>
    <i name="ewald">  41890.23009643 </i>
    <i name="hartreedc"> -47818.43715086 </i>
    <i name="XCdc">   -231.67365090 </i>
    <i name="pawpsdc">   4194.37348151 </i>
    <i name="pawaedc">  -3612.43659137 </i>
    <i name="eentropy">     -0.34179270 </i>
    <i name="bandstr">  -1451.76388913 </i>
    <i name="atom">   6761.44252427 </i>
    <i name="e_fr_energy">   -186.95129656 </i>
    <i name="e_wo_entrp">   -186.60950386 </i>
    <i name="e_0_energy">   -186.78040021 </i>
   </energy>
  </scstep>
  <structure>
   <crystal>
    <varray name="basis" >
     <v>       8.66999996       5.03999989       0.00000000 </v>
     <v>      -8.66999982       5.04000013       0.00000000 </v>
     <v>       0.00000000       0.00000000      30.00000000 </v>
    </varray>
    <i name="volume">   2621.80797419 </i>
    <varray name="rec_basis" >
     <v>       0.05767013       0.09920635       0.00000000 </v>
     <v>      -0.05767013       0.09920635       0.00000000 </v>
     <v>       0.00000000       0.00000000       0.03333333 </v>
    </varray>
   </crystal>
   <varray name="positions" >
    <v>       0.66666669       0.00000000       0.00000000 </v>
    <v>       0.33333334       0.66666669       0.00000000 </v>
    <v>       0.00000000       0.66666669       0.00000000 </v>
    <v>       0.66666669       0.33333334       0.00000000 </v>
    <v>       0.00000000       0.00000000       0.00000000 </v>
    <v>       0.33333334       0.33333334       0.00000000 </v>
    <v>       1.00000000       0.33333334       0.00000000 </v>
    <v>       0.33333334       0.00000000       0.00000000 </v>
    <v>       0.66666669       0.66666669       0.00000000 </v>
    <v>       0.11068511       0.22244981       0.95539999 </v>
    <v>       0.22244981       0.11068511       0.04460000 </v>
    <v>       0.11068511       0.55578315       0.95539999 </v>
    <v>       0.22244981       0.44401845       0.04460000 </v>
    <v>       0.11068511       0.88911647       0.95539999 </v>
    <v>       0.22244981       0.77735180       0.04460000 </v>
    <v>       0.44401845       0.22244981       0.95539999 </v>
    <v>       0.55578315       0.11068511       0.04460000 </v>
    <v>       0.44401845       0.55578315       0.95539999 </v>
    <v>       0.55578315       0.44401845       0.04460000 </v>
    <v>       0.44401845       0.88911647       0.95539999 </v>
    <v>       0.55578315       0.77735180       0.04460000 </v>
    <v>       0.77735180       0.22244981       0.95539999 </v>
    <v>       0.88911647       0.11068511       0.04460000 </v>
    <v>       0.77735180       0.55578315       0.95539999 </v>
    <v>       0.88911647       0.44401845       0.04460000 </v>
    <v>       0.77735180       0.88911647       0.95539999 </v>
    <v>       0.88911647       0.77735180       0.04460000 </v>
   </varray>
  </structure>
  <varray name="forces" >
   <v>       0.00097122       0.18157042       0.07482266 </v>
   <v>       0.14506835      -0.08880190       0.00195195 </v>
   <v>      -0.15135928      -0.06993255      -0.07604685 </v>
   <v>      -0.26451350      -0.16559262      -0.07862413 </v>
   <v>       0.00166523       0.28331184       0.07465759 </v>
   <v>       0.26980140      -0.14557540       0.00300864 </v>
   <v>       0.21545833      -0.11339748       0.00424111 </v>
   <v>      -0.40585098       0.22032416      -0.00718613 </v>
   <v>       0.20003135      -0.12663080       0.00300767 </v>
   <v>      -0.04666340       0.02940359      -2.88989014 </v>
   <v>       0.02787931      -0.00828591       2.94522133 </v>
   <v>      -0.26665210       0.52651487      -1.42561171 </v>
   <v>      -0.60425487       0.54435255       2.13523143 </v>
   <v>       0.63926463      -0.57562147      -2.14748890 </v>
   <v>       0.24168225      -0.53086605       1.38131093 </v>
   <v>       0.20730391      -0.13071293      -2.93924314 </v>
   <v>       0.70010202      -0.15654980       2.11195206 </v>
   <v>      -0.65454949       0.14221321      -2.09380494 </v>
   <v>      -0.23400131       0.14199754       2.88312151 </v>
   <v>       0.75237546       0.00025743      -1.43017463 </v>
   <v>      -0.75971003       0.01844833       1.47309814 </v>
   <v>       0.59788211      -0.54154865      -2.13668859 </v>
   <v>      -0.61569448      -0.57242160       2.19568289 </v>
   <v>       0.38059819       0.71552978      -2.20880598 </v>
   <v>      -0.36225799       0.70275306       2.10796881 </v>
   <v>      -0.65793713      -0.14799983      -2.05942699 </v>
   <v>       0.64336082      -0.13273978       2.09771541 </v>
  </varray>
  <varray name="stress" >
   <v>       7.51474336      -0.07492932      -1.56185786 </v>
   <v>      -0.07492929       4.48465082      -0.00909437 </v>
   <v>      -1.56185794      -0.00909429      31.03901852 </v>
  </varray>
  <energy>
   <i name="e_fr_energy">   -186.95129656 </i>
   <i name="e_wo_entrp">   -186.78040021 </i>
   <i name="e_0_energy">     -0.34179270 </i>
  </energy>
  <time name="totalsc">  608.04  609.67</time>
 </calculation>
 <calculation>
  <scstep>
   <time name="dav">   21.52   21.57</time>
   <time name="total">   22.06   22.11</time>
   <energy>
    <i name="alphaZ">     78.86597341 </i>
    <i name="ewald">  39351.93115674 </i>
    <i name="hartreedc"> -45300.77358562 </i>
    <i name="XCdc">   -239.12905443 </i>
    <i name="pawpsdc">   4193.09306656 </i>
    <i name="pawaedc">  -3611.13589359 </i>
    <i name="eentropy">     -0.27647322 </i>
    <i name="bandstr">  -1421.59603004 </i>
    <i name="atom">   6761.44252427 </i>
    <i name="e_fr_energy">   -187.57831593 </i>
    <i name="e_wo_entrp">   -187.30184271 </i>
    <i name="e_0_energy">   -187.44007932 </i>
   </energy>
  </scstep>
  <scstep>
   <time name="dav">   29.63   29.70</time>
   <time name="total">   30.16   30.24</time>
   <energy>
    <i name="e_fr_energy">   -189.80175482 </i>
    <i name="e_wo_entrp">   -189.44888550 </i>
    <i name="e_0_energy">   -189.62532016 </i>
   </energy>
  </scstep>
  <scstep>
   <time name="dav">   29.90   29.97</time>
   <time name="total">   30.45   30.53</time>
   <energy>
    <i name="e_fr_energy">   -189.32005821 </i>
    <i name="e_wo_entrp">   -189.05761421 </i>
    <i name="e_0_energy">   -189.18883621 </i>
   </energy>
  </scstep>
  <scstep>
   <time name="dav">   30.52   30.59</time>
   <time name="total">   31.06   31.14</time>
   <energy>
    <i name="e_fr_energy">   -188.82997749 </i>
    <i name="e_wo_entrp">   -188.54999645 </i>
    <i name="e_0_energy">   -188.68998697 </i>
   </energy>
  </scstep>
  <scstep>
   <time name="dav">   29.16   29.23</time>
   <time name="total">   29.70   29.78</time>
   <energy>
    <i name="e_fr_energy">   -188.91379329 </i>
    <i name="e_wo_entrp">   -188.63032790 </i>
    <i name="e_0_energy">   -188.77206060 </i>
   </energy>
  </scstep>
  <scstep>
   <time name="dav">   29.75   29.82</time>
   <time name="total">   30.29   30.37</time>
   <energy>
    <i name="e_fr_energy">   -188.84030813 </i>
    <i name="e_wo_entrp">   -188.55680029 </i>
    <i name="e_0_energy">   -188.69855421 </i>
   </energy>
  </scstep>
  <scstep>
   <time name="dav">   30.14   30.21</time>
   <time name="total">   30.68   30.76</time>
   <energy>
    <i name="e_fr_energy">   -188.74222160 </i>
    <i name="e_wo_entrp">   -188.46474127 </i>
    <i name="e_0_energy">   -188.60348144 </i>
   </energy>
  </scstep>
  <scstep>
   <time name="dav">   28.58   28.65</time>
   <time name="total">   29.13   29.21</time>
   <energy>
    <i name="e_fr_energy">   -188.74132094 </i>
    <i name="e_wo_entrp">   -188.46409196 </i>
    <i name="e_0_energy">   -188.60270645 </i>
   </energy>
  </scstep>
  <scstep>
   <time name="dav">   28.28   28.35</time>
   <time name="total">   28.82   28.89</time>
   <energy>
    <i name="e_fr_energy">   -188.72710722 </i>
    <i name="e_wo_entrp">   -188.44877007 </i>
    <i name="e_0_energy">   -188.58793865 </i>
   </energy>
  </scstep>
  <scstep>
   <time name="dav">   27.55   27.62</time>
   <time name="total">   28.09   28.17</time>
   <energy>
    <i name="e_fr_energy">   -188.72416366 </i>
    <i name="e_wo_entrp">   -188.44686427 </i>
    <i name="e_0_energy">   -188.58551397 </i>
   </energy>
  </scstep>
  <scstep>
   <time name="dav">   29.39   29.46</time>
   <time name="total">   29.93   30.01</time>
   <energy>
    <i name="e_fr_energy">   -188.72392870 </i>
    <i name="e_wo_entrp">   -188.44736906 </i>
    <i name="e_0_energy">   -188.58564888 </i>
   </energy>
  </scstep>
  <scstep>
   <time name="dav">   27.04   27.10</time>
   <time name="total">   27.58   27.65</time>
   <energy>
    <i name="e_fr_energy">   -188.72389389 </i>
    <i name="e_wo_entrp">   -188.44738583 </i>
    <i name="e_0_energy">   -188.58563986 </i>
   </energy>
  </scstep>
  <scstep>
   <time name="dav">   17.31   17.35</time>
   <time name="total">   17.85   17.90</time>
   <energy>
    <i name="e_fr_energy">   -188.72405266 </i>
    <i name="e_wo_entrp">   -188.44741991 </i>
    <i name="e_0_energy">   -188.58573628 </i>
   </energy>
  </scstep>
  <scstep>
   <time name="dav">   19.18   19.22</time>
   <time name="total">   19.72   19.77</time>
   <energy>
    <i name="e_fr_energy">   -188.72422095 </i>
    <i name="e_wo_entrp">   -188.44755882 </i>
    <i name="e_0_energy">   -188.58588988 </i>
   </energy>
  </scstep>
  <scstep>
   <time name="dav">   17.66   17.70</time>
   <time name="total">   17.70   17.75</time>
   <energy>
    <i name="alphaZ">     78.86597341 </i>
    <i name="ewald">  39351.93115674 </i>
    <i name="hartreedc"> -45317.57281127 </i>
    <i name="XCdc">   -238.00716261 </i>
    <i name="pawpsdc">   3948.46535667 </i>
    <i name="pawaedc">  -3362.97213314 </i>
    <i name="eentropy">     -0.27670041 </i>
    <i name="bandstr">  -1410.60052069 </i>
    <i name="atom">   6761.44252427 </i>
    <i name="e_fr_energy">   -188.72431701 </i>
    <i name="e_wo_entrp">   -188.44761660 </i>
    <i name="e_0_energy">   -188.58596681 </i>
   </energy>
  </scstep>
  <structure>
   <crystal>
    <varray name="basis" >
     <v>       8.85939403       5.10418757       0.00000000 </v>
     <v>      -8.86160224       5.10798672       0.00000000 </v>
     <v>       0.00000000       0.00000000      30.00000000 </v>
    </varray>
    <i name="volume">   2714.54841272 </i>
    <varray name="rec_basis" >
     <v>       0.05645123       0.09793455       0.00000000 </v>
     <v>      -0.05640925       0.09791014       0.00000000 </v>
     <v>       0.00000000       0.00000000       0.03333333 </v>
    </varray>
   </crystal>
   <varray name="positions" >
    <v>       0.66753838       0.00086629       0.00012032 </v>
    <v>       0.33331194       0.66583808       0.00000314 </v>
    <v>      -0.00075580       0.66675310      -0.00012229 </v>
    <v>       0.66513825       0.33327674      -0.00012643 </v>
    <v>       0.00136056       0.00135129       0.00012006 </v>
    <v>       0.33338725       0.33188599       0.00000484 </v>
    <v>       1.00005672       0.33219119       0.00000682 </v>
    <v>       0.33325867       0.00218361      -0.00001156 </v>
    <v>       0.66661715       0.66550412       0.00000484 </v>
    <v>       0.11069601       0.22272036       0.95075279 </v>
    <v>       0.22248772       0.11056789       0.04933618 </v>
    <v>       0.11246313       0.55904491       0.95310748 </v>
    <v>       0.22337393       0.44830485       0.04803364 </v>
    <v>       0.10970874       0.88458302       0.95194664 </v>
    <v>       0.22058150       0.77413868       0.04682127 </v>
    <v>       0.44396962       0.22124747       0.95067343 </v>
    <v>       0.55698170       0.10798807       0.04799620 </v>
    <v>       0.44287802       0.55828484       0.95203297 </v>
    <v>       0.55581172       0.44534908       0.04923631 </v>
    <v>       0.44611291       0.88702447       0.95310014 </v>
    <v>       0.55375781       0.77955372       0.04696887 </v>
    <v>       0.77642336       0.21819457       0.95196401 </v>
    <v>       0.88466391       0.10965847       0.04813085 </v>
    <v>       0.78183519       0.55814878       0.95184803 </v>
    <v>       0.89147197       0.44838967       0.04798980 </v>
    <v>       0.77481299       0.89023863       0.95208825 </v>
    <v>       0.89027111       0.77492657       0.04797331 </v>
   </varray>
  </structure>
  <varray name="forces" >
   <v>       0.03548023       0.19061734      -0.05673871 </v>
   <v>       0.12736566      -0.06945565       0.00028711 </v>
   <v>      -0.14752080      -0.12754237       0.05422630 </v>
   <v>      -0.41766349      -0.19562111       0.04708132 </v>
   <v>      -0.03716159       0.46056587      -0.04444226 </v>
   <v>       0.42836699      -0.24769324      -0.00066811 </v>
   <v>       0.30185233      -0.15569272       0.01299480 </v>
   <v>      -0.56476083       0.32936675       0.00474471 </v>
   <v>       0.28627489      -0.18951100      -0.01732989 </v>
   <v>      -0.14131738       0.01249833      -0.12343693 </v>
   <v>       0.14055753       0.00449323       0.25537017 </v>
   <v>       0.05709427      -0.07764785       0.12727180 </v>
   <v>      -0.07241625      -0.06061744      -0.05131782 </v>
   <v>       0.08748344       0.05816140       0.02569764 </v>
   <v>      -0.06379015       0.07980773      -0.24125616 </v>
   <v>       0.05115748      -0.10862731      -0.26490828 </v>
   <v>      -0.02604939      -0.11772651      -0.01785098 </v>
   <v>       0.03108244       0.10531894       0.03573732 </v>
   <v>      -0.06445841       0.10812191       0.13326133 </v>
   <v>      -0.11051293      -0.00073894       0.26488235 </v>
   <v>       0.10737729       0.00574774      -0.14815311 </v>
   <v>       0.07320794       0.05547418       0.05757906 </v>
   <v>      -0.08272584       0.04738143       0.09117962 </v>
   <v>      -0.11030466       0.05604363      -0.07878255 </v>
   <v>       0.11151809       0.04971717      -0.17729932 </v>
   <v>       0.02481208      -0.11136424       0.14900583 </v>
   <v>      -0.02494893      -0.10107728      -0.03713524 </v>
  </varray>
  <varray name="stress" >
   <v>     -19.99284308       0.00943186       0.05885247 </v>
   <v>       0.00943194     -19.53937937       0.03160058 </v>
   <v>       0.05885267       0.03160076      -1.66512445 </v>
  </varray>
  <energy>
   <i name="e_fr_energy">   -188.72431701 </i>
   <i name="e_wo_entrp">   -188.58596681 </i>
   <i name="e_0_energy">     -0.27670041 </i>
  </energy>
  <time name="totalsc">  445.32  446.51</time>
 </calculation>
 <calculation>
  <scstep>
   <time name="dav">   23.31   23.37</time>
   <time name="total">   23.85   23.91</time>
   <energy>
    <i name="alphaZ">     82.30104021 </i>
    <i name="ewald">  41281.55466492 </i>
    <i name="hartreedc"> -47278.05246322 </i>
    <i name="XCdc">   -233.86500251 </i>
    <i name="pawpsdc">   3948.41726146 </i>
    <i name="pawaedc">  -3362.92437900 </i>
    <i name="eentropy">     -0.23298846 </i>
    <i name="bandstr">  -1389.30882516 </i>
    <i name="atom">   6761.44252427 </i>
    <i name="e_fr_energy">   -190.66816749 </i>
    <i name="e_wo_entrp">   -190.43517903 </i>
    <i name="e_0_energy">   -190.55167326 </i>
   </energy>
  </scstep>
  <scstep>
   <time name="dav">   29.16   29.23</time>
   <time name="total">   29.68   29.76</time>
   <energy>
    <i name="e_fr_energy">   -190.59616737 </i>
    <i name="e_wo_entrp">   -190.36863676 </i>
    <i name="e_0_energy">   -190.48240206 </i>
   </energy>
  </scstep>
  <scstep>
   <time name="dav">   29.72   29.79</time>
   <time name="total">   30.24   30.32</time>
   <energy>
    <i name="e_fr_energy">   -190.15443331 </i>
    <i name="e_wo_entrp">   -189.90181328 </i>
    <i name="e_0_energy">   -190.02812330 </i>
   </energy>
  </scstep>
  <scstep>
   <time name="dav">   31.44   31.52</time>
   <time name="total">   31.97   32.05</time>
   <energy>
    <i name="e_fr_energy">   -189.93363522 </i>
    <i name="e_wo_entrp">   -189.70377892 </i>
    <i name="e_0_energy">   -189.81870707 </i>
   </energy>
  </scstep>
  <scstep>
   <time name="dav">   29.89   29.96</time>
   <time name="total">   30.42   30.50</time>
   <energy>
    <i name="e_fr_energy">   -189.89326142 </i>
    <i name="e_wo_entrp">   -189.66315366 </i>
    <i name="e_0_energy">   -189.77820754 </i>
   </energy>
  </scstep>
  <scstep>
   <time name="dav">   30.13   30.20</time>
   <time name="total">   30.66   30.74</time>
   <energy>
    <i name="e_fr_energy">   -189.83560941 </i>
    <i name="e_wo_entrp">   -189.60053825 </i>
    <i name="e_0_energy">   -189.71807383 </i>
   </energy>
  </scstep>
  <scstep>
   <time name="dav">   28.61   28.68</time>
   <time name="total">   29.17   29.25</time>
   <energy>
    <i name="e_fr_energy">   -189.82883372 </i>
    <i name="e_wo_entrp">   -189.59498583 </i>
    <i name="e_0_energy">   -189.71190978 </i>
   </energy>
  </scstep>
  <scstep>
   <time name="dav">   27.86   27.92</time>
   <time name="total">   28.38   28.46</time>
   <energy>
    <i name="e_fr_energy">   -189.82879125 </i>
    <i name="e_wo_entrp">   -189.59481062 </i>
    <i name="e_0_energy">   -189.71180094 </i>
   </energy>
  </scstep>
  <scstep>
   <time name="dav">   26.83   26.90</time>
   <time name="total">   27.36   27.43</time>
   <energy>
    <i name="e_fr_energy">   -189.82905398 </i>
    <i name="e_wo_entrp">   -189.59507143 </i>
    <i name="e_0_energy">   -189.71206270 </i>
   </energy>
  </scstep>
  <scstep>
   <time name="dav">   25.57   25.63</time>
   <time name="total">   26.10   26.17</time>
   <energy>
    <i name="e_fr_energy">   -189.82939335 </i>
    <i name="e_wo_entrp">   -189.59538781 </i>
    <i name="e_0_energy">   -189.71239058 </i>
   </energy>
  </scstep>
  <scstep>
   <time name="dav">   23.00   23.05</time>
   <time name="total">   23.52   23.59</time>
   <energy>
    <i name="e_fr_energy">   -189.82881838 </i>
    <i name="e_wo_entrp">   -189.59471240 </i>
    <i name="e_0_energy">   -189.71176539 </i>
   </energy>
  </scstep>
  <scstep>
   <time name="dav">   17.02   17.06</time>
   <time name="total">   17.06   17.10</time>
   <energy>
    <i name="alphaZ">     82.30104021 </i>
    <i name="ewald">  41281.55466492 </i>
    <i name="hartreedc"> -47252.94516719 </i>
    <i name="XCdc">   -235.25710038 </i>
    <i name="pawpsdc">   4038.21102978 </i>
    <i name="pawaedc">  -3453.92357005 </i>
    <i name="eentropy">     -0.23413623 </i>
    <i name="bandstr">  -1410.97815143 </i>
    <i name="atom">   6761.44252427 </i>
    <i name="e_fr_energy">   -189.82886608 </i>
    <i name="e_wo_entrp">   -189.59472985 </i>
    <i name="e_0_energy">   -189.71179797 </i>
   </energy>
  </scstep>
  <structure>
   <crystal>
    <varray name="basis" >
     <v>       8.67044581       4.99785762       0.00000000 </v>
     <v>      -8.67250415       5.00139921       0.00000000 </v>
     <v>       0.00000000       0.00000000      30.00000000 </v>
    </varray>
    <i name="volume">   2601.24905328 </i>
    <varray name="rec_basis" >
     <v>       0.05768074       0.10001931       0.00000000 </v>
     <v>      -0.05763990       0.09999557       0.00000000 </v>
     <v>       0.00000000       0.00000000       0.03333333 </v>
    </varray>
   </crystal>
   <varray name="positions" >
    <v>       0.66788988       0.00114961       0.00008816 </v>
    <v>       0.33331854       0.66560027       0.00000330 </v>
    <v>      -0.00110981       0.66668225      -0.00009155 </v>
    <v>       0.66441155       0.33335167      -0.00009975 </v>
    <v>       0.00209187       0.00215373       0.00009487 </v>
    <v>       0.33338596       0.33106272       0.00000446 </v>
    <v>       1.00008720       0.33164244       0.00001419 </v>
    <v>       0.33326504       0.00327369      -0.00000887 </v>
    <v>       0.66657636       0.66491400      -0.00000499 </v>
    <v>       0.11058117       0.22287672       0.95068283 </v>
    <v>       0.22263012       0.11044055       0.04948092 </v>
    <v>       0.11238863       0.55886087       0.95317962 </v>
    <v>       0.22320347       0.44827339       0.04800455 </v>
    <v>       0.10988957       0.88459594       0.95196120 </v>
    <v>       0.22065317       0.77433274       0.04668452 </v>
    <v>       0.44383783       0.22101754       0.95052327 </v>
    <v>       0.55676065       0.10781705       0.04798609 </v>
    <v>       0.44308325       0.55843037       0.95205322 </v>
    <v>       0.55592990       0.44559092       0.04931185 </v>
    <v>       0.44600560       0.88712924       0.95325028 </v>
    <v>       0.55387046       0.77946030       0.04688490 </v>
    <v>       0.77658602       0.21821670       0.95199664 </v>
    <v>       0.88466340       0.10981671       0.04818253 </v>
    <v>       0.78182264       0.55834789       0.95180338 </v>
    <v>       0.89166181       0.44836548       0.04788930 </v>
    <v>       0.77465135       0.89002942       0.95217271 </v>
    <v>       0.89007884       0.77478222       0.04795226 </v>
   </varray>
  </structure>
  <varray name="forces" >
   <v>       0.05127970       0.21822076      -0.07491551 </v>
   <v>       0.13299189      -0.07543146       0.00045040 </v>
   <v>      -0.16367649      -0.15569431       0.07264032 </v>
   <v>      -0.46588526      -0.20820583       0.05702779 </v>
   <v>      -0.05337730       0.50661187      -0.05465302 </v>
   <v>       0.47839784      -0.27766324      -0.00085665 </v>
   <v>       0.33198101      -0.17357270       0.01741258 </v>
   <v>      -0.61184860       0.35660897       0.00403019 </v>
   <v>       0.31433310      -0.20833801      -0.02094236 </v>
   <v>      -0.06053333       0.02534591      -0.68187644 </v>
   <v>       0.05753793       0.00598518       0.83723291 </v>
   <v>      -0.01634206       0.04342757      -0.32762852 </v>
   <v>      -0.05285917       0.06428341       0.43717852 </v>
   <v>       0.08433898      -0.06031577      -0.46823297 </v>
   <v>       0.00190329      -0.02954917       0.19582988 </v>
   <v>       0.01053732      -0.03994374      -0.84635784 </v>
   <v>       0.07751722      -0.05380399       0.47608400 </v>
   <v>      -0.06719349       0.02501624      -0.45220624 </v>
   <v>      -0.03698723       0.03356394       0.69146349 </v>
   <v>       0.02091161      -0.00039526      -0.17211386 </v>
   <v>      -0.03757462       0.00966560       0.30671970 </v>
   <v>       0.05601104      -0.06682417      -0.42416548 </v>
   <v>      -0.07113498      -0.08405492       0.60676208 </v>
   <v>       0.01443502       0.11121460      -0.59703596 </v>
   <v>       0.00421184       0.09857368       0.29542920 </v>
   <v>      -0.07158518      -0.04271455      -0.32135982 </v>
   <v>       0.07260992      -0.02201063       0.44408361 </v>
  </varray>
  <varray name="stress" >
   <v>     -10.26225736       0.00456762       0.04478325 </v>
   <v>       0.00456763      -9.90582398       0.03153513 </v>
   <v>       0.04478335       0.03153515       6.48084479 </v>
  </varray>
  <energy>
   <i name="e_fr_energy">   -189.82886608 </i>
   <i name="e_wo_entrp">   -189.71179797 </i>
   <i name="e_0_energy">     -0.23413623 </i>
  </energy>
  <time name="totalsc">  370.09  371.07</time>
 </calculation>
 <calculation>
  <scstep>
   <time name="dav">   21.55   21.61</time>
   <time name="total">   22.07   22.12</time>
   <energy>
    <i name="alphaZ">     85.82284525 </i>
    <i name="ewald">  42837.80212607 </i>
    <i name="hartreedc"> -48854.08321632 </i>
    <i name="XCdc">   -232.91825805 </i>
    <i name="pawpsdc">   4038.28027191 </i>
    <i name="pawaedc">  -3453.99020574 </i>
    <i name="eentropy">     -0.19812692 </i>
    <i name="bandstr">  -1373.59392344 </i>
    <i name="atom">   6761.44252427 </i>
    <i name="e_fr_energy">   -191.43596298 </i>
    <i name="e_wo_entrp">   -191.23783606 </i>
    <i name="e_0_energy">   -191.33689952 </i>
   </energy>
  </scstep>
  <scstep>
   <time name="dav">   32.22   32.30</time>
   <time name="total">   32.73   32.81</time>
   <energy>
    <i name="e_fr_energy">   -191.21946765 </i>
    <i name="e_wo_entrp">   -191.01863451 </i>
    <i name="e_0_energy">   -191.11905108 </i>
   </energy>
  </scstep>
  <scstep>
   <time name="dav">   29.51   29.58</time>
   <time name="total">   30.01   30.09</time>
   <energy>
    <i name="e_fr_energy">   -191.43991558 </i>
    <i name="e_wo_entrp">   -191.21179489 </i>
    <i name="e_0_energy">   -191.32585523 </i>
   </energy>
  </scstep>
  <scstep>
   <time name="dav">   28.70   28.77</time>
   <time name="total">   29.21   29.29</time>
   <energy>
    <i name="e_fr_energy">   -191.04186356 </i>
    <i name="e_wo_entrp">   -190.82586956 </i>
    <i name="e_0_energy">   -190.93386656 </i>
   </energy>
  </scstep>
  <scstep>
   <time name="dav">   28.59   28.66</time>
   <time name="total">   29.11   29.18</time>
   <energy>
    <i name="e_fr_energy">   -191.02918597 </i>
    <i name="e_wo_entrp">   -190.83837287 </i>
    <i name="e_0_energy">   -190.93377942 </i>
   </energy>
  </scstep>
  <scstep>
   <time name="dav">   27.76   27.83</time>
   <time name="total">   28.27   28.35</time>
   <energy>
    <i name="e_fr_energy">   -190.84011668 </i>
    <i name="e_wo_entrp">   -190.63662430 </i>
    <i name="e_0_energy">   -190.73837049 </i>
   </energy>
  </scstep>
  <scstep>
   <time name="dav">   28.66   28.72</time>
   <time name="total">   29.17   29.24</time>
   <energy>
    <i name="e_fr_energy">   -190.83682434 </i>
    <i name="e_wo_entrp">   -190.63345013 </i>
    <i name="e_0_energy">   -190.73513724 </i>
   </energy>
  </scstep>
  <scstep>
   <time name="dav">   26.62   26.69</time>
   <time name="total">   27.14   27.21</time>
   <energy>
    <i name="e_fr_energy">   -190.83409870 </i>
    <i name="e_wo_entrp">   -190.63041363 </i>
    <i name="e_0_energy">   -190.73225616 </i>
   </energy>
  </scstep>
  <scstep>
   <time name="dav">   28.68   28.75</time>
   <time name="total">   29.19   29.27</time>
   <energy>
    <i name="e_fr_energy">   -190.83384110 </i>
    <i name="e_wo_entrp">   -190.63024604 </i>
    <i name="e_0_energy">   -190.73204357 </i>
   </energy>
  </scstep>
  <scstep>
   <time name="dav">   29.10   29.17</time>
   <time name="total">   29.61   29.69</time>
   <energy>
    <i name="e_fr_energy">   -190.83394405 </i>
    <i name="e_wo_entrp">   -190.63044112 </i>
    <i name="e_0_energy">   -190.73219259 </i>
   </energy>
  </scstep>
  <scstep>
   <time name="dav">   24.87   24.93</time>
   <time name="total">   25.38   25.45</time>
   <energy>
    <i name="e_fr_energy">   -190.83380822 </i>
    <i name="e_wo_entrp">   -190.63020117 </i>
    <i name="e_0_energy">   -190.73200470 </i>
   </energy>
  </scstep>
  <scstep>
   <time name="dav">   18.55   18.59</time>
   <time name="total">   18.58   18.64</time>
   <energy>
    <i name="alphaZ">     85.82284525 </i>
    <i name="ewald">  42837.80212607 </i>
    <i name="hartreedc"> -48825.57096575 </i>
    <i name="XCdc">   -234.26832654 </i>
    <i name="pawpsdc">   4064.55423258 </i>
    <i name="pawaedc">  -3480.45937854 </i>
    <i name="eentropy">     -0.20373046 </i>
    <i name="bandstr">  -1399.95314002 </i>
    <i name="atom">   6761.44252427 </i>
    <i name="e_fr_energy">   -190.83381315 </i>
    <i name="e_wo_entrp">   -190.63008269 </i>
    <i name="e_0_energy">   -190.73194792 </i>
   </energy>
  </scstep>
  <structure>
   <crystal>
    <varray name="basis" >
     <v>       8.48586287       4.89711366       0.00000000 </v>
     <v>      -8.48779473       4.90044048       0.00000000 </v>
     <v>       0.00000000       0.00000000      30.00000000 </v>
    </varray>
    <i name="volume">   2494.50484096 </i>
    <varray name="rec_basis" >
     <v>       0.05893483       0.10207791       0.00000000 </v>
     <v>      -0.05889482       0.10205468       0.00000000 </v>
     <v>       0.00000000       0.00000000       0.03333333 </v>
    </varray>
   </crystal>
   <varray name="positions" >
    <v>       0.66953921       0.00238116      -0.00008295 </v>
    <v>       0.33331968       0.66462170       0.00000438 </v>
    <v>      -0.00277552       0.66624953       0.00007504 </v>
    <v>       0.66131355       0.33376934       0.00002717 </v>
    <v>       0.00517362       0.00566857      -0.00002735 </v>
    <v>       0.33337231       0.32743821       0.00000252 </v>
    <v>       1.00019845       0.32926129       0.00005412 </v>
    <v>       0.33328848       0.00786608      -0.00000111 </v>
    <v>       0.66639987       0.66237903      -0.00005156 </v>
    <v>       0.11067100       0.22317008       0.94878774 </v>
    <v>       0.22275920       0.11039424       0.05171860 </v>
    <v>       0.11280097       0.55960505       0.95210879 </v>
    <v>       0.22375945       0.44915525       0.04933163 </v>
    <v>       0.10951267       0.88361735       0.95056499 </v>
    <v>       0.22029400       0.77376883       0.04746648 </v>
    <v>       0.44373933       0.22096088       0.94826701 </v>
    <v>       0.55701554       0.10720918       0.04939860 </v>
    <v>       0.44265128       0.55877104       0.95069542 </v>
    <v>       0.55585852       0.44570759       0.05122663 </v>
    <v>       0.44627096       0.88686085       0.95251763 </v>
    <v>       0.55359404       0.77987767       0.04791230 </v>
    <v>       0.77603550       0.21731061       0.95070237 </v>
    <v>       0.88356275       0.10919788       0.04988489 </v>
    <v>       0.78289431       0.55895198       0.95011892 </v>
    <v>       0.89226351       0.44924859       0.04890861 </v>
    <v>       0.77415665       0.89033371       0.95110160 </v>
    <v>       0.89054515       0.77443874       0.04928743 </v>
   </varray>
  </structure>
  <varray name="forces" >
   <v>       0.09294624       0.20807306      -0.07768172 </v>
   <v>       0.09715304      -0.05913824       0.00060336 </v>
   <v>      -0.13503900      -0.18179464       0.07727552 </v>
   <v>      -0.52559762      -0.19899242       0.02518704 </v>
   <v>      -0.09438706       0.54656734      -0.02744237 </v>
   <v>       0.47918818      -0.27446954       0.00203221 </v>
   <v>       0.37515951      -0.14776208       0.02864151 </v>
   <v>      -0.56646801       0.32626592      -0.00555961 </v>
   <v>       0.31361016      -0.25478254      -0.02301805 </v>
   <v>       0.01912350       0.06546284      -0.52967150 </v>
   <v>      -0.02055164       0.00664634       0.68231893 </v>
   <v>       0.00920773      -0.01685969      -0.23634530 </v>
   <v>       0.05405022      -0.00648526       0.28581341 </v>
   <v>       0.00879761       0.03047314      -0.30434117 </v>
   <v>      -0.05653147       0.04780400       0.10111965 </v>
   <v>      -0.01093823       0.01286133      -0.68167897 </v>
   <v>      -0.03364481      -0.01965051       0.31217103 </v>
   <v>       0.04552844      -0.04282859      -0.29354908 </v>
   <v>      -0.04900822      -0.04538638       0.52998368 </v>
   <v>      -0.06386422       0.01577903      -0.09347781 </v>
   <v>       0.01444755       0.01107621       0.23092530 </v>
   <v>      -0.03643727      -0.00209964      -0.24165831 </v>
   <v>       0.01438796      -0.03727546       0.46965869 </v>
   <v>       0.04347835       0.00653664      -0.46736345 </v>
   <v>       0.00575227      -0.03433927       0.14994555 </v>
   <v>       0.04636718       0.01189594      -0.15988306 </v>
   <v>      -0.02673041       0.03242246       0.24599452 </v>
  </varray>
  <varray name="stress" >
   <v>      -5.62930503      -0.09313598      -0.15751527 </v>
   <v>      -0.09313590      -5.77601501      -0.13110518 </v>
   <v>      -0.15751537      -0.13110531       4.60487617 </v>
  </varray>
  <energy>
   <i name="e_fr_energy">   -190.83381315 </i>
   <i name="e_wo_entrp">   -190.73194792 </i>
   <i name="e_0_energy">     -0.20373046 </i>
  </energy>
  <time name="totalsc">  372.27  373.26</time>
 </calculation>
 <calculation>
  <scstep>
   <time name="dav">   21.56   21.61</time>
   <time name="total">   22.06   22.11</time>
   <energy>
    <i name="alphaZ">     90.04475620 </i>
    <i name="ewald">  44612.92654399 </i>
    <i name="hartreedc"> -50654.32347428 </i>
    <i name="XCdc">   -231.89364338 </i>
    <i name="pawpsdc">   4064.46969113 </i>
    <i name="pawaedc">  -3480.37042189 </i>
    <i name="eentropy">     -0.19289232 </i>
    <i name="bandstr">  -1354.26389790 </i>
    <i name="atom">   6761.44252427 </i>
    <i name="e_fr_energy">   -192.16081418 </i>
    <i name="e_wo_entrp">   -191.96792186 </i>
    <i name="e_0_energy">   -192.06436802 </i>
   </energy>
  </scstep>
  <scstep>
   <time name="dav">   27.00   27.06</time>
   <time name="total">   27.50   27.57</time>
   <energy>
    <i name="e_fr_energy">   -191.90012818 </i>
    <i name="e_wo_entrp">   -191.68862993 </i>
    <i name="e_0_energy">   -191.79437905 </i>
   </energy>
  </scstep>
  <scstep>
   <time name="dav">   30.17   30.24</time>
   <time name="total">   30.67   30.75</time>
   <energy>
    <i name="e_fr_energy">   -192.18336492 </i>
    <i name="e_wo_entrp">   -191.98091744 </i>
    <i name="e_0_energy">   -192.08214118 </i>
   </energy>
  </scstep>
  <scstep>
   <time name="dav">   30.15   30.22</time>
   <time name="total">   30.65   30.73</time>
   <energy>
    <i name="e_fr_energy">   -191.71978451 </i>
    <i name="e_wo_entrp">   -191.51051808 </i>
    <i name="e_0_energy">   -191.61515130 </i>
   </energy>
  </scstep>
  <scstep>
   <time name="dav">   28.57   28.64</time>
   <time name="total">   29.07   29.15</time>
   <energy>
    <i name="e_fr_energy">   -191.53699197 </i>
    <i name="e_wo_entrp">   -191.33104568 </i>
    <i name="e_0_energy">   -191.43401883 </i>
   </energy>
  </scstep>
  <scstep>
   <time name="dav">   30.81   30.89</time>
   <time name="total">   31.31   31.39</time>
   <energy>
    <i name="e_fr_energy">   -191.53221329 </i>
    <i name="e_wo_entrp">   -191.33642173 </i>
    <i name="e_0_energy">   -191.43431751 </i>
   </energy>
  </scstep>
  <scstep>
   <time name="dav">   30.55   30.62</time>
   <time name="total">   31.05   31.13</time>
   <energy>
    <i name="e_fr_energy">   -191.50394215 </i>
    <i name="e_wo_entrp">   -191.29924114 </i>
    <i name="e_0_energy">   -191.40159165 </i>
   </energy>
  </scstep>
  <scstep>
   <time name="dav">   27.75   27.82</time>
   <time name="total">   28.25   28.33</time>
   <energy>
    <i name="e_fr_energy">   -191.50079501 </i>
    <i name="e_wo_entrp">   -191.29747513 </i>
    <i name="e_0_energy">   -191.39913507 </i>
   </energy>
  </scstep>
  <scstep>
   <time name="dav">   29.17   29.24</time>
   <time name="total">   29.67   29.75</time>
   <energy>
    <i name="e_fr_energy">   -191.50119172 </i>
    <i name="e_wo_entrp">   -191.29797800 </i>
    <i name="e_0_energy">   -191.39958486 </i>
   </energy>
  </scstep>
  <scstep>
   <time name="dav">   28.67   28.73</time>
   <time name="total">   29.16   29.24</time>
   <energy>
    <i name="e_fr_energy">   -191.50065354 </i>
    <i name="e_wo_entrp">   -191.29734669 </i>
    <i name="e_0_energy">   -191.39900011 </i>
   </energy>
  </scstep>
  <scstep>
   <time name="dav">   24.47   24.53</time>
   <time name="total">   24.51   24.57</time>
   <energy>
    <i name="alphaZ">     90.04475620 </i>
    <i name="ewald">  44612.92654399 </i>
    <i name="hartreedc"> -50621.44205613 </i>
    <i name="XCdc">   -233.36847359 </i>
    <i name="pawpsdc">   4086.17661378 </i>
    <i name="pawaedc">  -3502.17963547 </i>
    <i name="eentropy">     -0.20346782 </i>
    <i name="bandstr">  -1384.89742990 </i>
    <i name="atom">   6761.44252427 </i>
    <i name="e_fr_energy">   -191.50062468 </i>
    <i name="e_wo_entrp">   -191.29715686 </i>
    <i name="e_0_energy">   -191.39889077 </i>
   </energy>
  </scstep>
  <structure>
   <crystal>
    <varray name="basis" >
     <v>       8.28511134       4.77439026       0.00000000 </v>
     <v>      -8.29237762       4.78695668       0.00000000 </v>
     <v>       0.00000000       0.00000000      30.00000000 </v>
    </varray>
    <i name="volume">   2377.54547810 </i>
    <varray name="rec_basis" >
     <v>       0.06040208       0.10463368       0.00000000 </v>
     <v>      -0.06024352       0.10454199       0.00000000 </v>
     <v>       0.00000000       0.00000000       0.03333333 </v>
    </varray>
   </crystal>
   <varray name="positions" >
    <v>       0.67274030       0.00432855      -0.00040052 </v>
    <v>       0.33328276       0.66316341       0.00000680 </v>
    <v>      -0.00596205       0.66502694       0.00039030 </v>
    <v>       0.65524962       0.33498549       0.00015075 </v>
    <v>       0.01111812       0.01288708      -0.00015757 </v>
    <v>       0.33338933       0.32070091       0.00000876 </v>
    <v>       1.00093683       0.32481886       0.00016382 </v>
    <v>       0.33328618       0.01589530      -0.00001847 </v>
    <v>       0.66558811       0.65715968      -0.00014334 </v>
    <v>       0.11161036       0.22373511       0.94612506 </v>
    <v>       0.22263955       0.11067842       0.05499791 </v>
    <v>       0.11295417       0.55991294       0.95071476 </v>
    <v>       0.22444589       0.44923230       0.05098038 </v>
    <v>       0.10952813       0.88338240       0.94883270 </v>
    <v>       0.22020717       0.77414276       0.04832001 </v>
    <v>       0.44387819       0.22134027       0.94498557 </v>
    <v>       0.55693983       0.10706107       0.05116133 </v>
    <v>       0.44207913       0.55809386       0.94901340 </v>
    <v>       0.55495442       0.44536846       0.05389506 </v>
    <v>       0.44628252       0.88717574       0.95170212 </v>
    <v>       0.55355482       0.78019811       0.04927729 </v>
    <v>       0.77537524       0.21703642       0.94921559 </v>
    <v>       0.88271804       0.10827609       0.05226623 </v>
    <v>       0.78376412       0.55887860       0.94774779 </v>
    <v>       0.89206862       0.44931984       0.05001152 </v>
    <v>       0.77445791       0.89052183       0.94995410 </v>
    <v>       0.89112715       0.77489398       0.05079856 </v>
   </varray>
  </structure>
  <varray name="forces" >
   <v>       0.15957617       0.15468419       0.00033492 </v>
   <v>       0.02158258      -0.01881441      -0.00330804 </v>
   <v>      -0.05638489      -0.20827824       0.00319409 </v>
   <v>      -0.36103860      -0.01823973      -0.07351011 </v>
   <v>      -0.17025283       0.32177974       0.07606121 </v>
   <v>       0.07701483      -0.04485031      -0.00340746 </v>
   <v>       0.39439918      -0.01393267      -0.02183760 </v>
   <v>      -0.21980010       0.12204117       0.00974809 </v>
   <v>       0.20624425      -0.33272043       0.01291115 </v>
   <v>       0.07615810       0.15114573      -0.22469265 </v>
   <v>      -0.05073453      -0.01171872       0.28661161 </v>
   <v>       0.02699372      -0.09448071       0.02797429 </v>
   <v>       0.16532067      -0.08783930       0.03211930 </v>
   <v>      -0.08411847       0.12989621       0.00903237 </v>
   <v>      -0.12535092       0.13372519      -0.11706394 </v>
   <v>      -0.01597867       0.05086616      -0.29198749 </v>
   <v>      -0.15405458       0.00944426      -0.01784837 </v>
   <v>       0.15975159      -0.09829760      -0.02551427 </v>
   <v>      -0.09307625      -0.14098471       0.22879955 </v>
   <v>      -0.17539550       0.04621067       0.11386694 </v>
   <v>       0.09312182       0.02616820      -0.02363748 </v>
   <v>      -0.12823333       0.09121615       0.09909489 </v>
   <v>       0.08669502       0.01560191       0.17588781 </v>
   <v>       0.03262887      -0.08496382      -0.17409577 </v>
   <v>       0.06044521      -0.21823360      -0.11363740 </v>
   <v>       0.21628893       0.05413063       0.11605018 </v>
   <v>      -0.14180228       0.06644405      -0.10114580 </v>
  </varray>
  <varray name="stress" >
   <v>       0.05989866      -0.26429630      -0.29335508 </v>
   <v>      -0.26429629      -0.18585419      -0.49873772 </v>
   <v>      -0.29335503      -0.49873771      -0.37958579 </v>
  </varray>
  <energy>
   <i name="e_fr_energy">   -191.50062468 </i>
   <i name="e_wo_entrp">   -191.39889077 </i>
   <i name="e_0_energy">     -0.20346782 </i>
  </energy>
  <time name="totalsc">  355.97  356.91</time>
 </calculation>
 <calculation>
  <scstep>
   <time name="dav">   21.50   21.56</time>
   <time name="total">   22.01   22.06</time>
   <energy>
    <i name="alphaZ">     90.08389773 </i>
    <i name="ewald">  44611.54362914 </i>
    <i name="hartreedc"> -50621.20297053 </i>
    <i name="XCdc">   -233.42214272 </i>
    <i name="pawpsdc">   4086.27515323 </i>
    <i name="pawaedc">  -3502.27173836 </i>
    <i name="eentropy">     -0.20645347 </i>
    <i name="bandstr">  -1383.80744174 </i>
    <i name="atom">   6761.44252427 </i>
    <i name="e_fr_energy">   -191.56554245 </i>
    <i name="e_wo_entrp">   -191.35908899 </i>
    <i name="e_0_energy">   -191.46231572 </i>
   </energy>
  </scstep>
  <scstep>
   <time name="dav">   31.20   31.27</time>
   <time name="total">   31.71   31.80</time>
   <energy>
    <i name="e_fr_energy">   -191.63063568 </i>
    <i name="e_wo_entrp">   -191.41171836 </i>
    <i name="e_0_energy">   -191.52117702 </i>
   </energy>
  </scstep>
  <scstep>
   <time name="dav">   30.83   30.90</time>
   <time name="total">   31.33   31.41</time>
   <energy>
    <i name="e_fr_energy">   -191.57767681 </i>
    <i name="e_wo_entrp">   -191.37037248 </i>
    <i name="e_0_energy">   -191.47402465 </i>
   </energy>
  </scstep>
  <scstep>
   <time name="dav">   28.68   28.75</time>
   <time name="total">   29.18   29.26</time>
   <energy>
    <i name="e_fr_energy">   -191.57888204 </i>
    <i name="e_wo_entrp">   -191.36765822 </i>
    <i name="e_0_energy">   -191.47327013 </i>
   </energy>
  </scstep>
  <scstep>
   <time name="dav">   28.88   28.95</time>
   <time name="total">   29.38   29.46</time>
   <energy>
    <i name="e_fr_energy">   -191.57608372 </i>
    <i name="e_wo_entrp">   -191.36754968 </i>
    <i name="e_0_energy">   -191.47181670 </i>
   </energy>
  </scstep>
  <scstep>
   <time name="dav">   26.38   26.45</time>
   <time name="total">   26.88   26.95</time>
   <energy>
    <i name="e_fr_energy">   -191.57576255 </i>
    <i name="e_wo_entrp">   -191.36622276 </i>
    <i name="e_0_energy">   -191.47099266 </i>
   </energy>
  </scstep>
  <scstep>
   <time name="dav">   27.47   27.54</time>
   <time name="total">   27.97   28.04</time>
   <energy>
    <i name="e_fr_energy">   -191.57573897 </i>
    <i name="e_wo_entrp">   -191.36649117 </i>
    <i name="e_0_energy">   -191.47111507 </i>
   </energy>
  </scstep>
  <scstep>
   <time name="dav">   23.19   23.25</time>
   <time name="total">   23.69   23.76</time>
   <energy>
    <i name="e_fr_energy">   -191.57551479 </i>
    <i name="e_wo_entrp">   -191.36621675 </i>
    <i name="e_0_energy">   -191.47086577 </i>
   </energy>
  </scstep>
  <scstep>
   <time name="dav">   17.94   17.99</time>
   <time name="total">   17.98   18.03</time>
   <energy>
    <i name="alphaZ">     90.08389773 </i>
    <i name="ewald">  44611.54362914 </i>
    <i name="hartreedc"> -50622.01070610 </i>
    <i name="XCdc">   -233.41096630 </i>
    <i name="pawpsdc">   4084.28094995 </i>
    <i name="pawaedc">  -3500.24379929 </i>
    <i name="eentropy">     -0.20921971 </i>
    <i name="bandstr">  -1383.05183724 </i>
    <i name="atom">   6761.44252427 </i>
    <i name="e_fr_energy">   -191.57552754 </i>
    <i name="e_wo_entrp">   -191.36630784 </i>
    <i name="e_0_energy">   -191.47091769 </i>
   </energy>
  </scstep>
  <structure>
   <crystal>
    <varray name="basis" >
     <v>       8.28266404       4.76592745       0.00000000 </v>
     <v>      -8.29668975       4.79020511       0.00000000 </v>
     <v>       0.00000000       0.00000000      30.00000000 </v>
    </varray>
    <i name="volume">   2376.51243276 </i>
    <varray name="rec_basis" >
     <v>       0.06046935       0.10473360       0.00000000 </v>
     <v>      -0.06016288       0.10455654       0.00000000 </v>
     <v>       0.00000000       0.00000000       0.03333333 </v>
    </varray>
   </crystal>
   <varray name="positions" >
    <v>       0.67400533       0.00465404      -0.00040115 </v>
    <v>       0.33325036       0.66299941       0.00000145 </v>
    <v>      -0.00719669       0.66413067       0.00039663 </v>
    <v>       0.65407671       0.33595288       0.00003233 </v>
    <v>       0.01227457       0.01504353      -0.00003504 </v>
    <v>       0.33338738       0.32022367       0.00000326 </v>
    <v>       1.00202476       0.32357883       0.00012888 </v>
    <v>       0.33326159       0.01718651      -0.00000275 </v>
    <v>       0.66450030       0.65484969      -0.00012279 </v>
    <v>       0.11260465       0.22428116       0.94575052 </v>
    <v>       0.22243073       0.11076847       0.05547488 </v>
    <v>       0.11255476       0.55935715       0.95075386 </v>
    <v>       0.22448790       0.44830480       0.05103958 </v>
    <v>       0.10994022       0.88428528       0.94883976 </v>
    <v>       0.22051782       0.77518768       0.04813482 </v>
    <v>       0.44409031       0.22164682       0.94449988 </v>
    <v>       0.55653687       0.10755855       0.05114012 </v>
    <v>       0.44204528       0.55712593       0.94896476 </v>
    <v>       0.55396226       0.44492370       0.05427627 </v>
    <v>       0.44600370       0.88792341       0.95188230 </v>
    <v>       0.55395990       0.78006047       0.04924509 </v>
    <v>       0.77545922       0.21787198       0.94936923 </v>
    <v>       0.88304717       0.10809751       0.05256068 </v>
    <v>       0.78343263       0.55835219       0.94745628 </v>
    <v>       0.89113726       0.44803733       0.04983292 </v>
    <v>       0.77536757       0.89016566       0.95013644 </v>
    <v>       0.89105189       0.77564709       0.05064170 </v>
   </varray>
  </structure>
  <varray name="forces" >
   <v>       0.17813315       0.15083110      -0.01960476 </v>
   <v>       0.00010423      -0.00577843      -0.00087385 </v>
   <v>      -0.04615365      -0.22358478       0.02101005 </v>
   <v>      -0.39561892       0.00505908      -0.02776643 </v>
   <v>      -0.20126896       0.33820269       0.02591335 </v>
   <v>       0.08863374      -0.05185151       0.00170132 </v>
   <v>       0.43421353      -0.00135363      -0.02363232 </v>
   <v>      -0.24867276       0.13958069      -0.00546822 </v>
   <v>       0.21848419      -0.37386487       0.02778457 </v>
   <v>       0.06315717       0.10272727      -0.18847377 </v>
   <v>      -0.03386496       0.00440043       0.18285501 </v>
   <v>       0.02009736      -0.06615687       0.04814986 </v>
   <v>       0.09369223      -0.04308231       0.04384501 </v>
   <v>      -0.08093361       0.06638282       0.05625880 </v>
   <v>      -0.08330931       0.06493106      -0.13531757 </v>
   <v>      -0.01642522       0.02236471      -0.17891075 </v>
   <v>      -0.09703918       0.03897341      -0.05707787 </v>
   <v>       0.08515227      -0.06056039      -0.04339996 </v>
   <v>      -0.05976601      -0.10382547       0.18465096 </v>
   <v>      -0.09571154       0.04101210       0.13695709 </v>
   <v>       0.06548806       0.01587591      -0.04794023 </v>
   <v>      -0.08349192       0.06902511       0.13431877 </v>
   <v>       0.04702953       0.01906676       0.16118928 </v>
   <v>       0.01255651      -0.05043037      -0.15823027 </v>
   <v>       0.06642512      -0.15638562      -0.14980590 </v>
   <v>       0.16970552       0.01959599       0.14781031 </v>
   <v>      -0.10061657       0.03884514      -0.13594247 </v>
  </varray>
  <varray name="stress" >
   <v>       0.12080991      -0.03822801      -0.18959103 </v>
   <v>      -0.03822793       0.06202628      -0.28576317 </v>
   <v>      -0.18959095      -0.28576323      -1.02622762 </v>
  </varray>
  <energy>
   <i name="e_fr_energy">   -191.57552754 </i>
   <i name="e_wo_entrp">   -191.47091769 </i>
   <i name="e_0_energy">     -0.20921971 </i>
  </energy>
  <time name="totalsc">  282.08  282.83</time>
 </calculation>
 <calculation>
  <scstep>
   <time name="dav">   21.53   21.59</time>
   <time name="total">   22.04   22.09</time>
   <energy>
    <i name="alphaZ">     90.00542138 </i>
    <i name="ewald">  44570.84317473 </i>
    <i name="hartreedc"> -50580.49473970 </i>
    <i name="XCdc">   -233.49024214 </i>
    <i name="pawpsdc">   4084.28883274 </i>
    <i name="pawaedc">  -3500.25192034 </i>
    <i name="eentropy">     -0.20859048 </i>
    <i name="bandstr">  -1383.78663439 </i>
    <i name="atom">   6761.44252427 </i>
    <i name="e_fr_energy">   -191.65217392 </i>
    <i name="e_wo_entrp">   -191.44358345 </i>
    <i name="e_0_energy">   -191.54787868 </i>
   </energy>
  </scstep>
  <scstep>
   <time name="dav">   32.33   32.41</time>
   <time name="total">   32.83   32.92</time>
   <energy>
    <i name="e_fr_energy">   -191.76112077 </i>
    <i name="e_wo_entrp">   -191.52780845 </i>
    <i name="e_0_energy">   -191.64446461 </i>
   </energy>
  </scstep>
  <scstep>
   <time name="dav">   30.12   30.20</time>
   <time name="total">   30.62   30.71</time>
   <energy>
    <i name="e_fr_energy">   -191.66439270 </i>
    <i name="e_wo_entrp">   -191.45408297 </i>
    <i name="e_0_energy">   -191.55923783 </i>
   </energy>
  </scstep>
  <scstep>
   <time name="dav">   28.23   28.30</time>
   <time name="total">   28.73   28.81</time>
   <energy>
    <i name="e_fr_energy">   -191.66921168 </i>
    <i name="e_wo_entrp">   -191.45186049 </i>
    <i name="e_0_energy">   -191.56053609 </i>
   </energy>
  </scstep>
  <scstep>
   <time name="dav">   28.59   28.66</time>
   <time name="total">   29.09   29.17</time>
   <energy>
    <i name="e_fr_energy">   -191.66090711 </i>
    <i name="e_wo_entrp">   -191.44773987 </i>
    <i name="e_0_energy">   -191.55432349 </i>
   </energy>
  </scstep>
  <scstep>
   <time name="dav">   25.51   25.57</time>
   <time name="total">   26.01   26.08</time>
   <energy>
    <i name="e_fr_energy">   -191.66057843 </i>
    <i name="e_wo_entrp">   -191.44638710 </i>
    <i name="e_0_energy">   -191.55348277 </i>
   </energy>
  </scstep>
  <scstep>
   <time name="dav">   26.14   26.20</time>
   <time name="total">   26.64   26.71</time>
   <energy>
    <i name="e_fr_energy">   -191.66027344 </i>
    <i name="e_wo_entrp">   -191.44633592 </i>
    <i name="e_0_energy">   -191.55330468 </i>
   </energy>
  </scstep>
  <scstep>
   <time name="dav">   19.43   19.48</time>
   <time name="total">   19.47   19.52</time>
   <energy>
    <i name="alphaZ">     90.00542138 </i>
    <i name="ewald">  44570.84317473 </i>
    <i name="hartreedc"> -50581.84358735 </i>
    <i name="XCdc">   -233.43274937 </i>
    <i name="pawpsdc">   4085.38436392 </i>
    <i name="pawaedc">  -3501.36194647 </i>
    <i name="eentropy">     -0.21387575 </i>
    <i name="bandstr">  -1382.48361825 </i>
    <i name="atom">   6761.44252427 </i>
    <i name="e_fr_energy">   -191.66029289 </i>
    <i name="e_wo_entrp">   -191.44641714 </i>
    <i name="e_0_energy">   -191.55335502 </i>
   </energy>
  </scstep>
  <structure>
   <crystal>
    <varray name="basis" >
     <v>       8.28649372       4.76658279       0.00000000 </v>
     <v>      -8.30164992       4.79281717       0.00000000 </v>
     <v>       0.00000000       0.00000000      30.00000000 </v>
    </varray>
    <i name="volume">   2378.58453039 </i>
    <varray name="rec_basis" >
     <v>       0.06044961       0.10470492       0.00000000 </v>
     <v>      -0.06011873       0.10451376       0.00000000 </v>
     <v>       0.00000000       0.00000000       0.03333333 </v>
    </varray>
   </crystal>
   <varray name="positions" >
    <v>       0.67563185       0.00495026      -0.00043949 </v>
    <v>       0.33321344       0.66297626      -0.00000032 </v>
    <v>      -0.00880100       0.66285713       0.00043786 </v>
    <v>       0.65267304       0.33746033      -0.00002542 </v>
    <v>       0.01367050       0.01793894       0.00001881 </v>
    <v>       0.33338285       0.31961187       0.00000687 </v>
    <v>       1.00364717       0.32198172       0.00007887 </v>
    <v>       0.33323559       0.01895865      -0.00001433 </v>
    <v>       0.66288931       0.65163942      -0.00006399 </v>
    <v>       0.11349981       0.22470590       0.94538667 </v>
    <v>       0.22233522       0.11092160       0.05582009 </v>
[...]
      <set comment="kpoint 31">
       <r>  -17.5287    1.0000 </r>
       <r>  -17.2521    1.0000 </r>
       <r>  -16.9321    1.0000 </r>
       <r>  -16.6950    1.0000 </r>
       <r>  -16.4905    1.0000 </r>
       <r>  -16.4375    1.0000 </r>
       <r>  -16.3488    1.0000 </r>
       <r>  -16.1639    1.0000 </r>
       <r>  -16.0737    1.0000 </r>
       <r>  -16.0336    1.0000 </r>
       <r>  -15.9470    1.0000 </r>
       <r>  -15.8943    1.0000 </r>
       <r>  -15.7949    1.0000 </r>
       <r>  -15.7328    1.0000 </r>
       <r>  -15.6606    1.0000 </r>
       <r>  -15.4182    1.0000 </r>
       <r>  -15.4009    1.0000 </r>
       <r>  -15.2476    1.0000 </r>
       <r>   -9.7122    1.0000 </r>
       <r>   -9.4277    1.0000 </r>
       <r>   -9.3642    1.0000 </r>
       <r>   -9.0075    1.0000 </r>
       <r>   -8.8833    1.0000 </r>
       <r>   -8.7221    1.0000 </r>
       <r>   -8.5151    1.0000 </r>
       <r>   -8.4896    1.0000 </r>
       <r>   -8.4055    1.0000 </r>
       <r>   -8.3524    1.0000 </r>
       <r>   -8.2922    1.0000 </r>
       <r>   -8.2122    1.0000 </r>
       <r>   -8.1543    1.0000 </r>
       <r>   -8.0967    1.0000 </r>
       <r>   -7.9866    1.0000 </r>
       <r>   -7.8910    1.0000 </r>
       <r>   -7.8297    1.0000 </r>
       <r>   -7.7320    1.0000 </r>
       <r>   -7.6357    1.0000 </r>
       <r>   -7.4532    1.0000 </r>
       <r>   -7.3107    1.0000 </r>
       <r>   -7.2161    1.0000 </r>
       <r>   -7.1110    1.0000 </r>
       <r>   -7.0680    1.0000 </r>
       <r>   -7.0170    1.0000 </r>
       <r>   -6.9344    1.0000 </r>
       <r>   -6.8577    1.0000 </r>
       <r>   -6.8122    1.0000 </r>
       <r>   -6.6790    1.0000 </r>
       <r>   -6.6605    1.0000 </r>
       <r>   -6.5687    1.0000 </r>
       <r>   -6.4767    1.0000 </r>
       <r>   -6.4040    1.0000 </r>
       <r>   -6.3874    1.0000 </r>
       <r>   -6.2942    1.0000 </r>
       <r>   -6.2388    1.0000 </r>
       <r>   -6.1354    1.0000 </r>
       <r>   -6.0891    1.0000 </r>
       <r>   -5.9801    1.0000 </r>
       <r>   -5.9134    1.0000 </r>
       <r>   -5.8834    1.0000 </r>
       <r>   -5.7656    1.0000 </r>
       <r>   -5.7033    1.0000 </r>
       <r>   -5.6176    1.0000 </r>
       <r>   -5.5352    1.0000 </r>
       <r>   -5.3202    1.0000 </r>
       <r>   -5.2586    1.0000 </r>
       <r>   -5.1907    1.0000 </r>
       <r>   -4.9938    1.0000 </r>
       <r>   -4.8963    1.0000 </r>
       <r>   -4.8564    1.0000 </r>
       <r>   -4.6560    1.0000 </r>
       <r>   -4.6073    1.0000 </r>
       <r>   -4.5098    1.0000 </r>
       <r>   -4.3742    1.0000 </r>
       <r>   -4.2771    1.0000 </r>
       <r>   -4.1438    1.0000 </r>
       <r>   -4.0320    1.0000 </r>
       <r>   -3.8346    0.9998 </r>
       <r>   -3.6866    0.9926 </r>
       <r>   -3.5002    0.8679 </r>
       <r>   -3.4783    0.8320 </r>
       <r>   -2.9740    0.0046 </r>
       <r>   -2.8388    0.0002 </r>
       <r>   -2.7287    0.0000 </r>
       <r>   -2.5696    0.0000 </r>
       <r>   -2.5350    0.0000 </r>
       <r>   -2.4287    0.0000 </r>
       <r>   -2.2761    0.0000 </r>
       <r>   -2.2048    0.0000 </r>
       <r>   -2.1104    0.0000 </r>
       <r>   -1.9360    0.0000 </r>
       <r>   -1.6516    0.0000 </r>
       <r>   -1.5617    0.0000 </r>
       <r>   -1.4887    0.0000 </r>
       <r>   -1.3565    0.0000 </r>
       <r>   -1.2640    0.0000 </r>
       <r>   -1.1869    0.0000 </r>
       <r>   -1.0355    0.0000 </r>
       <r>   -1.0178    0.0000 </r>
       <r>   -0.9840    0.0000 </r>
       <r>   -0.9472    0.0000 </r>
       <r>   -0.8156    0.0000 </r>
       <r>   -0.7638    0.0000 </r>
       <r>   -0.6998    0.0000 </r>
       <r>   -0.6050    0.0000 </r>
       <r>   -0.4778    0.0000 </r>
       <r>   -0.3991    0.0000 </r>
       <r>   -0.2751    0.0000 </r>
       <r>   -0.1676    0.0000 </r>
       <r>   -0.0974    0.0000 </r>
       <r>    0.1609    0.0000 </r>
       <r>    0.2650    0.0000 </r>
       <r>    0.6899    0.0000 </r>
       <r>    0.9023    0.0000 </r>
       <r>    0.9234    0.0000 </r>
       <r>    1.0863    0.0000 </r>
       <r>    1.2775    0.0000 </r>
       <r>    1.3634    0.0000 </r>
       <r>    2.1175    0.0000 </r>
       <r>    2.2920    0.0000 </r>
       <r>    2.3842    0.0000 </r>
      </set>
      <set comment="kpoint 32">
       <r>  -17.5425    1.0000 </r>
       <r>  -17.1229    1.0000 </r>
       <r>  -17.1008    1.0000 </r>
       <r>  -16.6956    1.0000 </r>
       <r>  -16.4445    1.0000 </r>
       <r>  -16.3843    1.0000 </r>
       <r>  -16.2931    1.0000 </r>
       <r>  -16.2274    1.0000 </r>
       <r>  -16.0778    1.0000 </r>
       <r>  -16.0746    1.0000 </r>
       <r>  -15.9509    1.0000 </r>
       <r>  -15.8883    1.0000 </r>
       <r>  -15.8058    1.0000 </r>
       <r>  -15.7113    1.0000 </r>
       <r>  -15.6802    1.0000 </r>
       <r>  -15.4107    1.0000 </r>
       <r>  -15.4031    1.0000 </r>
       <r>  -15.2380    1.0000 </r>
       <r>   -9.5985    1.0000 </r>
       <r>   -9.5675    1.0000 </r>
       <r>   -9.4593    1.0000 </r>
       <r>   -9.0014    1.0000 </r>
       <r>   -8.7480    1.0000 </r>
       <r>   -8.5303    1.0000 </r>
       <r>   -8.5217    1.0000 </r>
       <r>   -8.4842    1.0000 </r>
       <r>   -8.4292    1.0000 </r>
       <r>   -8.3363    1.0000 </r>
       <r>   -8.3241    1.0000 </r>
       <r>   -8.2319    1.0000 </r>
       <r>   -8.2208    1.0000 </r>
       <r>   -8.1221    1.0000 </r>
       <r>   -8.0277    1.0000 </r>
       <r>   -7.9305    1.0000 </r>
       <r>   -7.8866    1.0000 </r>
       <r>   -7.7177    1.0000 </r>
       <r>   -7.5508    1.0000 </r>
       <r>   -7.5199    1.0000 </r>
       <r>   -7.3499    1.0000 </r>
       <r>   -7.2579    1.0000 </r>
       <r>   -7.0568    1.0000 </r>
       <r>   -7.0334    1.0000 </r>
       <r>   -6.9824    1.0000 </r>
       <r>   -6.9692    1.0000 </r>
       <r>   -6.8493    1.0000 </r>
       <r>   -6.8489    1.0000 </r>
       <r>   -6.6789    1.0000 </r>
       <r>   -6.6469    1.0000 </r>
       <r>   -6.5325    1.0000 </r>
       <r>   -6.4888    1.0000 </r>
       <r>   -6.3943    1.0000 </r>
       <r>   -6.3563    1.0000 </r>
       <r>   -6.3276    1.0000 </r>
       <r>   -6.2834    1.0000 </r>
       <r>   -6.1020    1.0000 </r>
       <r>   -6.0786    1.0000 </r>
       <r>   -5.9794    1.0000 </r>
       <r>   -5.9350    1.0000 </r>
       <r>   -5.8179    1.0000 </r>
       <r>   -5.7020    1.0000 </r>
       <r>   -5.6973    1.0000 </r>
       <r>   -5.5604    1.0000 </r>
       <r>   -5.5162    1.0000 </r>
       <r>   -5.3664    1.0000 </r>
       <r>   -5.3265    1.0000 </r>
       <r>   -5.1536    1.0000 </r>
       <r>   -5.0878    1.0000 </r>
       <r>   -4.9476    1.0000 </r>
       <r>   -4.8496    1.0000 </r>
       <r>   -4.6334    1.0000 </r>
       <r>   -4.5448    1.0000 </r>
       <r>   -4.5177    1.0000 </r>
       <r>   -4.3759    1.0000 </r>
       <r>   -4.3713    1.0000 </r>
       <r>   -4.1406    1.0000 </r>
       <r>   -4.0296    1.0000 </r>
       <r>   -3.8289    0.9997 </r>
       <r>   -3.6098    0.9708 </r>
       <r>   -3.5317    0.9099 </r>
       <r>   -3.4632    0.8038 </r>
       <r>   -2.9871    0.0060 </r>
       <r>   -2.7866    0.0000 </r>
       <r>   -2.7830    0.0000 </r>
       <r>   -2.5642    0.0000 </r>
       <r>   -2.5230    0.0000 </r>
       <r>   -2.4135    0.0000 </r>
       <r>   -2.2524    0.0000 </r>
       <r>   -2.2474    0.0000 </r>
       <r>   -2.1025    0.0000 </r>
       <r>   -1.9830    0.0000 </r>
       <r>   -1.6217    0.0000 </r>
       <r>   -1.5950    0.0000 </r>
       <r>   -1.4564    0.0000 </r>
       <r>   -1.3585    0.0000 </r>
       <r>   -1.2328    0.0000 </r>
       <r>   -1.2181    0.0000 </r>
       <r>   -1.0323    0.0000 </r>
       <r>   -0.9957    0.0000 </r>
       <r>   -0.9876    0.0000 </r>
       <r>   -0.9601    0.0000 </r>
       <r>   -0.8036    0.0000 </r>
       <r>   -0.7845    0.0000 </r>
       <r>   -0.7167    0.0000 </r>
       <r>   -0.5556    0.0000 </r>
       <r>   -0.4994    0.0000 </r>
       <r>   -0.3743    0.0000 </r>
       <r>   -0.3128    0.0000 </r>
       <r>   -0.1648    0.0000 </r>
       <r>   -0.0800    0.0000 </r>
       <r>    0.1805    0.0000 </r>
       <r>    0.2596    0.0000 </r>
       <r>    0.6879    0.0000 </r>
       <r>    0.8858    0.0000 </r>
       <r>    0.9065    0.0000 </r>
       <r>    1.1317    0.0000 </r>
       <r>    1.2431    0.0000 </r>
       <r>    1.3255    0.0000 </r>
       <r>    2.0874    0.0000 </r>
       <r>    2.2606    0.0000 </r>
       <r>    2.5537    0.0000 </r>
      </set>
      <set comment="kpoint 33">
       <r>  -17.5286    1.0000 </r>
       <r>  -17.2522    1.0000 </r>
       <r>  -16.9322    1.0000 </r>
       <r>  -16.6950    1.0000 </r>
       <r>  -16.4905    1.0000 </r>
       <r>  -16.4375    1.0000 </r>
       <r>  -16.3490    1.0000 </r>
       <r>  -16.1639    1.0000 </r>
       <r>  -16.0737    1.0000 </r>
       <r>  -16.0336    1.0000 </r>
       <r>  -15.9471    1.0000 </r>
       <r>  -15.8944    1.0000 </r>
       <r>  -15.7948    1.0000 </r>
       <r>  -15.7328    1.0000 </r>
       <r>  -15.6606    1.0000 </r>
       <r>  -15.4176    1.0000 </r>
       <r>  -15.4013    1.0000 </r>
       <r>  -15.2477    1.0000 </r>
       <r>   -9.7124    1.0000 </r>
       <r>   -9.4278    1.0000 </r>
       <r>   -9.3643    1.0000 </r>
       <r>   -9.0075    1.0000 </r>
       <r>   -8.8834    1.0000 </r>
       <r>   -8.7225    1.0000 </r>
       <r>   -8.5148    1.0000 </r>
       <r>   -8.4894    1.0000 </r>
       <r>   -8.4056    1.0000 </r>
       <r>   -8.3525    1.0000 </r>
       <r>   -8.2921    1.0000 </r>
       <r>   -8.2120    1.0000 </r>
       <r>   -8.1543    1.0000 </r>
       <r>   -8.0969    1.0000 </r>
       <r>   -7.9866    1.0000 </r>
       <r>   -7.8909    1.0000 </r>
       <r>   -7.8298    1.0000 </r>
       <r>   -7.7320    1.0000 </r>
       <r>   -7.6354    1.0000 </r>
       <r>   -7.4535    1.0000 </r>
       <r>   -7.3106    1.0000 </r>
       <r>   -7.2160    1.0000 </r>
       <r>   -7.1113    1.0000 </r>
       <r>   -7.0680    1.0000 </r>
       <r>   -7.0167    1.0000 </r>
       <r>   -6.9340    1.0000 </r>
       <r>   -6.8577    1.0000 </r>
       <r>   -6.8125    1.0000 </r>
       <r>   -6.6791    1.0000 </r>
       <r>   -6.6603    1.0000 </r>
       <r>   -6.5689    1.0000 </r>
       <r>   -6.4765    1.0000 </r>
       <r>   -6.4040    1.0000 </r>
       <r>   -6.3877    1.0000 </r>
       <r>   -6.2941    1.0000 </r>
       <r>   -6.2385    1.0000 </r>
       <r>   -6.1353    1.0000 </r>
       <r>   -6.0888    1.0000 </r>
       <r>   -5.9803    1.0000 </r>
       <r>   -5.9134    1.0000 </r>
       <r>   -5.8836    1.0000 </r>
       <r>   -5.7654    1.0000 </r>
       <r>   -5.7032    1.0000 </r>
       <r>   -5.6172    1.0000 </r>
       <r>   -5.5355    1.0000 </r>
       <r>   -5.3203    1.0000 </r>
       <r>   -5.2585    1.0000 </r>
       <r>   -5.1909    1.0000 </r>
       <r>   -4.9936    1.0000 </r>
       <r>   -4.8966    1.0000 </r>
       <r>   -4.8564    1.0000 </r>
       <r>   -4.6561    1.0000 </r>
       <r>   -4.6072    1.0000 </r>
       <r>   -4.5100    1.0000 </r>
       <r>   -4.3743    1.0000 </r>
       <r>   -4.2780    1.0000 </r>
       <r>   -4.1439    1.0000 </r>
       <r>   -4.0319    1.0000 </r>
       <r>   -3.8345    0.9998 </r>
       <r>   -3.6880    0.9928 </r>
       <r>   -3.4991    0.8664 </r>
       <r>   -3.4780    0.8314 </r>
       <r>   -2.9740    0.0046 </r>
       <r>   -2.8377    0.0002 </r>
       <r>   -2.7290    0.0000 </r>
       <r>   -2.5705    0.0000 </r>
       <r>   -2.5342    0.0000 </r>
       <r>   -2.4291    0.0000 </r>
       <r>   -2.2768    0.0000 </r>
       <r>   -2.2049    0.0000 </r>
       <r>   -2.1092    0.0000 </r>
       <r>   -1.9375    0.0000 </r>
       <r>   -1.6516    0.0000 </r>
       <r>   -1.5607    0.0000 </r>
       <r>   -1.4900    0.0000 </r>
       <r>   -1.3561    0.0000 </r>
       <r>   -1.2633    0.0000 </r>
       <r>   -1.1874    0.0000 </r>
       <r>   -1.0361    0.0000 </r>
       <r>   -1.0177    0.0000 </r>
       <r>   -0.9829    0.0000 </r>
       <r>   -0.9470    0.0000 </r>
       <r>   -0.8156    0.0000 </r>
       <r>   -0.7642    0.0000 </r>
       <r>   -0.6995    0.0000 </r>
       <r>   -0.6054    0.0000 </r>
       <r>   -0.4765    0.0000 </r>
       <r>   -0.3987    0.0000 </r>
       <r>   -0.2755    0.0000 </r>
       <r>   -0.1680    0.0000 </r>
       <r>   -0.0982    0.0000 </r>
       <r>    0.1607    0.0000 </r>
       <r>    0.2643    0.0000 </r>
       <r>    0.6900    0.0000 </r>
       <r>    0.9024    0.0000 </r>
       <r>    0.9234    0.0000 </r>
       <r>    1.0860    0.0000 </r>
       <r>    1.2779    0.0000 </r>
       <r>    1.3632    0.0000 </r>
       <r>    2.1175    0.0000 </r>
       <r>    2.2921    0.0000 </r>
       <r>    2.3843    0.0000 </r>
      </set>
      <set comment="kpoint 34">
       <r>  -17.5106    1.0000 </r>
       <r>  -17.3133    1.0000 </r>
       <r>  -16.7849    1.0000 </r>
       <r>  -16.6880    1.0000 </r>
       <r>  -16.6418    1.0000 </r>
       <r>  -16.4489    1.0000 </r>
       <r>  -16.3427    1.0000 </r>
       <r>  -16.1652    1.0000 </r>
       <r>  -16.0570    1.0000 </r>
       <r>  -15.9986    1.0000 </r>
       <r>  -15.9390    1.0000 </r>
       <r>  -15.9015    1.0000 </r>
       <r>  -15.7837    1.0000 </r>
       <r>  -15.7481    1.0000 </r>
       <r>  -15.6468    1.0000 </r>
       <r>  -15.4240    1.0000 </r>
       <r>  -15.4013    1.0000 </r>
       <r>  -15.2574    1.0000 </r>
       <r>   -9.7569    1.0000 </r>
       <r>   -9.3489    1.0000 </r>
       <r>   -9.1744    1.0000 </r>
       <r>   -9.0775    1.0000 </r>
       <r>   -9.0289    1.0000 </r>
       <r>   -8.8527    1.0000 </r>
       <r>   -8.5319    1.0000 </r>
       <r>   -8.5090    1.0000 </r>
       <r>   -8.4195    1.0000 </r>
       <r>   -8.3422    1.0000 </r>
       <r>   -8.2424    1.0000 </r>
       <r>   -8.1751    1.0000 </r>
       <r>   -8.1402    1.0000 </r>
       <r>   -8.0526    1.0000 </r>
       <r>   -8.0150    1.0000 </r>
       <r>   -7.8780    1.0000 </r>
       <r>   -7.8073    1.0000 </r>
       <r>   -7.7234    1.0000 </r>
       <r>   -7.5385    1.0000 </r>
       <r>   -7.4339    1.0000 </r>
       <r>   -7.3058    1.0000 </r>
       <r>   -7.2832    1.0000 </r>
       <r>   -7.1248    1.0000 </r>
       <r>   -7.0706    1.0000 </r>
       <r>   -6.9872    1.0000 </r>
       <r>   -6.9664    1.0000 </r>
       <r>   -6.8663    1.0000 </r>
       <r>   -6.7669    1.0000 </r>
       <r>   -6.6937    1.0000 </r>
       <r>   -6.6456    1.0000 </r>
       <r>   -6.5601    1.0000 </r>
       <r>   -6.5052    1.0000 </r>
       <r>   -6.4188    1.0000 </r>
       <r>   -6.3937    1.0000 </r>
       <r>   -6.2938    1.0000 </r>
       <r>   -6.2601    1.0000 </r>
       <r>   -6.1454    1.0000 </r>
       <r>   -6.0827    1.0000 </r>
       <r>   -5.9922    1.0000 </r>
       <r>   -5.9293    1.0000 </r>
       <r>   -5.8458    1.0000 </r>
       <r>   -5.8285    1.0000 </r>
       <r>   -5.7539    1.0000 </r>
       <r>   -5.6346    1.0000 </r>
       <r>   -5.4885    1.0000 </r>
       <r>   -5.3470    1.0000 </r>
       <r>   -5.3053    1.0000 </r>
       <r>   -5.1200    1.0000 </r>
       <r>   -4.8975    1.0000 </r>
       <r>   -4.8708    1.0000 </r>
       <r>   -4.8333    1.0000 </r>
       <r>   -4.7282    1.0000 </r>
       <r>   -4.6155    1.0000 </r>
       <r>   -4.5132    1.0000 </r>
       <r>   -4.3640    1.0000 </r>
       <r>   -4.2220    1.0000 </r>
       <r>   -4.1255    1.0000 </r>
       <r>   -4.0312    1.0000 </r>
       <r>   -3.8517    0.9998 </r>
       <r>   -3.7530    0.9982 </r>
       <r>   -3.5102    0.8825 </r>
       <r>   -3.4670    0.8111 </r>
       <r>   -2.9617    0.0036 </r>
       <r>   -2.8602    0.0003 </r>
       <r>   -2.6997    0.0000 </r>
       <r>   -2.5859    0.0000 </r>
       <r>   -2.5395    0.0000 </r>
       <r>   -2.4443    0.0000 </r>
       <r>   -2.2809    0.0000 </r>
       <r>   -2.1807    0.0000 </r>
       <r>   -2.1123    0.0000 </r>
       <r>   -1.8960    0.0000 </r>
       <r>   -1.6702    0.0000 </r>
       <r>   -1.5378    0.0000 </r>
       <r>   -1.5178    0.0000 </r>
       <r>   -1.3647    0.0000 </r>
       <r>   -1.2749    0.0000 </r>
       <r>   -1.1693    0.0000 </r>
       <r>   -1.0607    0.0000 </r>
       <r>   -1.0241    0.0000 </r>
       <r>   -0.9784    0.0000 </r>
       <r>   -0.9208    0.0000 </r>
       <r>   -0.8179    0.0000 </r>
       <r>   -0.7576    0.0000 </r>
       <r>   -0.7007    0.0000 </r>
       <r>   -0.6365    0.0000 </r>
       <r>   -0.4509    0.0000 </r>
       <r>   -0.4223    0.0000 </r>
       <r>   -0.2449    0.0000 </r>
       <r>   -0.1808    0.0000 </r>
       <r>   -0.1077    0.0000 </r>
       <r>    0.1379    0.0000 </r>
       <r>    0.2697    0.0000 </r>
       <r>    0.6899    0.0000 </r>
       <r>    0.9175    0.0000 </r>
       <r>    0.9607    0.0000 </r>
       <r>    1.0331    0.0000 </r>
       <r>    1.3097    0.0000 </r>
       <r>    1.3943    0.0000 </r>
       <r>    2.1836    0.0000 </r>
       <r>    2.2523    0.0000 </r>
       <r>    2.3728    0.0000 </r>
      </set>
     </set>
    </set>
   </array>
  </eigenvalues>
  <separator name="orbital magnetization" >
   <v name="MAGDIPOLOUT">      0.00000000      0.00000000      0.00000000</v>
  </separator>
 </calculation>
 <structure name="finalpos" >
  <crystal>
   <varray name="basis" >
    <v>       8.35618426       4.79480594       0.00000000 </v>
    <v>      -8.38237185       4.84016343       0.00000000 </v>
    <v>       0.00000000       0.00000000      30.00000000 </v>
   </varray>
   <i name="volume">   2419.11431564 </i>
   <varray name="rec_basis" >
    <v>       0.06002399       0.10395175       0.00000000 </v>
    <v>      -0.05946151       0.10362699       0.00000000 </v>
    <v>       0.00000000       0.00000000       0.03333333 </v>
   </varray>
  </crystal>
  <varray name="positions" >
   <v>       0.69062701      -0.01259138       0.00159810 </v>
   <v>       0.33316750       0.64653821      -0.00000846 </v>
   <v>      -0.02405882       0.63004596      -0.00158449 </v>
   <v>       0.64713441       0.34956851      -0.00029398 </v>
   <v>       0.01942786       0.03567942       0.00029237 </v>
   <v>       0.33328153       0.33211185      -0.00000157 </v>
   <v>       1.01324678       0.32187135       0.00020715 </v>
   <v>       0.33327776       0.03584084      -0.00001440 </v>
   <v>       0.65328947       0.64191204      -0.00019914 </v>
   <v>       0.11806495       0.23081857       0.94350729 </v>
   <v>       0.22311853       0.11984059       0.05675090 </v>
   <v>       0.11227470       0.55331011       0.94968936 </v>
   <v>       0.22188964       0.45004730       0.05373824 </v>
   <v>       0.10895725       0.88509767       0.95247681 </v>
   <v>       0.21923890       0.77787086       0.04174696 </v>
   <v>       0.44346632       0.23005404       0.94323745 </v>
   <v>       0.55757055       0.10941463       0.04750583 </v>
   <v>       0.44463014       0.56142058       0.94627137 </v>
   <v>       0.54847790       0.44603765       0.05649556 </v>
   <v>       0.44730682       0.89186506       0.95825205 </v>
   <v>       0.55416982       0.77429526       0.05030544 </v>
   <v>       0.77068358       0.21637155       0.95644547 </v>
   <v>       0.88853898       0.11101487       0.05526518 </v>
   <v>       0.77803332       0.55579622       0.94476218 </v>
   <v>       0.88183889       0.43679613       0.04973251 </v>
   <v>       0.78470259       0.88820819       0.95026234 </v>
   <v>       0.89585810       0.77897838       0.04355938 </v>
  </varray>
 </structure>
</modeling>
