   27   27  100    1
  0.9710400E+02  0.1002848E-08  0.1002848E-08  0.3000000E-08  0.5000000E-15
  1.000000000000000E-004
  CAR 
 unknown system                          
    159     34    120
 
  0.0000000E+00  0.0000000E+00  0.0000000E+00  0.1562500E-01
    1      -17.843390   1.000000
    2      -16.802807   1.000000
    3      -16.699939   1.000000
    4      -16.596038   1.000000
    5      -16.564235   1.000000
    6      -16.453332   1.000000
    7      -16.402518   1.000000
    8      -16.274020   1.000000
    9      -16.227229   1.000000
   10      -16.136374   1.000000
   11      -16.096572   1.000000
   12      -15.961288   1.000000
   13      -15.910720   1.000000
   14      -15.626769   1.000000
   15      -15.585156   1.000000
   16      -15.474846   1.000000
   17      -15.229985   1.000000
   18      -15.182206   1.000000
   19       -9.406752   1.000000
   20       -9.053726   1.000000
   21       -9.037110   1.000000
   22       -8.943372   1.000000
   23       -8.745112   1.000000
   24       -8.706450   1.000000
   25       -8.693001   1.000000
   26       -8.599871   1.000000
   27       -8.503910   1.000000
   28       -8.477226   1.000000
   29       -8.434559   1.000000
   30       -8.373970   1.000000
   31       -8.297183   1.000000
   32       -8.118033   1.000000
   33       -8.092922   1.000000
   34       -8.029424   1.000000
   35       -7.803886   1.000000
   36       -7.739952   1.000000
   37       -7.629233   1.000000
   38       -7.605406   1.000000
   39       -7.513039   1.000000
   40       -7.338518   1.000000
   41       -7.312391   1.000000
   42       -7.211861   1.000000
   43       -7.102160   1.000000
   44       -6.944924   1.000000
   45       -6.858734   1.000000
   46       -6.799139   1.000000
   47       -6.739749   1.000000
   48       -6.688980   1.000000
   49       -6.611402   1.000000
   50       -6.505151   1.000000
   51       -6.440424   1.000000
   52       -6.256613   1.000000
   53       -6.214461   1.000000
   54       -6.175784   1.000000
   55       -6.163447   1.000000
   56       -6.106889   1.000000
   57       -6.001454   1.000000
   58       -5.909485   1.000000
   59       -5.883088   1.000000
   60       -5.623387   1.000000
   61       -5.595608   1.000000
   62       -5.325689   1.000000
   63       -5.281470   1.000000
   64       -5.082584   1.000000
   65       -4.985651   1.000000
   66       -4.962827   1.000000
   67       -4.879982   1.000000
   68       -4.863866   1.000000
   69       -4.762787   1.000000
   70       -4.706595   1.000000
   71       -4.661708   1.000000
   72       -4.627469   1.000000
   73       -4.450247   1.000000
   74       -4.368444   1.000000
   75       -4.258245   1.000000
   76       -3.984489   1.000000
   77       -3.802256   0.999961
   78       -3.589744   0.992856
   79       -3.509460   0.970100
   80       -3.219863   0.434279
   81       -3.154579   0.265290
   82       -2.913977   0.009945
   83       -2.698527   0.000059
   84       -2.683530   0.000038
   85       -2.577681   0.000001
   86       -2.500142   0.000000
   87       -2.328043   0.000000
   88       -2.291616   0.000000
   89       -2.241474   0.000000
   90       -2.120534   0.000000
   91       -1.776713   0.000000
   92       -1.556124   0.000000
   93       -1.321429   0.000000
   94       -1.237753   0.000000
   95       -1.047320   0.000000
   96       -0.999237   0.000000
   97       -0.933982   0.000000
   98       -0.828282   0.000000
   99       -0.813809   0.000000
  100       -0.635015   0.000000
  101       -0.602275   0.000000
  102       -0.523093   0.000000
  103       -0.410990   0.000000
  104       -0.273708   0.000000
  105       -0.207665   0.000000
  106       -0.116316   0.000000
  107       -0.109223   0.000000
  108        0.023281   0.000000
  109        0.049237   0.000000
  110        0.229463   0.000000
  111        0.493973   0.000000
  112        0.602645   0.000000
  113        0.716020   0.000000
  114        0.878746   0.000000
  115        0.949670   0.000000
  116        1.012618   0.000000
  117        1.128707   0.000000
  118        1.647739   0.000000
  119        1.840913   0.000000
  120        2.166096   0.000000
 
  0.1250000E+00  0.2775558E-16  0.0000000E+00  0.3125000E-01
    1      -17.817987   1.000000
    2      -16.840849   1.000000
    3      -16.784363   1.000000
    4      -16.604346   1.000000
    5      -16.530170   1.000000
    6      -16.468742   1.000000
    7      -16.366797   1.000000
    8      -16.330275   1.000000
    9      -16.244878   1.000000
   10      -16.079425   1.000000
   11      -16.021369   1.000000
   12      -15.971150   1.000000
   13      -15.871593   1.000000
   14      -15.622302   1.000000
   15      -15.581475   1.000000
   16      -15.485057   1.000000
   17      -15.250209   1.000000
   18      -15.184722   1.000000
   19       -9.394553   1.000000
   20       -9.209038   1.000000
   21       -9.109239   1.000000
   22       -9.049974   1.000000
   23       -8.763635   1.000000
   24       -8.740498   1.000000
   25       -8.652008   1.000000
   26       -8.584619   1.000000
   27       -8.530364   1.000000
   28       -8.425804   1.000000
   29       -8.397163   1.000000
   30       -8.327189   1.000000
   31       -8.270089   1.000000
   32       -8.044138   1.000000
   33       -7.977901   1.000000
   34       -7.912052   1.000000
   35       -7.809660   1.000000
   36       -7.728546   1.000000
   37       -7.716164   1.000000
   38       -7.492995   1.000000
   39       -7.464503   1.000000
   40       -7.397845   1.000000
   41       -7.305625   1.000000
   42       -7.242676   1.000000
   43       -7.117270   1.000000
   44       -6.979420   1.000000
   45       -6.891860   1.000000
   46       -6.792821   1.000000
   47       -6.756780   1.000000
   48       -6.668663   1.000000
   49       -6.605928   1.000000
   50       -6.488060   1.000000
   51       -6.440706   1.000000
   52       -6.285996   1.000000
   53       -6.244490   1.000000
   54       -6.205692   1.000000
   55       -6.154674   1.000000
   56       -6.046986   1.000000
   57       -6.002682   1.000000
   58       -5.904572   1.000000
   59       -5.800380   1.000000
   60       -5.604655   1.000000
   61       -5.536604   1.000000
   62       -5.349254   1.000000
   63       -5.321646   1.000000
   64       -5.249496   1.000000
   65       -5.068828   1.000000
   66       -5.022343   1.000000
   67       -4.908441   1.000000
   68       -4.865890   1.000000
   69       -4.788619   1.000000
   70       -4.673597   1.000000
   71       -4.613247   1.000000
   72       -4.527389   1.000000
   73       -4.442114   1.000000
   74       -4.321562   1.000000
   75       -4.207985   1.000000
   76       -3.916183   0.999999
   77       -3.835429   0.999986
   78       -3.704684   0.999448
   79       -3.503303   0.967023
   80       -3.393929   0.856638
   81       -2.990224   0.036784
   82       -2.914576   0.010057
   83       -2.719494   0.000106
   84       -2.650572   0.000014
   85       -2.571429   0.000001
   86       -2.496069   0.000000
   87       -2.323253   0.000000
   88       -2.269197   0.000000
   89       -2.199129   0.000000
   90       -2.112313   0.000000
   91       -1.784719   0.000000
   92       -1.529861   0.000000
   93       -1.330332   0.000000
   94       -1.232751   0.000000
   95       -1.049489   0.000000
   96       -0.989799   0.000000
   97       -0.946162   0.000000
   98       -0.848387   0.000000
   99       -0.812857   0.000000
  100       -0.682371   0.000000
  101       -0.639177   0.000000
  102       -0.566445   0.000000
  103       -0.458477   0.000000
  104       -0.393241   0.000000
  105       -0.292006   0.000000
  106       -0.225089   0.000000
  107       -0.123526   0.000000
  108        0.079427   0.000000
  109        0.177186   0.000000
  110        0.273293   0.000000
  111        0.464022   0.000000
  112        0.590881   0.000000
  113        0.709680   0.000000
  114        0.802022   0.000000
  115        0.944302   0.000000
  116        1.027087   0.000000
  117        1.260399   0.000000
  118        1.692903   0.000000
  119        1.879828   0.000000
  120        2.201758   0.000000
 
  0.2500000E+00  0.5551115E-16  0.0000000E+00  0.3125000E-01
    1      -17.743021   1.000000
    2      -17.035692   1.000000
    3      -16.779933   1.000000
    4      -16.643142   1.000000
    5      -16.595416   1.000000
    6      -16.458653   1.000000
    7      -16.373233   1.000000
    8      -16.267152   1.000000
    9      -16.221057   1.000000
   10      -16.074574   1.000000
   11      -15.969643   1.000000
   12      -15.895174   1.000000
   13      -15.796346   1.000000
   14      -15.607407   1.000000
   15      -15.568922   1.000000
   16      -15.504473   1.000000
   17      -15.291866   1.000000
   18      -15.201318   1.000000
   19       -9.540175   1.000000
   20       -9.354877   1.000000
   21       -9.216494   1.000000
   22       -9.136197   1.000000
   23       -8.837391   1.000000
   24       -8.711020   1.000000
   25       -8.692645   1.000000
   26       -8.564959   1.000000
   27       -8.517370   1.000000
   28       -8.441142   1.000000
   29       -8.297502   1.000000
   30       -8.240772   1.000000
   31       -8.115354   1.000000
   32       -8.023967   1.000000
   33       -7.919595   1.000000
   34       -7.837753   1.000000
   35       -7.754608   1.000000
   36       -7.672149   1.000000
   37       -7.575234   1.000000
   38       -7.525568   1.000000
   39       -7.431475   1.000000
   40       -7.386520   1.000000
   41       -7.310037   1.000000
   42       -7.219522   1.000000
   43       -7.135923   1.000000
   44       -6.975030   1.000000
   45       -6.897837   1.000000
   46       -6.823246   1.000000
   47       -6.741510   1.000000
   48       -6.663386   1.000000
   49       -6.535893   1.000000
   50       -6.482140   1.000000
   51       -6.412301   1.000000
   52       -6.341800   1.000000
   53       -6.298836   1.000000
   54       -6.177421   1.000000
   55       -6.140821   1.000000
   56       -6.068663   1.000000
   57       -5.908325   1.000000
   58       -5.856707   1.000000
   59       -5.725425   1.000000
   60       -5.671878   1.000000
   61       -5.551612   1.000000
   62       -5.512293   1.000000
   63       -5.477093   1.000000
   64       -5.269264   1.000000
   65       -5.146419   1.000000
   66       -5.114442   1.000000
   67       -5.020471   1.000000
   68       -4.825284   1.000000
   69       -4.806210   1.000000
   70       -4.607106   1.000000
   71       -4.512638   1.000000
   72       -4.467971   1.000000
   73       -4.366495   1.000000
   74       -4.252579   1.000000
   75       -4.129471   1.000000
   76       -4.038194   1.000000
   77       -3.940680   1.000000
   78       -3.768606   0.999898
   79       -3.475423   0.949662
   80       -3.425640   0.901400
   81       -2.967410   0.025552
   82       -2.884062   0.005543
   83       -2.712172   0.000087
   84       -2.607512   0.000003
   85       -2.577731   0.000001
   86       -2.461479   0.000000
   87       -2.319149   0.000000
   88       -2.211589   0.000000
   89       -2.098433   0.000000
   90       -2.078013   0.000000
   91       -1.800222   0.000000
   92       -1.477395   0.000000
   93       -1.349354   0.000000
   94       -1.214475   0.000000
   95       -1.064963   0.000000
   96       -1.025592   0.000000
   97       -0.968086   0.000000
   98       -0.887377   0.000000
   99       -0.859454   0.000000
  100       -0.792689   0.000000
  101       -0.718266   0.000000
  102       -0.645799   0.000000
  103       -0.586531   0.000000
  104       -0.486829   0.000000
  105       -0.362381   0.000000
  106       -0.336552   0.000000
  107       -0.264324   0.000000
  108        0.103029   0.000000
  109        0.234359   0.000000
  110        0.296705   0.000000
  111        0.410212   0.000000
  112        0.591678   0.000000
  113        0.677821   0.000000
  114        0.806651   0.000000
  115        0.958595   0.000000
  116        1.122156   0.000000
  117        1.422224   0.000000
  118        1.818986   0.000000
  119        1.992125   0.000000
  120        2.307571   0.000000
 
  0.3750000E+00  0.0000000E+00  0.0000000E+00  0.3125000E-01
    1      -17.623503   1.000000
    2      -17.244554   1.000000
    3      -16.766680   1.000000
    4      -16.679096   1.000000
    5      -16.646457   1.000000
    6      -16.501071   1.000000
    7      -16.328492   1.000000
    8      -16.220698   1.000000
    9      -16.187258   1.000000
   10      -16.091677   1.000000
   11      -15.884232   1.000000
   12      -15.851965   1.000000
   13      -15.758522   1.000000
   14      -15.616043   1.000000
   15      -15.575145   1.000000
   16      -15.466751   1.000000
   17      -15.320833   1.000000
   18      -15.234474   1.000000
   19       -9.755745   1.000000
   20       -9.422513   1.000000
   21       -9.301825   1.000000
   22       -9.063754   1.000000
   23       -8.897956   1.000000
   24       -8.783193   1.000000
   25       -8.662875   1.000000
   26       -8.584836   1.000000
   27       -8.481716   1.000000
   28       -8.324635   1.000000
   29       -8.282943   1.000000
   30       -8.180260   1.000000
   31       -8.136496   1.000000
   32       -7.934131   1.000000
   33       -7.909699   1.000000
   34       -7.835210   1.000000
   35       -7.765961   1.000000
   36       -7.728466   1.000000
   37       -7.616954   1.000000
   38       -7.513364   1.000000
   39       -7.402646   1.000000
   40       -7.320424   1.000000
   41       -7.198706   1.000000
   42       -7.106237   1.000000
   43       -7.065166   1.000000
   44       -6.938588   1.000000
   45       -6.882500   1.000000
   46       -6.764858   1.000000
   47       -6.688144   1.000000
   48       -6.649148   1.000000
   49       -6.527304   1.000000
   50       -6.476850   1.000000
   51       -6.360164   1.000000
   52       -6.283134   1.000000
   53       -6.238363   1.000000
   54       -6.205227   1.000000
   55       -6.085525   1.000000
   56       -6.054276   1.000000
   57       -6.024330   1.000000
   58       -5.971891   1.000000
   59       -5.864631   1.000000
   60       -5.693211   1.000000
   61       -5.670014   1.000000
   62       -5.555337   1.000000
   63       -5.481086   1.000000
   64       -5.355491   1.000000
   65       -5.165326   1.000000
   66       -5.082175   1.000000
   67       -5.005813   1.000000
   68       -4.827711   1.000000
   69       -4.767699   1.000000
   70       -4.686744   1.000000
   71       -4.544238   1.000000
   72       -4.465860   1.000000
   73       -4.295605   1.000000
   74       -4.268336   1.000000
   75       -4.190043   1.000000
   76       -4.089608   1.000000
   77       -3.885565   0.999997
   78       -3.749253   0.999827
   79       -3.538128   0.981464
   80       -3.249473   0.517500
   81       -3.001124   0.043429
   82       -2.913647   0.009883
   83       -2.680141   0.000034
   84       -2.615966   0.000005
   85       -2.574255   0.000001
   86       -2.413030   0.000000
   87       -2.287084   0.000000
   88       -2.160156   0.000000
   89       -2.038996   0.000000
   90       -1.996249   0.000000
   91       -1.807862   0.000000
   92       -1.468432   0.000000
   93       -1.327862   0.000000
   94       -1.205480   0.000000
   95       -1.146351   0.000000
   96       -1.087265   0.000000
   97       -1.021015   0.000000
   98       -0.939005   0.000000
   99       -0.897462   0.000000
  100       -0.848627   0.000000
  101       -0.790602   0.000000
  102       -0.711985   0.000000
  103       -0.631321   0.000000
  104       -0.557254   0.000000
  105       -0.468754   0.000000
  106       -0.384932   0.000000
  107       -0.359184   0.000000
  108        0.050569   0.000000
  109        0.152105   0.000000
  110        0.281277   0.000000
  111        0.442009   0.000000
  112        0.536873   0.000000
  113        0.704906   0.000000
  114        0.861520   0.000000
  115        1.026798   0.000000
  116        1.203330   0.000000
  117        1.534385   0.000000
  118        2.007574   0.000000
  119        2.169499   0.000000
  120        2.480734   0.000000
 
  0.5000000E+00  0.1110223E-15  0.0000000E+00  0.1562500E-01
    1      -17.505793   1.000000
    2      -17.394275   1.000000
    3      -16.760178   1.000000
    4      -16.690671   1.000000
    5      -16.667375   1.000000
    6      -16.515040   1.000000
    7      -16.313821   1.000000
    8      -16.206208   1.000000
    9      -16.179015   1.000000
   10      -16.088692   1.000000
   11      -15.860157   1.000000
   12      -15.800961   1.000000
   13      -15.758261   1.000000
   14      -15.657159   1.000000
   15      -15.571722   1.000000
   16      -15.438082   1.000000
   17      -15.313246   1.000000
   18      -15.264324   1.000000
   19       -9.834920   1.000000
   20       -9.455271   1.000000
   21       -9.336204   1.000000
   22       -8.961318   1.000000
   23       -8.933282   1.000000
   24       -8.817765   1.000000
   25       -8.716382   1.000000
   26       -8.592572   1.000000
   27       -8.437016   1.000000
   28       -8.300783   1.000000
   29       -8.228579   1.000000
   30       -8.150306   1.000000
   31       -8.103403   1.000000
   32       -7.989663   1.000000
   33       -7.915663   1.000000
   34       -7.872608   1.000000
   35       -7.820462   1.000000
   36       -7.686945   1.000000
   37       -7.627959   1.000000
   38       -7.521762   1.000000
   39       -7.444400   1.000000
   40       -7.352289   1.000000
   41       -7.090620   1.000000
   42       -7.015474   1.000000
   43       -6.999366   1.000000
   44       -6.893655   1.000000
   45       -6.787461   1.000000
   46       -6.717328   1.000000
   47       -6.663286   1.000000
   48       -6.605438   1.000000
   49       -6.513395   1.000000
   50       -6.499037   1.000000
   51       -6.418975   1.000000
   52       -6.349014   1.000000
   53       -6.288918   1.000000
   54       -6.252946   1.000000
   55       -6.173132   1.000000
   56       -6.054508   1.000000
   57       -5.968884   1.000000
   58       -5.840579   1.000000
   59       -5.830640   1.000000
   60       -5.800156   1.000000
   61       -5.626179   1.000000
   62       -5.612762   1.000000
   63       -5.489809   1.000000
   64       -5.399030   1.000000
   65       -5.190278   1.000000
   66       -5.100451   1.000000
   67       -5.005049   1.000000
   68       -4.914972   1.000000
   69       -4.825785   1.000000
   70       -4.559210   1.000000
   71       -4.553716   1.000000
   72       -4.505488   1.000000
   73       -4.344494   1.000000
   74       -4.271347   1.000000
   75       -4.208002   1.000000
   76       -4.045731   1.000000
   77       -3.836549   0.999986
   78       -3.697372   0.999339
   79       -3.615752   0.995779
   80       -3.081409   0.126206
   81       -3.065495   0.104369
   82       -2.971183   0.027182
   83       -2.667645   0.000023
   84       -2.625007   0.000006
   85       -2.566257   0.000001
   86       -2.391977   0.000000
   87       -2.267532   0.000000
   88       -2.138684   0.000000
   89       -2.014118   0.000000
   90       -1.965766   0.000000
   91       -1.807446   0.000000
   92       -1.478472   0.000000
   93       -1.294082   0.000000
   94       -1.230354   0.000000
   95       -1.192202   0.000000
   96       -1.109632   0.000000
   97       -1.024634   0.000000
   98       -0.984784   0.000000
   99       -0.912408   0.000000
  100       -0.848409   0.000000
  101       -0.838077   0.000000
  102       -0.720966   0.000000
  103       -0.635674   0.000000
  104       -0.572311   0.000000
  105       -0.552043   0.000000
  106       -0.395005   0.000000
  107       -0.379594   0.000000
  108        0.013156   0.000000
  109        0.115092   0.000000
  110        0.282023   0.000000
  111        0.459040   0.000000
  112        0.506340   0.000000
  113        0.723946   0.000000
  114        0.874863   0.000000
  115        1.063393   0.000000
  116        1.235366   0.000000
  117        1.573859   0.000000
  118        2.230932   0.000000
  119        2.263540   0.000000
  120        2.395906   0.000000
 
  0.0000000E+00  0.1250000E+00  0.0000000E+00  0.3125000E-01
    1      -17.820322   1.000000
    2      -16.832011   1.000000
    3      -16.736824   1.000000
    4      -16.668859   1.000000
    5      -16.569371   1.000000
    6      -16.454656   1.000000
    7      -16.364806   1.000000
    8      -16.282848   1.000000
    9      -16.215920   1.000000
   10      -16.118006   1.000000
   11      -16.006498   1.000000
   12      -15.950417   1.000000
   13      -15.905099   1.000000
   14      -15.629026   1.000000
   15      -15.593567   1.000000
   16      -15.491446   1.000000
   17      -15.231909   1.000000
   18      -15.185196   1.000000
   19       -9.403758   1.000000
   20       -9.190401   1.000000
   21       -9.079532   1.000000
   22       -9.028905   1.000000
   23       -8.813504   1.000000
   24       -8.753912   1.000000
   25       -8.697738   1.000000
   26       -8.586153   1.000000
   27       -8.534769   1.000000
   28       -8.474976   1.000000
   29       -8.372043   1.000000
   30       -8.215559   1.000000
   31       -8.186881   1.000000
   32       -8.092867   1.000000
   33       -8.051276   1.000000
   34       -7.953177   1.000000
   35       -7.750325   1.000000
   36       -7.690494   1.000000
   37       -7.634903   1.000000
   38       -7.610761   1.000000
   39       -7.481189   1.000000
   40       -7.461843   1.000000
   41       -7.281599   1.000000
   42       -7.172603   1.000000
   43       -7.159016   1.000000
   44       -7.010037   1.000000
   45       -6.868685   1.000000
   46       -6.809981   1.000000
   47       -6.729529   1.000000
   48       -6.627866   1.000000
   49       -6.563115   1.000000
   50       -6.465792   1.000000
   51       -6.436195   1.000000
   52       -6.313526   1.000000
   53       -6.233929   1.000000
   54       -6.198640   1.000000
   55       -6.148890   1.000000
   56       -6.078965   1.000000
   57       -6.025457   1.000000
   58       -5.974673   1.000000
   59       -5.767688   1.000000
   60       -5.611742   1.000000
   61       -5.551914   1.000000
   62       -5.416255   1.000000
   63       -5.406787   1.000000
   64       -5.179686   1.000000
   65       -5.024776   1.000000
   66       -4.971557   1.000000
   67       -4.873655   1.000000
   68       -4.856901   1.000000
   69       -4.759511   1.000000
   70       -4.686147   1.000000
   71       -4.628633   1.000000
   72       -4.549938   1.000000
   73       -4.449703   1.000000
   74       -4.301547   1.000000
   75       -4.223536   1.000000
   76       -4.040003   1.000000
   77       -3.812015   0.999971
   78       -3.667805   0.998659
   79       -3.577948   0.991023
   80       -3.179361   0.325675
   81       -3.114836   0.181901
   82       -2.875321   0.004637
   83       -2.680668   0.000035
   84       -2.659631   0.000018
   85       -2.571541   0.000001
   86       -2.488959   0.000000
   87       -2.303811   0.000000
   88       -2.261431   0.000000
   89       -2.209878   0.000000
   90       -2.117080   0.000000
   91       -1.783686   0.000000
   92       -1.545525   0.000000
   93       -1.328814   0.000000
   94       -1.248207   0.000000
   95       -1.049117   0.000000
   96       -1.002689   0.000000
   97       -0.952855   0.000000
   98       -0.844722   0.000000
   99       -0.791290   0.000000
  100       -0.718695   0.000000
  101       -0.661573   0.000000
  102       -0.575874   0.000000
  103       -0.535674   0.000000
  104       -0.385982   0.000000
  105       -0.267977   0.000000
  106       -0.091679   0.000000
  107       -0.054044   0.000000
  108        0.049754   0.000000
  109        0.133856   0.000000
  110        0.244538   0.000000
  111        0.410460   0.000000
  112        0.604833   0.000000
  113        0.741968   0.000000
  114        0.893094   0.000000
  115        0.955441   0.000000
  116        1.017379   0.000000
  117        1.144518   0.000000
  118        1.689772   0.000000
  119        1.882012   0.000000
  120        2.200835   0.000000
 
  0.1250000E+00  0.1250000E+00  0.0000000E+00  0.3125000E-01
    1      -17.771960   1.000000
    2      -16.936029   1.000000
    3      -16.810449   1.000000
    4      -16.708839   1.000000
    5      -16.518273   1.000000
    6      -16.447962   1.000000
    7      -16.342845   1.000000
    8      -16.310785   1.000000
    9      -16.239138   1.000000
   10      -16.050159   1.000000
   11      -15.956336   1.000000
   12      -15.913169   1.000000
   13      -15.853265   1.000000
   14      -15.626134   1.000000
   15      -15.590333   1.000000
   16      -15.518953   1.000000
   17      -15.255526   1.000000
   18      -15.186755   1.000000
   19       -9.435079   1.000000
   20       -9.338592   1.000000
   21       -9.253347   1.000000
   22       -9.110955   1.000000
   23       -8.813840   1.000000
   24       -8.760588   1.000000
   25       -8.665154   1.000000
   26       -8.541974   1.000000
   27       -8.497322   1.000000
   28       -8.396232   1.000000
   29       -8.344393   1.000000
   30       -8.285156   1.000000
   31       -8.097114   1.000000
   32       -8.064511   1.000000
   33       -7.974027   1.000000
   34       -7.826282   1.000000
   35       -7.760135   1.000000
   36       -7.671746   1.000000
   37       -7.624027   1.000000
   38       -7.551749   1.000000
   39       -7.475201   1.000000
   40       -7.389979   1.000000
   41       -7.266558   1.000000
   42       -7.219435   1.000000
   43       -7.136963   1.000000
   44       -7.040759   1.000000
   45       -6.889384   1.000000
   46       -6.790983   1.000000
   47       -6.736198   1.000000
   48       -6.642882   1.000000
   49       -6.528843   1.000000
   50       -6.449656   1.000000
   51       -6.361538   1.000000
   52       -6.333429   1.000000
   53       -6.298739   1.000000
   54       -6.232132   1.000000
   55       -6.141145   1.000000
   56       -6.058570   1.000000
   57       -6.011575   1.000000
   58       -5.917913   1.000000
   59       -5.724174   1.000000
   60       -5.614912   1.000000
   61       -5.569630   1.000000
   62       -5.503944   1.000000
   63       -5.426341   1.000000
   64       -5.294485   1.000000
   65       -5.203532   1.000000
   66       -5.054748   1.000000
   67       -4.902946   1.000000
   68       -4.830238   1.000000
   69       -4.744456   1.000000
   70       -4.649835   1.000000
   71       -4.513340   1.000000
   72       -4.485319   1.000000
   73       -4.432270   1.000000
   74       -4.266289   1.000000
   75       -4.145131   1.000000
   76       -4.095254   1.000000
   77       -3.923209   0.999999
   78       -3.721878   0.999643
   79       -3.566606   0.988883
   80       -3.283456   0.611863
   81       -2.971876   0.027491
   82       -2.872769   0.004399
   83       -2.677307   0.000031
   84       -2.632848   0.000008
   85       -2.557102   0.000001
   86       -2.456207   0.000000
   87       -2.264752   0.000000
   88       -2.228087   0.000000
   89       -2.148310   0.000000
   90       -2.086577   0.000000
   91       -1.793266   0.000000
   92       -1.521272   0.000000
   93       -1.355469   0.000000
   94       -1.248593   0.000000
   95       -1.073379   0.000000
   96       -1.016000   0.000000
   97       -0.959267   0.000000
   98       -0.869884   0.000000
   99       -0.834506   0.000000
  100       -0.758806   0.000000
  101       -0.716806   0.000000
  102       -0.688782   0.000000
  103       -0.616175   0.000000
  104       -0.485705   0.000000
  105       -0.353095   0.000000
  106       -0.166957   0.000000
  107       -0.148782   0.000000
  108        0.105955   0.000000
  109        0.249406   0.000000
  110        0.321529   0.000000
  111        0.371575   0.000000
  112        0.569988   0.000000
  113        0.736657   0.000000
  114        0.834528   0.000000
  115        0.894285   0.000000
  116        1.086949   0.000000
  117        1.278451   0.000000
  118        1.773500   0.000000
  119        1.959018   0.000000
  120        2.270983   0.000000
 
  0.2500000E+00  0.1250000E+00  0.0000000E+00  0.3125000E-01
    1      -17.676934   1.000000
    2      -17.122999   1.000000
    3      -16.876682   1.000000
    4      -16.723583   1.000000
    5      -16.500841   1.000000
    6      -16.431996   1.000000
    7      -16.367306   1.000000
    8      -16.263729   1.000000
    9      -16.211908   1.000000
   10      -16.064836   1.000000
   11      -15.923961   1.000000
   12      -15.828875   1.000000
   13      -15.792139   1.000000
   14      -15.630441   1.000000
   15      -15.582806   1.000000
   16      -15.510809   1.000000
   17      -15.299040   1.000000
   18      -15.198574   1.000000
   19       -9.636375   1.000000
   20       -9.460133   1.000000
   21       -9.349074   1.000000
   22       -9.123983   1.000000
   23       -8.809957   1.000000
   24       -8.714387   1.000000
   25       -8.624435   1.000000
   26       -8.491461   1.000000
   27       -8.481127   1.000000
   28       -8.412823   1.000000
   29       -8.277716   1.000000
   30       -8.229826   1.000000
   31       -8.124524   1.000000
   32       -8.010708   1.000000
   33       -7.965098   1.000000
   34       -7.897714   1.000000
   35       -7.751173   1.000000
   36       -7.667615   1.000000
   37       -7.596221   1.000000
   38       -7.500844   1.000000
   39       -7.369422   1.000000
   40       -7.337481   1.000000
   41       -7.257288   1.000000
   42       -7.165314   1.000000
   43       -7.129535   1.000000
   44       -6.945123   1.000000
   45       -6.884699   1.000000
   46       -6.725503   1.000000
   47       -6.686689   1.000000