       N       E                     dE             d eps       ncg     rms          rms(c)
DAV:   1     0.112410317607E+04    0.11241E+04   -0.35869E+04  8160   0.577E+02
DAV:   2    -0.200321997095E+01   -0.11261E+04   -0.10848E+04 10960   0.173E+02
DAV:   3    -0.199779400155E+03   -0.19778E+03   -0.18957E+03 10960   0.820E+01
DAV:   4    -0.208958739985E+03   -0.91793E+01   -0.88625E+01 11920   0.259E+01
DAV:   5    -0.209305449012E+03   -0.34671E+00   -0.34571E+00 11680   0.375E+00    0.275E+01
DAV:   6    -0.236759962461E+03   -0.27455E+02   -0.10835E+02 12800   0.605E+01    0.594E+01
DAV:   7    -0.196680246120E+03    0.40080E+02   -0.17825E+02 12920   0.151E+02    0.202E+01
DAV:   8    -0.189951101637E+03    0.67291E+01   -0.20216E+01 11840   0.133E+01    0.134E+01
DAV:   9    -0.188232502981E+03    0.17186E+01   -0.28899E+00 11920   0.622E+00    0.919E+00
DAV:  10    -0.187049767437E+03    0.11827E+01   -0.18565E+00 13400   0.774E+00    0.291E+00
DAV:  11    -0.187024971207E+03    0.24796E-01   -0.61149E-01 13600   0.299E+00    0.304E+00
DAV:  12    -0.187176285475E+03   -0.15131E+00   -0.82106E-01 13160   0.523E+00    0.582E+00
DAV:  13    -0.186920801083E+03    0.25548E+00   -0.78827E-01 12840   0.420E+00    0.210E+00
DAV:  14    -0.186876799340E+03    0.44002E-01   -0.11716E-01 13280   0.202E+00    0.886E-01
DAV:  15    -0.186874456977E+03    0.23424E-02   -0.16742E-02 12840   0.689E-01    0.781E-01
DAV:  16    -0.186868459937E+03    0.59970E-02   -0.10184E-02 13160   0.524E-01    0.182E-01
DAV:  17    -0.186868491585E+03   -0.31647E-04   -0.37813E-03 13080   0.225E-01    0.215E-01
DAV:  18    -0.186867789976E+03    0.70161E-03   -0.17334E-03 11560   0.133E-01    0.102E-01
DAV:  19    -0.186867816016E+03   -0.26039E-04   -0.55506E-04  9440   0.747E-02
   1 F= -.18686782E+03 E0= -.18669611E+03  d E =-.186868E+03
       N       E                     dE             d eps       ncg     rms          rms(c)
DAV:   1    -0.187481328295E+03   -0.61354E+00   -0.27045E+02  8160   0.349E+01    0.466E+00
DAV:   2    -0.189428826258E+03   -0.19475E+01   -0.20276E+01 11920   0.155E+01    0.944E+00
DAV:   3    -0.189342964756E+03    0.85862E-01   -0.45846E+00 12240   0.124E+01    0.663E+00
DAV:   4    -0.188750917356E+03    0.59205E+00   -0.61062E-01 12200   0.456E+00    0.210E+00
DAV:   5    -0.188846605561E+03   -0.95688E-01   -0.43462E-01 11360   0.351E+00    0.500E+00
DAV:   6    -0.188747221736E+03    0.99384E-01   -0.73681E-01 12400   0.435E+00    0.270E+00
DAV:   7    -0.188665462668E+03    0.81759E-01   -0.22305E-01 12240   0.168E+00    0.115E+00
DAV:   8    -0.188662261589E+03    0.32011E-02   -0.82717E-02 11760   0.143E+00    0.148E+00
DAV:   9    -0.188646602894E+03    0.15659E-01   -0.33537E-02 11280   0.106E+00    0.560E-01
DAV:  10    -0.188643922599E+03    0.26803E-02   -0.67493E-03 12120   0.356E-01    0.315E-01
DAV:  11    -0.188643495641E+03    0.42696E-03   -0.33031E-03 12760   0.245E-01    0.132E-01
DAV:  12    -0.188643487970E+03    0.76713E-05   -0.12360E-03 11000   0.108E-01    0.103E-01
DAV:  13    -0.188643634254E+03   -0.14628E-03   -0.30205E-04  6960   0.689E-02    0.405E-02
DAV:  14    -0.188643699574E+03   -0.65320E-04   -0.11758E-04  7680   0.343E-02
   2 F= -.18864370E+03 E0= -.18850243E+03  d E =-.177588E+01
       N       E                     dE             d eps       ncg     rms          rms(c)
DAV:   1    -0.190575310859E+03   -0.19317E+01   -0.31109E+01  9200   0.142E+01    0.447E+00
DAV:   2    -0.190571734573E+03    0.35763E-02   -0.28479E+00 11760   0.977E+00    0.754E+00
DAV:   3    -0.190047227252E+03    0.52451E+00   -0.13766E+00 12280   0.868E+00    0.419E+00
DAV:   4    -0.189848636563E+03    0.19859E+00   -0.74113E-01 13000   0.413E+00    0.270E+00
DAV:   5    -0.189896302666E+03   -0.47666E-01   -0.48954E-01 12360   0.424E+00    0.385E+00
DAV:   6    -0.189740234594E+03    0.15607E+00   -0.22241E-01 12240   0.324E+00    0.624E-01
DAV:   7    -0.189734249940E+03    0.59847E-02   -0.15272E-02 12040   0.468E-01    0.218E-01
DAV:   8    -0.189734584197E+03   -0.33426E-03   -0.34340E-03 11440   0.250E-01    0.256E-01
DAV:   9    -0.189734337599E+03    0.24660E-03   -0.18175E-03 10480   0.274E-01    0.184E-01
DAV:  10    -0.189734522837E+03   -0.18524E-03   -0.11658E-03 10000   0.183E-01    0.146E-01
DAV:  11    -0.189734267704E+03    0.25513E-03   -0.53318E-04  8360   0.925E-02    0.170E-02
DAV:  12    -0.189734323199E+03   -0.55496E-04   -0.71478E-05  6920   0.250E-02
   3 F= -.18973432E+03 E0= -.18961517E+03  d E =-.109062E+01
       N       E                     dE             d eps       ncg     rms          rms(c)
DAV:   1    -0.191296458782E+03   -0.15622E+01   -0.70553E+01  8160   0.192E+01    0.464E+00
DAV:   2    -0.191171294350E+03    0.12516E+00   -0.54057E+00 13480   0.837E+00    0.525E+00
DAV:   3    -0.191199039634E+03   -0.27745E-01   -0.15727E+00 12200   0.928E+00    0.624E+00
DAV:   4    -0.190809977596E+03    0.38906E+00   -0.11370E+00 12960   0.680E+00    0.255E+00
DAV:   5    -0.190710726661E+03    0.99251E-01   -0.28236E-01 11280   0.210E+00    0.102E+00
DAV:   6    -0.190708044243E+03    0.26824E-02   -0.89654E-02 12240   0.176E+00    0.128E+00
DAV:   7    -0.190698303672E+03    0.97406E-02   -0.47476E-02 11960   0.149E+00    0.684E-01
DAV:   8    -0.190692407448E+03    0.58962E-02   -0.82441E-03 10640   0.517E-01    0.152E-01
DAV:   9    -0.190692701313E+03   -0.29386E-03   -0.17140E-03 11000   0.142E-01    0.148E-01
DAV:  10    -0.190692824418E+03   -0.12311E-03   -0.15673E-03 11920   0.217E-01    0.180E-01
DAV:  11    -0.190692587858E+03    0.23656E-03   -0.80773E-04  9120   0.190E-01    0.713E-02
DAV:  12    -0.190692554643E+03    0.33215E-04   -0.12127E-04  6320   0.623E-02
   4 F= -.19069255E+03 E0= -.19059122E+03  d E =-.958231E+00
       N       E                     dE             d eps       ncg     rms          rms(c)
DAV:   1    -0.192088234523E+03   -0.13956E+01   -0.14587E+02  8160   0.271E+01    0.568E+00
DAV:   2    -0.191794046081E+03    0.29419E+00   -0.92883E+00 12360   0.807E+00    0.383E+00
DAV:   3    -0.191862272452E+03   -0.68226E-01   -0.17193E+00 12440   0.877E+00    0.614E+00
DAV:   4    -0.191609561661E+03    0.25271E+00   -0.15585E+00 12480   0.957E+00    0.385E+00
DAV:   5    -0.191371343624E+03    0.23822E+00   -0.41709E-01 12520   0.362E+00    0.828E-01
DAV:   6    -0.191369104795E+03    0.22388E-02   -0.10359E-01 12520   0.146E+00    0.102E+00
DAV:   7    -0.191368073355E+03    0.10314E-02   -0.68296E-02 11920   0.167E+00    0.971E-01
DAV:   8    -0.191356907741E+03    0.11166E-01   -0.17631E-02 12040   0.856E-01    0.166E-01
DAV:   9    -0.191357912288E+03   -0.10045E-02   -0.40357E-03 11760   0.313E-01    0.291E-01
DAV:  10    -0.191357247036E+03    0.66525E-03   -0.22140E-03 12080   0.340E-01    0.114E-01
DAV:  11    -0.191357168303E+03    0.78733E-04   -0.41095E-04  9040   0.114E-01
   5 F= -.19135717E+03 E0= -.19126127E+03  d E =-.664614E+00
       N       E                     dE             d eps       ncg     rms          rms(c)
DAV:   1    -0.191452646072E+03   -0.95399E-01   -0.89375E+00  8160   0.631E+00    0.783E-01
DAV:   2    -0.191521781620E+03   -0.69136E-01   -0.32343E-01 12640   0.288E+00    0.224E+00
DAV:   3    -0.191465834765E+03    0.55947E-01   -0.11880E-01 12520   0.261E+00    0.546E-01
DAV:   4    -0.191463277546E+03    0.25572E-02   -0.11173E-02 10960   0.525E-01    0.344E-01
DAV:   5    -0.191462997739E+03    0.27981E-03   -0.65331E-03 11200   0.560E-01    0.417E-01
DAV:   6    -0.191461901466E+03    0.10963E-02   -0.52998E-03 11600   0.523E-01    0.229E-01
DAV:   7    -0.191461345483E+03    0.55598E-03   -0.17171E-03 11480   0.220E-01    0.724E-02
DAV:   8    -0.191461343630E+03    0.18530E-05   -0.46409E-04  8960   0.122E-01
   6 F= -.19146134E+03 E0= -.19136269E+03  d E =-.104175E+00
       N       E                     dE             d eps       ncg     rms          rms(c)
DAV:   1    -0.191480105320E+03   -0.18760E-01   -0.29722E-01  8160   0.116E+00    0.169E-01
DAV:   2    -0.191483453935E+03   -0.33486E-02   -0.14400E-02 12760   0.688E-01    0.516E-01
DAV:   3    -0.191480441387E+03    0.30125E-02   -0.53225E-03 11680   0.554E-01    0.949E-02
DAV:   4    -0.191480572830E+03   -0.13144E-03   -0.81908E-04  9040   0.172E-01    0.149E-01
DAV:   5    -0.191480381923E+03    0.19091E-03   -0.67587E-04  8680   0.177E-01    0.704E-02
DAV:   6    -0.191480356603E+03    0.25320E-04   -0.16331E-04  6040   0.732E-02
   7 F= -.19148036E+03 E0= -.19138133E+03  d E =-.190130E-01
       N       E                     dE             d eps       ncg     rms          rms(c)
DAV:   1    -0.191220717167E+03    0.25966E+00   -0.45277E+01  8160   0.143E+01    0.190E+00
DAV:   2    -0.191610954882E+03   -0.39024E+00   -0.19428E+00 13120   0.761E+00    0.493E+00
DAV:   3    -0.191274944750E+03    0.33601E+00   -0.45715E-01 12320   0.550E+00    0.927E-01
DAV:   4    -0.191266420132E+03    0.85246E-02   -0.51543E-02 12240   0.954E-01    0.735E-01
DAV:   5    -0.191261444401E+03    0.49757E-02   -0.28475E-02 12440   0.998E-01    0.725E-01
DAV:   6    -0.191262948965E+03   -0.15046E-02   -0.29602E-02 12520   0.127E+00    0.783E-01
DAV:   7    -0.191256005152E+03    0.69438E-02   -0.12038E-02 12000   0.739E-01    0.138E-01
DAV:   8    -0.191255829672E+03    0.17548E-03   -0.16649E-03 11560   0.199E-01    0.127E-01
DAV:   9    -0.191255800122E+03    0.29550E-04   -0.85913E-04  9600   0.196E-01
   8 F= -.19125580E+03 E0= -.19116719E+03  d E =0.224556E+00
       N       E                     dE             d eps       ncg     rms          rms(c)
DAV:   1    -0.191134164516E+03    0.12167E+00   -0.14562E+01  8160   0.811E+00    0.104E+00
DAV:   2    -0.191242184656E+03   -0.10802E+00   -0.56314E-01 13560   0.388E+00    0.267E+00
DAV:   3    -0.191150684761E+03    0.91500E-01   -0.14997E-01 12240   0.306E+00    0.609E-01
DAV:   4    -0.191148337385E+03    0.23474E-02   -0.19809E-02 11880   0.697E-01    0.525E-01
DAV:   5    -0.191146417794E+03    0.19196E-02   -0.12504E-02 11960   0.795E-01    0.508E-01
DAV:   6    -0.191144956533E+03    0.14613E-02   -0.86194E-03 12160   0.693E-01    0.313E-01
DAV:   7    -0.191143748627E+03    0.12079E-02   -0.28389E-03 11680   0.307E-01    0.839E-02
DAV:   8    -0.191143653127E+03    0.95500E-04   -0.53229E-04 10680   0.112E-01
   9 F= -.19114365E+03 E0= -.19106204E+03  d E =0.112147E+00
       N       E                     dE             d eps       ncg     rms          rms(c)
DAV:   1    -0.191140541915E+03    0.32067E-02   -0.16882E-02  8640   0.297E-01    0.712E-02
DAV:   2    -0.191141511467E+03   -0.96955E-03   -0.25173E-03 12200   0.331E-01    0.300E-01
DAV:   3    -0.191140501852E+03    0.10096E-02   -0.15904E-03 10160   0.287E-01    0.327E-02
DAV:   4    -0.191140540420E+03   -0.38568E-04   -0.77103E-05  5800   0.616E-02
  10 F= -.19114054E+03 E0= -.19105913E+03  d E =0.311271E-02
       N       E                     dE             d eps       ncg     rms          rms(c)
DAV:   1    -0.191171432932E+03   -0.30931E-01   -0.31311E+00  8160   0.378E+00    0.454E-01
DAV:   2    -0.191192443916E+03   -0.21011E-01   -0.13014E-01 13360   0.159E+00    0.119E+00
DAV:   3    -0.191178432828E+03    0.14011E-01   -0.37333E-02 12560   0.140E+00    0.382E-01
DAV:   4    -0.191177500783E+03    0.93204E-03   -0.53907E-03 11720   0.448E-01    0.286E-01
DAV:   5    -0.191176808191E+03    0.69259E-03   -0.28619E-03 12560   0.400E-01    0.203E-01
DAV:   6    -0.191176592174E+03    0.21602E-03   -0.18918E-03 11960   0.282E-01    0.125E-01
DAV:   7    -0.191176394797E+03    0.19738E-03   -0.83829E-04 10560   0.164E-01    0.895E-02
DAV:   8    -0.191176320914E+03    0.73884E-04   -0.23437E-04  7280   0.111E-01
  11 F= -.19117632E+03 E0= -.19109340E+03  d E =-.357805E-01
       N       E                     dE             d eps       ncg     rms          rms(c)
DAV:   1    -0.191184703902E+03   -0.83091E-02   -0.15100E+00  8160   0.264E+00    0.299E-01
DAV:   2    -0.191189362534E+03   -0.46586E-02   -0.39007E-02 13560   0.853E-01    0.603E-01
DAV:   3    -0.191186304297E+03    0.30582E-02   -0.11559E-02 12480   0.791E-01    0.296E-01
DAV:   4    -0.191185606624E+03    0.69767E-03   -0.25431E-03 11640   0.331E-01    0.171E-01
DAV:   5    -0.191185525798E+03    0.80826E-04   -0.15676E-03 10760   0.288E-01    0.182E-01
DAV:   6    -0.191185234013E+03    0.29179E-03   -0.10020E-03 10200   0.231E-01    0.811E-02
DAV:   7    -0.191185163811E+03    0.70202E-04   -0.28754E-04  8200   0.105E-01
  12 F= -.19118516E+03 E0= -.19110100E+03  d E =-.884290E-02
       N       E                     dE             d eps       ncg     rms          rms(c)
DAV:   1    -0.191219373987E+03   -0.34140E-01   -0.10429E+01  8160   0.696E+00    0.729E-01
DAV:   2    -0.191247027507E+03   -0.27654E-01   -0.24669E-01 13320   0.189E+00    0.137E+00
DAV:   3    -0.191232887761E+03    0.14140E-01   -0.65210E-02 12000   0.189E+00    0.771E-01
DAV:   4    -0.191227514318E+03    0.53734E-02   -0.14824E-02 12520   0.789E-01    0.336E-01
DAV:   5    -0.191225853725E+03    0.16606E-02   -0.63032E-03 11600   0.405E-01    0.266E-01
DAV:   6    -0.191226442735E+03   -0.58901E-03   -0.46984E-03 12560   0.543E-01    0.336E-01
DAV:   7    -0.191224955320E+03    0.14874E-02   -0.20628E-03 11280   0.364E-01    0.564E-02
DAV:   8    -0.191224945175E+03    0.10145E-04   -0.21667E-04  7760   0.660E-02
  13 F= -.19122495E+03 E0= -.19113603E+03  d E =-.397814E-01
       N       E                     dE             d eps       ncg     rms          rms(c)
DAV:   1    -0.191217470090E+03    0.74852E-02   -0.35563E+01  8160   0.129E+01    0.150E+00
DAV:   2    -0.191436301285E+03   -0.21883E+00   -0.10637E+00 13240   0.519E+00    0.456E+00
DAV:   3    -0.191259044590E+03    0.17726E+00   -0.56348E-01 12040   0.500E+00    0.124E+00
DAV:   4    -0.191261303242E+03   -0.22587E-02   -0.77750E-02 12320   0.190E+00    0.136E+00
DAV:   5    -0.191242204911E+03    0.19098E-01   -0.53733E-02 11720   0.174E+00    0.731E-01
DAV:   6    -0.191237892274E+03    0.43126E-02   -0.22446E-02 12080   0.849E-01    0.452E-01
DAV:   7    -0.191239539139E+03   -0.16469E-02   -0.14479E-02 12720   0.888E-01    0.631E-01
DAV:   8    -0.191234895223E+03    0.46439E-02   -0.64026E-03 11800   0.598E-01    0.690E-02
DAV:   9    -0.191234940596E+03   -0.45373E-04   -0.47364E-04 10320   0.819E-02
  14 F= -.19123494E+03 E0= -.19114900E+03  d E =-.999542E-02
       N       E                     dE             d eps       ncg     rms          rms(c)
DAV:   1    -0.191319960768E+03   -0.85066E-01   -0.12358E+01  8160   0.744E+00    0.928E-01
DAV:   2    -0.191421573874E+03   -0.10161E+00   -0.43413E-01 13600   0.377E+00    0.283E+00
DAV:   3    -0.191333246845E+03    0.88327E-01   -0.17542E-01 12320   0.315E+00    0.564E-01
DAV:   4    -0.191332981627E+03    0.26522E-03   -0.17990E-02 11960   0.720E-01    0.603E-01
DAV:   5    -0.191330591881E+03    0.23897E-02   -0.14676E-02 12120   0.870E-01    0.516E-01
DAV:   6    -0.191328260577E+03    0.23313E-02   -0.75863E-03 12200   0.571E-01    0.204E-01
DAV:   7    -0.191327809986E+03    0.45059E-03   -0.19414E-03 12000   0.210E-01    0.114E-01
DAV:   8    -0.191327722609E+03    0.87377E-04   -0.62683E-04  9440   0.167E-01
  15 F= -.19132772E+03 E0= -.19123596E+03  d E =-.927820E-01
       N       E                     dE             d eps       ncg     rms          rms(c)
DAV:   1    -0.191252609931E+03    0.75200E-01   -0.14707E+01  8160   0.819E+00    0.860E-01
DAV:   2    -0.191297487269E+03   -0.44877E-01   -0.34771E-01 13600   0.225E+00    0.160E+00
DAV:   3    -0.191269981592E+03    0.27506E-01   -0.81176E-02 12040   0.216E+00    0.797E-01
DAV:   4    -0.191266830591E+03    0.31510E-02   -0.22106E-02 12320   0.919E-01    0.579E-01
DAV:   5    -0.191264201212E+03    0.26294E-02   -0.13719E-02 11880   0.847E-01    0.512E-01
DAV:   6    -0.191262603272E+03    0.15979E-02   -0.85517E-03 11240   0.669E-01    0.303E-01
DAV:   7    -0.191261377749E+03    0.12255E-02   -0.23818E-03 11840   0.282E-01    0.670E-02
DAV:   8    -0.191261454161E+03   -0.76413E-04   -0.54624E-04  9480   0.147E-01
  16 F= -.19126145E+03 E0= -.19117345E+03  d E =0.662684E-01
       N       E                     dE             d eps       ncg     rms          rms(c)
DAV:   1    -0.191313485366E+03   -0.52108E-01   -0.54639E+00  8160   0.498E+00    0.534E-01
DAV:   2    -0.191333632566E+03   -0.20147E-01   -0.13872E-01 13120   0.162E+00    0.114E+00
DAV:   3    -0.191319927702E+03    0.13705E-01   -0.37514E-02 12320   0.148E+00    0.462E-01
DAV:   4    -0.191318614918E+03    0.13128E-02   -0.73106E-03 11720   0.541E-01    0.341E-01
DAV:   5    -0.191318080041E+03    0.53488E-03   -0.54136E-03 12520   0.550E-01    0.335E-01
DAV:   6    -0.191317120841E+03    0.95920E-03   -0.30153E-03 11360   0.380E-01    0.133E-01
DAV:   7    -0.191316883567E+03    0.23727E-03   -0.63977E-04 10520   0.123E-01    0.356E-02
DAV:   8    -0.191316896654E+03   -0.13087E-04   -0.13003E-04  7400   0.750E-02
  17 F= -.19131690E+03 E0= -.19122556E+03  d E =-.554425E-01
       N       E                     dE             d eps       ncg     rms          rms(c)
DAV:   1    -0.191323563318E+03   -0.66798E-02   -0.39735E+00  8160   0.428E+00    0.473E-01
DAV:   2    -0.191337627656E+03   -0.14064E-01   -0.95870E-02 13600   0.137E+00    0.105E+00
DAV:   3    -0.191327628475E+03    0.99992E-02   -0.31418E-02 11960   0.130E+00    0.445E-01
DAV:   4    -0.191327242285E+03    0.38619E-03   -0.71562E-03 11200   0.571E-01    0.386E-01
DAV:   5    -0.191325839703E+03    0.14026E-02   -0.48504E-03 10600   0.545E-01    0.259E-01
DAV:   6    -0.191325333928E+03    0.50578E-03   -0.23792E-03 11320   0.300E-01    0.133E-01
DAV:   7    -0.191325254215E+03    0.79713E-04   -0.10464E-03 10640   0.192E-01    0.140E-01
DAV:   8    -0.191325051042E+03    0.20317E-03   -0.46520E-04  8480   0.148E-01    0.319E-02
DAV:   9    -0.191325053521E+03   -0.24790E-05   -0.40202E-05  5880   0.344E-02
  18 F= -.19132505E+03 E0= -.19123337E+03  d E =-.815687E-02
       N       E                     dE             d eps       ncg     rms          rms(c)
DAV:   1    -0.191314795704E+03    0.10255E-01   -0.10748E+00  8160   0.222E+00    0.241E-01
DAV:   2    -0.191318127055E+03   -0.33314E-02   -0.25037E-02 13600   0.664E-01    0.479E-01
DAV:   3    -0.191315838944E+03    0.22881E-02   -0.66705E-03 11560   0.618E-01    0.219E-01
DAV:   4    -0.191315778659E+03    0.60286E-04   -0.18294E-03 10200   0.284E-01    0.200E-01
DAV:   5    -0.191315444100E+03    0.33456E-03   -0.12935E-03 10240   0.277E-01    0.136E-01
DAV:   6    -0.191315309950E+03    0.13415E-03   -0.59604E-04  8880   0.157E-01    0.669E-02
DAV:   7    -0.191315248338E+03    0.61612E-04   -0.14390E-04  6240   0.701E-02
  19 F= -.19131525E+03 E0= -.19122414E+03  d E =0.980518E-02
       N       E                     dE             d eps       ncg     rms          rms(c)
DAV:   1    -0.191405655014E+03   -0.90345E-01   -0.10919E+01  8160   0.700E+00    0.957E-01
DAV:   2    -0.191528368050E+03   -0.12271E+00   -0.46332E-01 13600   0.416E+00    0.321E+00
DAV:   3    -0.191416952374E+03    0.11142E+00   -0.20580E-01 12320   0.343E+00    0.516E-01
DAV:   4    -0.191418123348E+03   -0.11710E-02   -0.18861E-02 12400   0.832E-01    0.712E-01
DAV:   5    -0.191413817754E+03    0.43056E-02   -0.14558E-02 11520   0.894E-01    0.419E-01
DAV:   6    -0.191412237174E+03    0.15806E-02   -0.59618E-03 11520   0.453E-01    0.189E-01
DAV:   7    -0.191412157861E+03    0.79314E-04   -0.28173E-03 11400   0.285E-01    0.217E-01
DAV:   8    -0.191411706288E+03    0.45157E-03   -0.14566E-03  9960   0.252E-01    0.815E-02
DAV:   9    -0.191411638014E+03    0.68275E-04   -0.17938E-04  6000   0.787E-02
  20 F= -.19141164E+03 E0= -.19131494E+03  d E =-.963897E-01
       N       E                     dE             d eps       ncg     rms          rms(c)
DAV:   1    -0.191442220459E+03   -0.30514E-01   -0.11890E+00  8160   0.229E+00    0.252E-01
DAV:   2    -0.191450201424E+03   -0.79810E-02   -0.36199E-02 13200   0.907E-01    0.771E-01
DAV:   3    -0.191443847664E+03    0.63538E-02   -0.13503E-02 11760   0.852E-01    0.205E-01
DAV:   4    -0.191443905950E+03   -0.58286E-04   -0.19637E-03 10280   0.287E-01    0.219E-01
DAV:   5    -0.191443432903E+03    0.47305E-03   -0.10497E-03 10040   0.241E-01    0.895E-02
DAV:   6    -0.191443413485E+03    0.19418E-04   -0.38827E-04  8400   0.105E-01
  21 F= -.19144341E+03 E0= -.19134567E+03  d E =-.317755E-01
       N       E                     dE             d eps       ncg     rms          rms(c)
DAV:   1    -0.191479940667E+03   -0.36508E-01   -0.15936E+00  8160   0.268E+00    0.339E-01
DAV:   2    -0.191493098535E+03   -0.13158E-01   -0.57909E-02 13480   0.120E+00    0.101E+00
DAV:   3    -0.191482054283E+03    0.11044E-01   -0.23107E-02 11840   0.114E+00    0.267E-01
DAV:   4    -0.191482283711E+03   -0.22943E-03   -0.36958E-03 11200   0.400E-01    0.315E-01
DAV:   5    -0.191481305486E+03    0.97823E-03   -0.20511E-03 10600   0.334E-01    0.113E-01
DAV:   6    -0.191481227756E+03    0.77729E-04   -0.60579E-04 10360   0.122E-01
  22 F= -.19148123E+03 E0= -.19138233E+03  d E =-.378143E-01
       N       E                     dE             d eps       ncg     rms          rms(c)
DAV:   1    -0.191505079731E+03   -0.23774E-01   -0.12267E+00  8160   0.236E+00    0.353E-01
DAV:   2    -0.191528137364E+03   -0.23058E-01   -0.71350E-02 12520   0.164E+00    0.152E+00
DAV:   3    -0.191506343420E+03    0.21794E-01   -0.42588E-02 11280   0.142E+00    0.216E-01
DAV:   4    -0.191506541390E+03   -0.19797E-03   -0.33596E-03 11520   0.379E-01    0.267E-01
DAV:   5    -0.191505838830E+03    0.70256E-03   -0.19353E-03 10520   0.310E-01    0.127E-01
DAV:   6    -0.191505769912E+03    0.68918E-04   -0.75611E-04  9320   0.168E-01
  23 F= -.19150577E+03 E0= -.19140652E+03  d E =-.245422E-01
       N       E                     dE             d eps       ncg     rms          rms(c)
DAV:   1    -0.191520183220E+03   -0.14344E-01   -0.67120E+00  8160   0.558E+00    0.769E-01
DAV:   2    -0.191597877712E+03   -0.77694E-01   -0.30103E-01 12920   0.291E+00    0.282E+00
DAV:   3    -0.191528665010E+03    0.69213E-01   -0.17590E-01 11720   0.283E+00    0.585E-01
DAV:   4    -0.191526351062E+03    0.23139E-02   -0.14098E-02 11520   0.690E-01    0.476E-01
DAV:   5    -0.191524717117E+03    0.16339E-02   -0.82743E-03 12000   0.674E-01    0.375E-01
DAV:   6    -0.191523304469E+03    0.14126E-02   -0.45560E-03 11200   0.437E-01    0.181E-01
DAV:   7    -0.191524039021E+03   -0.73455E-03   -0.36996E-03 11360   0.396E-01    0.320E-01
DAV:   8    -0.191522961626E+03    0.10774E-02   -0.21677E-03  9640   0.324E-01    0.678E-02
DAV:   9    -0.191522909796E+03    0.51830E-04   -0.17492E-04  5960   0.657E-02
  24 F= -.19152291E+03 E0= -.19142294E+03  d E =-.171399E-01
       N       E                     dE             d eps       ncg     rms          rms(c)
DAV:   1    -0.191611623639E+03   -0.88662E-01   -0.77580E+00  8160   0.591E+00    0.733E-01
DAV:   2    -0.191677638279E+03   -0.66015E-01   -0.29653E-01 13280   0.303E+00    0.232E+00
DAV:   3    -0.191623062001E+03    0.54576E-01   -0.11165E-01 12240   0.251E+00    0.507E-01
DAV:   4    -0.191624705342E+03   -0.16433E-02   -0.16262E-02 11360   0.882E-01    0.694E-01
DAV:   5    -0.191619560484E+03    0.51449E-02   -0.93776E-03 10880   0.741E-01    0.228E-01
DAV:   6    -0.191619388086E+03    0.17240E-03   -0.32127E-03 10800   0.274E-01    0.177E-01
DAV:   7    -0.191619459068E+03   -0.70982E-04   -0.25552E-03 11200   0.312E-01    0.247E-01
DAV:   8    -0.191618841217E+03    0.61785E-03   -0.12415E-03  9240   0.241E-01    0.412E-02
DAV:   9    -0.191618842825E+03   -0.16085E-05   -0.87302E-05  5680   0.431E-02
  25 F= -.19161884E+03 E0= -.19151991E+03  d E =-.959330E-01
       N       E                     dE             d eps       ncg     rms          rms(c)
DAV:   1    -0.191575651224E+03    0.43190E-01   -0.14085E+00  8160   0.253E+00    0.312E-01
DAV:   2    -0.191586396498E+03   -0.10745E-01   -0.54027E-02 12880   0.124E+00    0.876E-01
DAV:   3    -0.191577521922E+03    0.88746E-02   -0.15221E-02 12200   0.972E-01    0.196E-01
DAV:   4    -0.191577741326E+03   -0.21940E-03   -0.24589E-03 11160   0.320E-01    0.271E-01
DAV:   5    -0.191577041299E+03    0.70003E-03   -0.17180E-03 10280   0.309E-01    0.110E-01
DAV:   6    -0.191576991225E+03    0.50073E-04   -0.60929E-04 10080   0.125E-01
  26 F= -.19157699E+03 E0= -.19147729E+03  d E =0.418516E-01
       N       E                     dE             d eps       ncg     rms          rms(c)
DAV:   1    -0.191653438150E+03   -0.76397E-01   -0.56434E+00  8160   0.505E+00    0.630E-01
DAV:   2    -0.191703268353E+03   -0.49830E-01   -0.22610E-01 13200   0.265E+00    0.202E+00
DAV:   3    -0.191662129332E+03    0.41139E-01   -0.81538E-02 12040   0.215E+00    0.430E-01
DAV:   4    -0.191663460920E+03   -0.13316E-02   -0.12222E-02 10920   0.773E-01    0.601E-01
DAV:   5    -0.191659503770E+03    0.39572E-02   -0.69414E-03 10880   0.641E-01    0.189E-01
DAV:   6    -0.191659427962E+03    0.75808E-04   -0.24283E-03 10840   0.225E-01    0.148E-01
DAV:   7    -0.191659274916E+03    0.15305E-03   -0.15059E-03 10720   0.222E-01    0.165E-01
DAV:   8    -0.191659007504E+03    0.26741E-03   -0.62248E-04  8600   0.170E-01    0.382E-02
DAV:   9    -0.191659002517E+03    0.49872E-05   -0.61308E-05  5760   0.395E-02
  27 F= -.19165900E+03 E0= -.19156082E+03  d E =-.820113E-01
       N       E                     dE             d eps       ncg     rms          rms(c)
DAV:   1    -0.191814774421E+03   -0.15577E+00   -0.46931E+01  8160   0.146E+01    0.167E+00
DAV:   2    -0.192117818728E+03   -0.30304E+00   -0.17150E+00 12800   0.648E+00    0.492E+00
DAV:   3    -0.191906222561E+03    0.21160E+00   -0.56832E-01 12120   0.563E+00    0.135E+00
DAV:   4    -0.191908411794E+03   -0.21892E-02   -0.91676E-02 11520   0.224E+00    0.157E+00
DAV:   5    -0.191878528532E+03    0.29883E-01   -0.47188E-02 11760   0.176E+00    0.521E-01
DAV:   6    -0.191882887603E+03   -0.43591E-02   -0.28398E-02 12240   0.960E-01    0.802E-01
DAV:   7    -0.191878419300E+03    0.44683E-02   -0.25644E-02 12240   0.114E+00    0.563E-01
DAV:   8    -0.191874581989E+03    0.38373E-02   -0.70122E-03 11240   0.527E-01    0.767E-02
DAV:   9    -0.191874552517E+03    0.29472E-04   -0.67958E-04 10440   0.840E-02
  28 F= -.19187455E+03 E0= -.19178309E+03  d E =-.215550E+00
       N       E                     dE             d eps       ncg     rms          rms(c)
DAV:   1    -0.191949916976E+03   -0.75335E-01   -0.30782E+01  8160   0.120E+01    0.142E+00
DAV:   2    -0.192113944638E+03   -0.16403E+00   -0.13271E+00 12960   0.490E+00    0.320E+00
DAV:   3    -0.192027418455E+03    0.86526E-01   -0.31473E-01 12200   0.415E+00    0.121E+00
DAV:   4    -0.192018625531E+03    0.87929E-02   -0.55551E-02 12280   0.177E+00    0.113E+00
DAV:   5    -0.192004967814E+03    0.13658E-01   -0.35075E-02 11680   0.154E+00    0.577E-01
DAV:   6    -0.192005468176E+03   -0.50036E-03   -0.24165E-02 12720   0.884E-01    0.598E-01
DAV:   7    -0.192002375275E+03    0.30929E-02   -0.14331E-02 12120   0.885E-01    0.418E-01
DAV:   8    -0.192000324272E+03    0.20510E-02   -0.38451E-03 11440   0.420E-01    0.760E-02
DAV:   9    -0.192000250551E+03    0.73721E-04   -0.47785E-04  9360   0.792E-02
  29 F= -.19200025E+03 E0= -.19191077E+03  d E =-.125698E+00
       N       E                     dE             d eps       ncg     rms          rms(c)
DAV:   1    -0.192020819124E+03   -0.20495E-01   -0.30235E+00  8160   0.365E+00    0.402E-01
DAV:   2    -0.192032390002E+03   -0.11571E-01   -0.13769E-01 11400   0.117E+00    0.485E-01
DAV:   3    -0.192033561197E+03   -0.11712E-02   -0.16627E-02 12360   0.101E+00    0.591E-01
DAV:   4    -0.192029444038E+03    0.41172E-02   -0.56697E-03 11440   0.606E-01    0.128E-01
DAV:   5    -0.192029967620E+03   -0.52358E-03   -0.22579E-03 11480   0.302E-01    0.247E-01
DAV:   6    -0.192029442311E+03    0.52531E-03   -0.19599E-03 12920   0.340E-01    0.124E-01
DAV:   7    -0.192029297193E+03    0.14512E-03   -0.52000E-04  8520   0.153E-01    0.660E-02
DAV:   8    -0.192029258198E+03    0.38995E-04   -0.12807E-04  6720   0.898E-02
  30 F= -.19202926E+03 E0= -.19194081E+03  d E =-.290076E-01
       N       E                     dE             d eps       ncg     rms          rms(c)
DAV:   1    -0.192032763634E+03   -0.34664E-02   -0.12099E-01  8160   0.811E-01    0.165E-01
DAV:   2    -0.192032516738E+03    0.24690E-03   -0.58722E-03 11680   0.306E-01    0.178E-01
DAV:   3    -0.192032404831E+03    0.11191E-03   -0.16548E-03 11720   0.343E-01    0.161E-01
DAV:   4    -0.192032062205E+03    0.34263E-03   -0.82768E-04 11040   0.233E-01    0.865E-02
DAV:   5    -0.192031927467E+03    0.13474E-03   -0.38925E-04  7920   0.985E-02    0.251E-02
DAV:   6    -0.192031935099E+03   -0.76323E-05   -0.93342E-05  7760   0.630E-02
  31 F= -.19203194E+03 E0= -.19194307E+03  d E =-.267690E-02
       N       E                     dE             d eps       ncg     rms          rms(c)
DAV:   1    -0.192044202128E+03   -0.12275E-01   -0.80233E-01  8160   0.190E+00    0.214E-01
DAV:   2    -0.192046237407E+03   -0.20353E-02   -0.30170E-02 10960   0.472E-01    0.191E-01
DAV:   3    -0.192047071726E+03   -0.83432E-03   -0.40975E-03 12760   0.486E-01    0.345E-01
DAV:   4    -0.192045704986E+03    0.13667E-02   -0.20909E-03  9960   0.361E-01    0.742E-02
DAV:   5    -0.192045803085E+03   -0.98099E-04   -0.61604E-04  9400   0.139E-01
  32 F= -.19204580E+03 E0= -.19195767E+03  d E =-.138680E-01
       N       E                     dE             d eps       ncg     rms          rms(c)
DAV:   1    -0.192062250658E+03   -0.16546E-01   -0.18192E+00  8160   0.292E+00    0.370E-01
DAV:   2    -0.192067138451E+03   -0.48878E-02   -0.72651E-02 11200   0.791E-01    0.412E-01
DAV:   3    -0.192068216453E+03   -0.10780E-02   -0.11708E-02 12400   0.881E-01    0.546E-01
DAV:   4    -0.192064638297E+03    0.35782E-02   -0.44358E-03 11560   0.545E-01    0.102E-01
DAV:   5    -0.192064944547E+03   -0.30625E-03   -0.15895E-03 11640   0.248E-01    0.184E-01
DAV:   6    -0.192064546287E+03    0.39826E-03   -0.94642E-04 10840   0.256E-01    0.734E-02
DAV:   7    -0.192064501068E+03    0.45218E-04   -0.23482E-04  7520   0.105E-01
  33 F= -.19206450E+03 E0= -.19197655E+03  d E =-.186980E-01
       N       E                     dE             d eps       ncg     rms          rms(c)
DAV:   1    -0.192073205851E+03   -0.86596E-02   -0.56114E-01  8160   0.160E+00    0.194E-01
DAV:   2    -0.192075078258E+03   -0.18724E-02   -0.22295E-02 10400   0.538E-01    0.252E-01
DAV:   3    -0.192074821230E+03    0.25703E-03   -0.27827E-03 12440   0.450E-01    0.205E-01
DAV:   4    -0.192074353740E+03    0.46749E-03   -0.95075E-04 10120   0.255E-01    0.108E-01
DAV:   5    -0.192074367913E+03   -0.14173E-04   -0.51938E-04  9120   0.198E-01
  34 F= -.19207437E+03 E0= -.19198733E+03  d E =-.986684E-02
       N       E                     dE             d eps       ncg     rms          rms(c)
DAV:   1    -0.192080264052E+03   -0.59103E-02   -0.24170E-01  8160   0.107E+00    0.134E-01
DAV:   2    -0.192080844016E+03   -0.57996E-03   -0.88269E-03 10400   0.264E-01    0.131E-01
DAV:   3    -0.192081021695E+03   -0.17768E-03   -0.14050E-03 11440   0.299E-01    0.191E-01
DAV:   4    -0.192080626604E+03    0.39509E-03   -0.61036E-04  8800   0.211E-01    0.631E-02
DAV:   5    -0.192080638837E+03   -0.12232E-04   -0.23985E-04  7520   0.121E-01
  35 F= -.19208064E+03 E0= -.19199384E+03  d E =-.627092E-02
       N       E                     dE             d eps       ncg     rms          rms(c)
DAV:   1    -0.192090365779E+03   -0.97392E-02   -0.67647E-01  8160   0.178E+00    0.226E-01
DAV:   2    -0.192091980027E+03   -0.16142E-02   -0.24850E-02 10920   0.422E-01    0.203E-01
DAV:   3    -0.192092151896E+03   -0.17187E-03   -0.31896E-03 12520   0.439E-01    0.265E-01
DAV:   4    -0.192091380550E+03    0.77135E-03   -0.14653E-03 10720   0.338E-01    0.112E-01
DAV:   5    -0.192091324029E+03    0.56521E-04   -0.82191E-04  9960   0.188E-01
  36 F= -.19209132E+03 E0= -.19200501E+03  d E =-.106852E-01
       N       E                     dE             d eps       ncg     rms          rms(c)
DAV:   1    -0.192097057474E+03   -0.56769E-02   -0.22877E-01  8160   0.104E+00    0.160E-01
DAV:   2    -0.192098967334E+03   -0.19099E-02   -0.10132E-02 11400   0.516E-01    0.370E-01
DAV:   3    -0.192097352241E+03    0.16151E-02   -0.32094E-03 11760   0.473E-01    0.120E-01
DAV:   4    -0.192097442922E+03   -0.90681E-04   -0.83640E-04  9040   0.211E-01
  37 F= -.19209744E+03 E0= -.19201127E+03  d E =-.611889E-02
       N       E                     dE             d eps       ncg     rms          rms(c)
DAV:   1    -0.192099866911E+03   -0.25147E-02   -0.46635E-02  8160   0.493E-01    0.813E-02
DAV:   2    -0.192100104095E+03   -0.23718E-03   -0.18537E-03 12440   0.186E-01    0.134E-01
DAV:   3    -0.192099916404E+03    0.18769E-03   -0.51987E-04  9920   0.196E-01    0.740E-02
DAV:   4    -0.192099928105E+03   -0.11701E-04   -0.26829E-04  7240   0.116E-01
  38 F= -.19209993E+03 E0= -.19201423E+03  d E =-.248518E-02
       N       E                     dE             d eps       ncg     rms          rms(c)
DAV:   1    -0.192108267349E+03   -0.83509E-02   -0.55353E-01  8160   0.159E+00    0.205E-01
DAV:   2    -0.192110238323E+03   -0.19710E-02   -0.20472E-02 10520   0.527E-01    0.301E-01
DAV:   3    -0.192109534044E+03    0.70428E-03   -0.34901E-03 11920   0.497E-01    0.199E-01
DAV:   4    -0.192109244710E+03    0.28933E-03   -0.12096E-03 10080   0.265E-01    0.146E-01
DAV:   5    -0.192109086998E+03    0.15771E-03   -0.65772E-04  9600   0.219E-01    0.890E-02
DAV:   6    -0.192109043862E+03    0.43136E-04   -0.27272E-04  8200   0.106E-01
  39 F= -.19210904E+03 E0= -.19202401E+03  d E =-.911576E-02
       N       E                     dE             d eps       ncg     rms          rms(c)
DAV:   1    -0.192113162019E+03   -0.40750E-02   -0.12463E-01  8160   0.768E-01    0.108E-01
DAV:   2    -0.192113389637E+03   -0.22762E-03   -0.49841E-03 10160   0.204E-01    0.938E-02
DAV:   3    -0.192113513025E+03   -0.12339E-03   -0.85246E-04 11440   0.228E-01    0.152E-01
DAV:   4    -0.192113262233E+03    0.25079E-03   -0.41535E-04  8720   0.183E-01    0.511E-02
DAV:   5    -0.192113246821E+03    0.15412E-04   -0.12189E-04  6000   0.733E-02
  40 F= -.19211325E+03 E0= -.19202849E+03  d E =-.420296E-02
       N       E                     dE             d eps       ncg     rms          rms(c)
DAV:   1    -0.192119468038E+03   -0.62058E-02   -0.30548E-01  8160   0.119E+00    0.156E-01
DAV:   2    -0.192120678885E+03   -0.12108E-02   -0.11322E-02 10800   0.418E-01    0.247E-01
DAV:   3    -0.192120064865E+03    0.61402E-03   -0.19067E-03 12320   0.390E-01    0.127E-01
DAV:   4    -0.192119858613E+03    0.20625E-03   -0.32173E-04  8120   0.140E-01    0.512E-02
DAV:   5    -0.192119969761E+03   -0.11115E-03   -0.35957E-04  8720   0.143E-01    0.110E-01
DAV:   6    -0.192119855876E+03    0.11389E-03   -0.29201E-04  7480   0.137E-01    0.354E-02
DAV:   7    -0.192119840953E+03    0.14922E-04   -0.50281E-05  6200   0.391E-02
  41 F= -.19211984E+03 E0= -.19203569E+03  d E =-.659413E-02
       N       E                     dE             d eps       ncg     rms          rms(c)
DAV:   1    -0.192130696653E+03   -0.10841E-01   -0.12490E+00  8160   0.240E+00    0.288E-01
DAV:   2    -0.192133647260E+03   -0.29506E-02   -0.44481E-02 10920   0.581E-01    0.242E-01
DAV:   3    -0.192134266168E+03   -0.61891E-03   -0.48862E-03 12480   0.574E-01    0.352E-01
DAV:   4    -0.192132787609E+03    0.14786E-02   -0.21858E-03 11440   0.429E-01    0.127E-01
DAV:   5    -0.192132825635E+03   -0.38027E-04   -0.10852E-03 10320   0.231E-01    0.150E-01
DAV:   6    -0.192132768127E+03    0.57509E-04   -0.90407E-04 10400   0.249E-01
  42 F= -.19213277E+03 E0= -.19204961E+03  d E =-.129272E-01
       N       E                     dE             d eps       ncg     rms          rms(c)
DAV:   1    -0.192145752530E+03   -0.12927E-01   -0.28323E+00  8160   0.361E+00    0.439E-01
DAV:   2    -0.192152604621E+03   -0.68521E-02   -0.10054E-01 10920   0.932E-01    0.410E-01
DAV:   3    -0.192153700086E+03   -0.10955E-02   -0.13008E-02 12280   0.936E-01    0.539E-01
DAV:   4    -0.192150377730E+03    0.33224E-02   -0.59826E-03 11800   0.662E-01    0.214E-01
DAV:   5    -0.192150388825E+03   -0.11095E-04   -0.23401E-03 11880   0.389E-01    0.234E-01
DAV:   6    -0.192150156003E+03    0.23282E-03   -0.18831E-03 11680   0.360E-01    0.153E-01
DAV:   7    -0.192149770174E+03    0.38583E-03   -0.64272E-04  9840   0.161E-01    0.309E-02
DAV:   8    -0.192149790215E+03   -0.20040E-04   -0.97148E-05  6960   0.763E-02
  43 F= -.19214979E+03 E0= -.19206909E+03  d E =-.170221E-01
       N       E                     dE             d eps       ncg     rms          rms(c)
DAV:   1    -0.192151120887E+03   -0.13507E-02   -0.42249E-02  8160   0.468E-01    0.900E-02
DAV:   2    -0.192151187894E+03   -0.67006E-04   -0.22731E-03 10720   0.203E-01    0.123E-01
DAV:   3    -0.192151108466E+03    0.79428E-04   -0.62309E-04  9680   0.215E-01
  44 F= -.19215111E+03 E0= -.19207083E+03  d E =-.131825E-02
       N       E                     dE             d eps       ncg     rms          rms(c)
DAV:   1    -0.192155839106E+03   -0.46512E-02   -0.27924E-01  8160   0.114E+00    0.159E-01
DAV:   2    -0.192156900416E+03   -0.10613E-02   -0.10957E-02 11240   0.421E-01    0.242E-01
DAV:   3    -0.192156284913E+03    0.61550E-03   -0.21088E-03 12520   0.390E-01    0.133E-01
DAV:   4    -0.192156136235E+03    0.14868E-03   -0.57261E-04  9760   0.175E-01    0.845E-02
DAV:   5    -0.192156106646E+03    0.29589E-04   -0.33004E-04  8560   0.143E-01
  45 F= -.19215611E+03 E0= -.19207664E+03  d E =-.499818E-02
       N       E                     dE             d eps       ncg     rms          rms(c)
DAV:   1    -0.192159120977E+03   -0.29847E-02   -0.10606E-01  8160   0.715E-01    0.994E-02
DAV:   2    -0.192159488260E+03   -0.36728E-03   -0.42489E-03 11720   0.230E-01    0.139E-01
DAV:   3    -0.192159389354E+03    0.98906E-04   -0.82018E-04 11080   0.246E-01
  46 F= -.19215939E+03 E0= -.19208037E+03  d E =-.328271E-02
       N       E                     dE             d eps       ncg     rms          rms(c)
DAV:   1    -0.192162015850E+03   -0.25276E-02   -0.80131E-02  8160   0.624E-01    0.106E-01
DAV:   2    -0.192162601541E+03   -0.58569E-03   -0.34544E-03 12680   0.292E-01    0.213E-01
DAV:   3    -0.192162070265E+03    0.53128E-03   -0.10630E-03 11000   0.289E-01    0.835E-02
DAV:   4    -0.192162080200E+03   -0.99341E-05   -0.29043E-04  8880   0.129E-01
  47 F= -.19216208E+03 E0= -.19208352E+03  d E =-.269085E-02
       N       E                     dE             d eps       ncg     rms          rms(c)
DAV:   1    -0.192167714819E+03   -0.56446E-02   -0.38600E-01  8160   0.134E+00    0.175E-01
DAV:   2    -0.192168457106E+03   -0.74229E-03   -0.13827E-02 11080   0.314E-01    0.126E-01
DAV:   3    -0.192168572090E+03   -0.11498E-03   -0.16144E-03 12440   0.264E-01    0.179E-01
DAV:   4    -0.192168275788E+03    0.29630E-03   -0.85493E-04 10320   0.263E-01    0.110E-01
DAV:   5    -0.192168163491E+03    0.11230E-03   -0.37708E-04  8920   0.148E-01    0.645E-02
DAV:   6    -0.192168210362E+03   -0.46871E-04   -0.26603E-04  8920   0.141E-01
  48 F= -.19216821E+03 E0= -.19209074E+03  d E =-.613016E-02
       N       E                     dE             d eps       ncg     rms          rms(c)
DAV:   1    -0.192173484094E+03   -0.53206E-02   -0.34129E-01  8160   0.126E+00    0.159E-01
DAV:   2    -0.192174499694E+03   -0.10156E-02   -0.13497E-02 10600   0.379E-01    0.175E-01
DAV:   3    -0.192174426372E+03    0.73323E-04   -0.18563E-03 12600   0.356E-01    0.170E-01
DAV:   4    -0.192174113174E+03    0.31320E-03   -0.62810E-04  9960   0.214E-01    0.770E-02
DAV:   5    -0.192174100714E+03    0.12460E-04   -0.27667E-04  8920   0.131E-01
  49 F= -.19217410E+03 E0= -.19209774E+03  d E =-.589035E-02
       N       E                     dE             d eps       ncg     rms          rms(c)
DAV:   1    -0.192173972249E+03    0.14093E-03   -0.34843E-03 11680   0.202E-01    0.768E-02
DAV:   2    -0.192175023466E+03   -0.10512E-02   -0.21137E-03 11560   0.386E-01    0.301E-01
DAV:   3    -0.192173902279E+03    0.11212E-02   -0.12798E-03  9840   0.330E-01    0.406E-02
DAV:   4    -0.192173893151E+03    0.91274E-05   -0.59986E-05  5720   0.496E-02
  50 F= -.19217389E+03 E0= -.19209743E+03  d E =0.207563E-03
       N       E                     dE             d eps       ncg     rms          rms(c)
DAV:   1    -0.192178153435E+03   -0.42512E-02   -0.26922E-01  8160   0.113E+00    0.169E-01
DAV:   2    -0.192178575265E+03   -0.42183E-03   -0.10482E-02 10520   0.334E-01    0.186E-01
DAV:   3    -0.192178683517E+03   -0.10825E-03   -0.23193E-03 11920   0.393E-01    0.225E-01
DAV:   4    -0.192178108438E+03    0.57508E-03   -0.10970E-03 10600   0.269E-01    0.800E-02
DAV:   5    -0.192178067032E+03    0.41406E-04   -0.37446E-04  8440   0.132E-01
  51 F= -.19217807E+03 E0= -.19210210E+03  d E =-.417388E-02
       N       E                     dE             d eps       ncg     rms          rms(c)
DAV:   1    -0.192181739052E+03   -0.36306E-02   -0.72929E-01  8160   0.187E+00    0.328E-01
DAV:   2    -0.192186120200E+03   -0.43811E-02   -0.36111E-02 12120   0.942E-01    0.672E-01
DAV:   3    -0.192181716686E+03    0.44035E-02   -0.11888E-02 11880   0.918E-01    0.270E-01
DAV:   4    -0.192180706539E+03    0.10101E-02   -0.23136E-03 12240   0.312E-01    0.122E-01
DAV:   5    -0.192180869914E+03   -0.16338E-03   -0.13650E-03 10720   0.289E-01    0.199E-01
DAV:   6    -0.192180451373E+03    0.41854E-03   -0.89709E-04 10400   0.254E-01    0.604E-02
DAV:   7    -0.192180416992E+03    0.34381E-04   -0.10966E-04  6120   0.751E-02
  52 F= -.19218042E+03 E0= -.19210466E+03  d E =-.234996E-02
       N       E                     dE             d eps       ncg     rms          rms(c)
DAV:   1    -0.192186187064E+03   -0.57357E-02   -0.70208E-01  8160   0.188E+00    0.408E-01
DAV:   2    -0.192193767174E+03   -0.75801E-02   -0.44316E-02 11760   0.128E+00    0.957E-01
DAV:   3    -0.192183871225E+03    0.98959E-02   -0.19589E-02 11840   0.122E+00    0.287E-01
DAV:   4    -0.192182693697E+03    0.11775E-02   -0.35654E-03 10880   0.374E-01    0.155E-01
DAV:   5    -0.192182603016E+03    0.90681E-04   -0.17576E-03 11680   0.324E-01    0.178E-01
DAV:   6    -0.192182201149E+03    0.40187E-03   -0.86298E-04 11040   0.251E-01    0.532E-02
DAV:   7    -0.192182189881E+03    0.11269E-04   -0.11153E-04  6520   0.708E-02
  53 F= -.19218219E+03 E0= -.19210731E+03  d E =-.177289E-02
       N       E                     dE             d eps       ncg     rms          rms(c)
DAV:   1    -0.192187670333E+03   -0.54692E-02   -0.29572E-01  8160   0.118E+00    0.168E-01
DAV:   2    -0.192188745049E+03   -0.10747E-02   -0.11313E-02 10960   0.440E-01    0.283E-01
DAV:   3    -0.192188027878E+03    0.71717E-03   -0.26627E-03 11600   0.430E-01    0.161E-01
DAV:   4    -0.192187825567E+03    0.20231E-03   -0.77741E-04  9040   0.218E-01    0.104E-01
DAV:   5    -0.192187759435E+03    0.66132E-04   -0.42586E-04  9280   0.183E-01
  54 F= -.19218776E+03 E0= -.19211432E+03  d E =-.556955E-02
       N       E                     dE             d eps       ncg     rms          rms(c)
DAV:   1    -0.192179821795E+03    0.80038E-02   -0.63791E-01  8160   0.176E+00    0.255E-01
DAV:   2    -0.192182827056E+03   -0.30053E-02   -0.26892E-02 12480   0.705E-01    0.480E-01
DAV:   3    -0.192180690178E+03    0.21369E-02   -0.73751E-03 11600   0.705E-01    0.242E-01
DAV:   4    -0.192180073828E+03    0.61635E-03   -0.17342E-03 11560   0.286E-01    0.112E-01
DAV:   5    -0.192179912198E+03    0.16163E-03   -0.76625E-04 10640   0.166E-01    0.890E-02
DAV:   6    -0.192179925436E+03   -0.13237E-04   -0.44769E-04  9240   0.184E-01
  55 F= -.19217993E+03 E0= -.19210450E+03  d E =0.783400E-02
       N       E                     dE             d eps       ncg     rms          rms(c)
DAV:   1    -0.192190893530E+03   -0.10981E-01   -0.10557E+00  8160   0.225E+00    0.352E-01
DAV:   2    -0.192193750208E+03   -0.28567E-02   -0.45141E-02 11920   0.856E-01    0.499E-01
DAV:   3    -0.192192083033E+03    0.16672E-02   -0.10115E-02 12080   0.854E-01    0.367E-01
DAV:   4    -0.192190733327E+03    0.13497E-02   -0.39368E-03 11160   0.499E-01    0.215E-01
DAV:   5    -0.192190574373E+03    0.15895E-03   -0.20627E-03 10480   0.396E-01    0.199E-01
DAV:   6    -0.192190103817E+03    0.47056E-03   -0.10795E-03 10880   0.263E-01    0.624E-02
DAV:   7    -0.192190082316E+03    0.21501E-04   -0.19735E-04  6760   0.911E-02
  56 F= -.19219008E+03 E0= -.19211717E+03  d E =-.101569E-01
       N       E                     dE             d eps       ncg     rms          rms(c)
DAV:   1    -0.192186080856E+03    0.40230E-02   -0.46912E-01  8160   0.155E+00    0.295E-01
DAV:   2    -0.192187811915E+03   -0.17311E-02   -0.22813E-02 11560   0.767E-01    0.523E-01
DAV:   3    -0.192185277677E+03    0.25342E-02   -0.81899E-03 11680   0.763E-01    0.252E-01
DAV:   4    -0.192184780370E+03    0.49731E-03   -0.26405E-03 11400   0.399E-01    0.212E-01
DAV:   5    -0.192184473836E+03    0.30653E-03   -0.16469E-03 10720   0.367E-01    0.160E-01
DAV:   6    -0.192184110241E+03    0.36360E-03   -0.70804E-04  9760   0.192E-01    0.350E-02
DAV:   7    -0.192184121561E+03   -0.11320E-04   -0.90392E-05  6480   0.721E-02
  57 F= -.19218412E+03 E0= -.19210938E+03  d E =0.596075E-02
       N       E                     dE             d eps       ncg     rms          rms(c)
DAV:   1    -0.192192880719E+03   -0.87705E-02   -0.76724E-01  8160   0.190E+00    0.257E-01
DAV:   2    -0.192195284535E+03   -0.24038E-02   -0.28025E-02 12320   0.675E-01    0.392E-01
DAV:   3    -0.192193958766E+03    0.13258E-02   -0.52949E-03 12320   0.629E-01    0.238E-01
DAV:   4    -0.192193512592E+03    0.44617E-03   -0.17933E-03 11440   0.337E-01    0.173E-01
DAV:   5    -0.192193324575E+03    0.18802E-03   -0.10558E-03 10400   0.291E-01    0.131E-01
DAV:   6    -0.192193169703E+03    0.15487E-03   -0.53678E-04 10080   0.175E-01    0.561E-02
DAV:   7    -0.192193138561E+03    0.31142E-04   -0.13461E-04  6080   0.831E-02
  58 F= -.19219314E+03 E0= -.19212046E+03  d E =-.901700E-02
       N       E                     dE             d eps       ncg     rms          rms(c)
DAV:   1    -0.192197790345E+03   -0.46206E-02   -0.21682E-01  8160   0.101E+00    0.136E-01
DAV:   2    -0.192198571560E+03   -0.78122E-03   -0.88778E-03 11680   0.361E-01    0.193E-01
DAV:   3    -0.192198269996E+03    0.30156E-03   -0.14753E-03 12160   0.329E-01    0.129E-01
DAV:   4    -0.192198140623E+03    0.12937E-03   -0.45279E-04  8720   0.177E-01    0.855E-02
DAV:   5    -0.192198096920E+03    0.43703E-04   -0.25462E-04  8080   0.141E-01
  59 F= -.19219810E+03 E0= -.19212647E+03  d E =-.495836E-02
       N       E                     dE             d eps       ncg     rms          rms(c)
DAV:   1    -0.192200276224E+03   -0.21356E-02   -0.42236E-02  8160   0.454E-01    0.692E-02
DAV:   2    -0.192200473444E+03   -0.19722E-03   -0.15858E-03 12560   0.174E-01    0.116E-01
DAV:   3    -0.192200316004E+03    0.15744E-03   -0.34099E-04  9600   0.173E-01    0.542E-02
DAV:   4    -0.192200311814E+03    0.41893E-05   -0.86422E-05  6160   0.782E-02
  60 F= -.19220031E+03 E0= -.19212907E+03  d E =-.221489E-02
       N       E                     dE             d eps       ncg     rms          rms(c)
DAV:   1    -0.192203494000E+03   -0.31780E-02   -0.94391E-02  8160   0.671E-01    0.944E-02
DAV:   2    -0.192203720783E+03   -0.22678E-03   -0.33799E-03 11200   0.197E-01    0.120E-01
DAV:   3    -0.192203696685E+03    0.24098E-04   -0.71520E-04 10960   0.229E-01
  61 F= -.19220370E+03 E0= -.19213310E+03  d E =-.338487E-02
       N       E                     dE             d eps       ncg     rms          rms(c)
DAV:   1    -0.192208948154E+03   -0.52274E-02   -0.27065E-01  8160   0.113E+00    0.155E-01
DAV:   2    -0.192209549972E+03   -0.60182E-03   -0.90068E-03 12120   0.323E-01    0.177E-01
DAV:   3    -0.192209475249E+03    0.74723E-04   -0.16642E-03 11560   0.347E-01    0.179E-01
DAV:   4    -0.192209195761E+03    0.27949E-03   -0.76283E-04  9960   0.231E-01    0.953E-02
DAV:   5    -0.192209148686E+03    0.47075E-04   -0.36296E-04  9400   0.163E-01
  62 F= -.19220915E+03 E0= -.19213955E+03  d E =-.545200E-02
       N       E                     dE             d eps       ncg     rms          rms(c)
DAV:   1    -0.192209777234E+03   -0.58147E-03   -0.15289E-02  8240   0.296E-01    0.774E-02
DAV:   2    -0.192210816175E+03   -0.10389E-02   -0.21532E-03 12520   0.386E-01    0.298E-01
DAV:   3    -0.192209734960E+03    0.10812E-02   -0.11773E-03  9960   0.324E-01    0.367E-02
DAV:   4    -0.192209744077E+03   -0.91162E-05   -0.60364E-05  5640   0.618E-02
  63 F= -.19220974E+03 E0= -.19214020E+03  d E =-.595390E-03
       N       E                     dE             d eps       ncg     rms          rms(c)
DAV:   1    -0.192216052544E+03   -0.63176E-02   -0.39707E-01  8160   0.136E+00    0.173E-01
DAV:   2    -0.192217433258E+03   -0.13807E-02   -0.13736E-02 11960   0.454E-01    0.275E-01
DAV:   3    -0.192216858034E+03    0.57522E-03   -0.25770E-03 11720   0.439E-01    0.176E-01
DAV:   4    -0.192216581655E+03    0.27638E-03   -0.69994E-04  9560   0.215E-01    0.927E-02
DAV:   5    -0.192216540727E+03    0.40927E-04   -0.34687E-04 10200   0.170E-01
  64 F= -.19221654E+03 E0= -.19214818E+03  d E =-.679665E-02
       N       E                     dE             d eps       ncg     rms          rms(c)
DAV:   1    -0.192216010420E+03    0.57123E-03   -0.46018E-03  8240   0.169E-01    0.491E-02
DAV:   2    -0.192216207417E+03   -0.19700E-03   -0.63294E-04 10840   0.165E-01    0.124E-01
DAV:   3    -0.192215984679E+03    0.22274E-03   -0.29223E-04  8960   0.156E-01    0.398E-02
DAV:   4    -0.192215967476E+03    0.17203E-04   -0.51885E-05  6160   0.544E-02
  65 F= -.19221597E+03 E0= -.19214752E+03  d E =0.573252E-03
       N       E                     dE             d eps       ncg     rms          rms(c)
DAV:   1    -0.192220973976E+03   -0.49893E-02   -0.27864E-01  8160   0.113E+00    0.135E-01
DAV:   2    -0.192221695148E+03   -0.72117E-03   -0.98536E-03 10840   0.319E-01    0.146E-01
DAV:   3    -0.192221678712E+03    0.16436E-04   -0.12121E-03 12520   0.302E-01    0.150E-01
DAV:   4    -0.192221420101E+03    0.25861E-03   -0.43053E-04  9080   0.184E-01    0.638E-02
DAV:   5    -0.192221431797E+03   -0.11695E-04   -0.20176E-04  7680   0.126E-01
  66 F= -.19222143E+03 E0= -.19215394E+03  d E =-.546432E-02
       N       E                     dE             d eps       ncg     rms          rms(c)
DAV:   1    -0.192224468515E+03   -0.30484E-02   -0.92768E-02  8160   0.664E-01    0.926E-02
DAV:   2    -0.192224899160E+03   -0.43065E-03   -0.35133E-03 12720   0.259E-01    0.161E-01
DAV:   3    -0.192224603261E+03    0.29590E-03   -0.67943E-04 11000   0.237E-01    0.671E-02
DAV:   4    -0.192224569946E+03    0.33314E-04   -0.96170E-05  6000   0.831E-02
  67 F= -.19222457E+03 E0= -.19215755E+03  d E =-.313815E-02
       N       E                     dE             d eps       ncg     rms          rms(c)
DAV:   1    -0.192231433530E+03   -0.68303E-02   -0.49022E-01  8160   0.151E+00    0.211E-01
DAV:   2    -0.192233134164E+03   -0.17006E-02   -0.18448E-02 12120   0.525E-01    0.321E-01
DAV:   3    -0.192232351065E+03    0.78310E-03   -0.35563E-03 11440   0.522E-01    0.217E-01
DAV:   4    -0.192231962291E+03    0.38877E-03   -0.12042E-03 10200   0.279E-01    0.128E-01
DAV:   5    -0.192231872050E+03    0.90240E-04   -0.63439E-04 11000   0.229E-01
  68 F= -.19223187E+03 E0= -.19216614E+03  d E =-.730210E-02
       N       E                     dE             d eps       ncg     rms          rms(c)
DAV:   1    -0.192243451994E+03   -0.11490E-01   -0.20461E+00  8160   0.308E+00    0.395E-01
DAV:   2    -0.192249395999E+03   -0.59440E-02   -0.68960E-02 12560   0.978E-01    0.544E-01
DAV:   3    -0.192247195635E+03    0.22004E-02   -0.10719E-02 11800   0.928E-01    0.378E-01
DAV:   4    -0.192245949044E+03    0.12466E-02   -0.36257E-03 11200   0.496E-01    0.249E-01
DAV:   5    -0.192245599105E+03    0.34994E-03   -0.21333E-03 12720   0.423E-01    0.188E-01
DAV:   6    -0.192245323901E+03    0.27520E-03   -0.10275E-03 10760   0.231E-01    0.710E-02
DAV:   7    -0.192245212199E+03    0.11170E-03   -0.21200E-04  6960   0.705E-02    0.198E-02
DAV:   8    -0.192245213883E+03   -0.16841E-05   -0.58038E-05  7960   0.322E-02
  69 F= -.19224521E+03 E0= -.19218159E+03  d E =-.133418E-01
       N       E                     dE             d eps       ncg     rms          rms(c)
DAV:   1    -0.192245491371E+03   -0.27917E-03   -0.30279E-02  8480   0.407E-01    0.951E-02
DAV:   2    -0.192245495124E+03   -0.37539E-05   -0.16875E-03 12200   0.224E-01    0.141E-01
DAV:   3    -0.192245295361E+03    0.19976E-03   -0.57279E-04  9680   0.220E-01    0.703E-02
DAV:   4    -0.192245207427E+03    0.87935E-04   -0.16499E-04  6440   0.984E-02
  70 F= -.19224521E+03 E0= -.19218121E+03  d E =0.645671E-05
       N       E                     dE             d eps       ncg     rms          rms(c)
DAV:   1    -0.192249157158E+03   -0.38618E-02   -0.25890E-01  8160   0.109E+00    0.139E-01
DAV:   2    -0.192250157435E+03   -0.10003E-02   -0.91274E-03 12400   0.375E-01    0.229E-01
DAV:   3    -0.192249640589E+03    0.51685E-03   -0.15671E-03 11840   0.368E-01    0.131E-01
DAV:   4    -0.192249501776E+03    0.13881E-03   -0.41132E-04  8720   0.167E-01    0.804E-02
DAV:   5    -0.192249458113E+03    0.43663E-04   -0.23875E-04  9200   0.143E-01
  71 F= -.19224946E+03 E0= -.19218598E+03  d E =-.425069E-02
       N       E                     dE             d eps       ncg     rms          rms(c)
DAV:   1    -0.192250569872E+03   -0.10681E-02   -0.16656E-02  8160   0.288E-01    0.629E-02
DAV:   2    -0.192250822417E+03   -0.25254E-03   -0.10906E-03 10960   0.213E-01    0.152E-01
DAV:   3    -0.192250539257E+03    0.28316E-03   -0.41265E-04  9720   0.188E-01    0.421E-02
DAV:   4    -0.192250544345E+03   -0.50880E-05   -0.80325E-05  5920   0.757E-02
  72 F= -.19225054E+03 E0= -.19218721E+03  d E =-.108623E-02
       N       E                     dE             d eps       ncg     rms          rms(c)
DAV:   1    -0.192255850088E+03   -0.53108E-02   -0.54451E-01  8160   0.159E+00    0.214E-01
DAV:   2    -0.192257650512E+03   -0.18004E-02   -0.20021E-02 12680   0.600E-01    0.327E-01
DAV:   3    -0.192256622730E+03    0.10278E-02   -0.33132E-03 12400   0.514E-01    0.173E-01
DAV:   4    -0.192256331781E+03    0.29095E-03   -0.90964E-04 10280   0.237E-01    0.120E-01
DAV:   5    -0.192256319598E+03    0.12184E-04   -0.62242E-04 10480   0.230E-01
  73 F= -.19225632E+03 E0= -.19219394E+03  d E =-.577525E-02
       N       E                     dE             d eps       ncg     rms          rms(c)
DAV:   1    -0.192258470601E+03   -0.21388E-02   -0.13638E-01  8160   0.801E-01    0.117E-01
DAV:   2    -0.192258896148E+03   -0.42555E-03   -0.55293E-03 12880   0.281E-01    0.161E-01
DAV:   3    -0.192258757916E+03    0.13823E-03   -0.10743E-03 11120   0.281E-01    0.132E-01
DAV:   4    -0.192258596538E+03    0.16138E-03   -0.36867E-04  9000   0.168E-01    0.653E-02
DAV:   5    -0.192258575254E+03    0.21284E-04   -0.15519E-04  6640   0.110E-01
  74 F= -.19225858E+03 E0= -.19219656E+03  d E =-.225566E-02
       N       E                     dE             d eps       ncg     rms          rms(c)
DAV:   1    -0.192261553548E+03   -0.29570E-02   -0.23023E-01  8160   0.104E+00    0.128E-01
DAV:   2    -0.192262218921E+03   -0.66537E-03   -0.83138E-03 11960   0.290E-01    0.154E-01
DAV:   3    -0.192262130140E+03    0.88781E-04   -0.12693E-03 11760   0.306E-01    0.146E-01
DAV:   4    -0.192261920208E+03    0.20993E-03   -0.41473E-04  9200   0.174E-01    0.696E-02
DAV:   5    -0.192261904479E+03    0.15729E-04   -0.20236E-04  8040   0.130E-01
  75 F= -.19226190E+03 E0= -.19220015E+03  d E =-.332923E-02
       N       E                     dE             d eps       ncg     rms          rms(c)
DAV:   1    -0.192267031927E+03   -0.51117E-02   -0.21591E+00  8160   0.315E+00    0.373E-01
DAV:   2    -0.192273352114E+03   -0.63202E-02   -0.73090E-02 12680   0.908E-01    0.489E-01
DAV:   3    -0.192272368801E+03    0.98331E-03   -0.10667E-02 11800   0.902E-01    0.431E-01
DAV:   4    -0.192270536029E+03    0.18328E-02   -0.36483E-03 11320   0.524E-01    0.208E-01
DAV:   5    -0.192270302708E+03    0.23332E-03   -0.16126E-03 11320   0.361E-01    0.174E-01
DAV:   6    -0.192270123947E+03    0.17876E-03   -0.10633E-03 10240   0.253E-01    0.947E-02
DAV:   7    -0.192269979180E+03    0.14477E-03   -0.37866E-04  9520   0.117E-01    0.460E-02
DAV:   8    -0.192269962248E+03    0.16932E-04   -0.70477E-05  8160   0.769E-02
  76 F= -.19226996E+03 E0= -.19220889E+03  d E =-.805777E-02
       N       E                     dE             d eps       ncg     rms          rms(c)
DAV:   1    -0.192271074573E+03   -0.10954E-02   -0.88589E-02  8160   0.641E-01    0.100E-01
DAV:   2    -0.192271800520E+03   -0.72595E-03   -0.51171E-03 12080   0.384E-01    0.219E-01
DAV:   3    -0.192271236723E+03    0.56380E-03   -0.10366E-03 10360   0.289E-01    0.622E-02
DAV:   4    -0.192271237382E+03   -0.65922E-06   -0.17368E-04  7080   0.116E-01
  77 F= -.19227124E+03 E0= -.19221029E+03  d E =-.127513E-02
       N       E                     dE             d eps       ncg     rms          rms(c)
DAV:   1    -0.192271976208E+03   -0.73948E-03   -0.44581E-02  8160   0.461E-01    0.627E-02
DAV:   2    -0.192272161004E+03   -0.18480E-03   -0.16941E-03 13600   0.175E-01    0.979E-02
DAV:   3    -0.192272058058E+03    0.10295E-03   -0.30798E-04  9800   0.156E-01    0.538E-02
DAV:   4    -0.192272034076E+03    0.23982E-04   -0.61399E-05  6080   0.670E-02
  78 F= -.19227203E+03 E0= -.19221114E+03  d E =-.796693E-03
       N       E                     dE             d eps       ncg     rms          rms(c)
DAV:   1    -0.192272758859E+03   -0.70080E-03   -0.35790E-02  8160   0.414E-01    0.682E-02
DAV:   2    -0.192273119746E+03   -0.36089E-03   -0.18319E-03 13080   0.231E-01    0.171E-01
DAV:   3    -0.192272786206E+03    0.33354E-03   -0.57285E-04  9480   0.216E-01    0.470E-02
DAV:   4    -0.192272769270E+03    0.16935E-04   -0.60691E-05  6280   0.502E-02
  79 F= -.19227277E+03 E0= -.19221184E+03  d E =-.735195E-03
