<?xml version="1.0" encoding="ISO-8859-1"?>
<modeling>
 <generator>
  <i name="program" type="string">vasp </i>
  <i name="version" type="string">5.4.1  </i>
  <i name="subversion" type="string">05Feb16 (build Jul 05 2020 17:13:04) complex                          parallel </i>
  <i name="platform" type="string">IFC91_ompi </i>
  <i name="date" type="string">2024 04 28 </i>
  <i name="time" type="string">04:43:17 </i>
 </generator>
 <incar>
  <i type="int" name="ISTART">     0</i>
  <i type="string" name="PREC">normal</i>
  <i type="string" name="ALGO"> Normal</i>
  <i type="int" name="ISPIN">     1</i>
  <i type="int" name="ICHARG">     2</i>
  <i type="int" name="IBRION">     1</i>
  <i type="int" name="NSW">   100</i>
  <i type="int" name="ISIF">     3</i>
  <i type="int" name="ISYM">     0</i>
  <i name="SYMPREC">      0.00000001</i>
  <i name="POTIM">      0.50000000</i>
  <i type="logical" name="LREAL"> F  </i>
  <i type="logical" name="LPLANE"> F  </i>
  <i type="int" name="ISMEAR">     0</i>
  <i type="logical" name="LWAVE"> F  </i>
  <i type="logical" name="LCHARG"> F  </i>
  <v type="int" name="KPOINT_BSE">    -1     0     0     0</v>
 </incar>
 <kpoints>
  <generation param="Gamma">
   <v type="int" name="divisions">       8        8        1 </v>
   <v name="usershift">      0.00000000       0.00000000       0.00000000 </v>
   <v name="genvec1">      0.12500000       0.00000000       0.00000000 </v>
   <v name="genvec2">     -0.00000000       0.12500000       0.00000000 </v>
   <v name="genvec3">      0.00000000       0.00000000       1.00000000 </v>
   <v name="shift">      0.00000000       0.00000000       0.00000000 </v>
  </generation>
  <varray name="kpointlist" >
   <v>       0.00000000       0.00000000       0.00000000 </v>
   <v>       0.12500000       0.00000000       0.00000000 </v>
   <v>       0.25000000       0.00000000       0.00000000 </v>
   <v>       0.37500000       0.00000000       0.00000000 </v>
   <v>       0.50000000       0.00000000       0.00000000 </v>
   <v>       0.00000000       0.12500000       0.00000000 </v>
   <v>       0.12500000       0.12500000       0.00000000 </v>
   <v>       0.25000000       0.12500000       0.00000000 </v>
   <v>       0.37500000       0.12500000       0.00000000 </v>
   <v>       0.50000000       0.12500000       0.00000000 </v>
   <v>      -0.37500000       0.12500000       0.00000000 </v>
   <v>      -0.25000000       0.12500000       0.00000000 </v>
   <v>      -0.12500000       0.12500000       0.00000000 </v>
   <v>       0.00000000       0.25000000       0.00000000 </v>
   <v>       0.12500000       0.25000000       0.00000000 </v>
   <v>       0.25000000       0.25000000       0.00000000 </v>
   <v>       0.37500000       0.25000000       0.00000000 </v>
   <v>       0.50000000       0.25000000       0.00000000 </v>
   <v>      -0.37500000       0.25000000       0.00000000 </v>
   <v>      -0.25000000       0.25000000       0.00000000 </v>
   <v>      -0.12500000       0.25000000       0.00000000 </v>
   <v>      -0.00000000       0.37500000       0.00000000 </v>
   <v>       0.12500000       0.37500000       0.00000000 </v>
   <v>       0.25000000       0.37500000       0.00000000 </v>
   <v>       0.37500000       0.37500000       0.00000000 </v>
   <v>       0.50000000       0.37500000       0.00000000 </v>
   <v>      -0.37500000       0.37500000       0.00000000 </v>
   <v>      -0.25000000       0.37500000       0.00000000 </v>
   <v>      -0.12500000       0.37500000       0.00000000 </v>
   <v>       0.00000000       0.50000000       0.00000000 </v>
   <v>       0.12500000       0.50000000       0.00000000 </v>
   <v>       0.25000000       0.50000000       0.00000000 </v>
   <v>       0.37500000       0.50000000       0.00000000 </v>
   <v>       0.50000000       0.50000000       0.00000000 </v>
  </varray>
  <varray name="weights" >
   <v>       0.01562500 </v>
   <v>       0.03125000 </v>
   <v>       0.03125000 </v>
   <v>       0.03125000 </v>
   <v>       0.01562500 </v>
   <v>       0.03125000 </v>
   <v>       0.03125000 </v>
   <v>       0.03125000 </v>
   <v>       0.03125000 </v>
   <v>       0.03125000 </v>
   <v>       0.03125000 </v>
   <v>       0.03125000 </v>
   <v>       0.03125000 </v>
   <v>       0.03125000 </v>
   <v>       0.03125000 </v>
   <v>       0.03125000 </v>
   <v>       0.03125000 </v>
   <v>       0.03125000 </v>
   <v>       0.03125000 </v>
   <v>       0.03125000 </v>
   <v>       0.03125000 </v>
   <v>       0.03125000 </v>
   <v>       0.03125000 </v>
   <v>       0.03125000 </v>
   <v>       0.03125000 </v>
   <v>       0.03125000 </v>
   <v>       0.03125000 </v>
   <v>       0.03125000 </v>
   <v>       0.03125000 </v>
   <v>       0.01562500 </v>
   <v>       0.03125000 </v>
   <v>       0.03125000 </v>
   <v>       0.03125000 </v>
   <v>       0.01562500 </v>
  </varray>
 </kpoints>
 <parameters>
  <separator name="general" >
   <i type="string" name="SYSTEM">unknown system</i>
   <i type="logical" name="LCOMPAT"> F  </i>
  </separator>
  <separator name="electronic" >
   <i type="string" name="PREC">normal</i>
   <i name="ENMAX">    280.00000000</i>
   <i name="ENAUG">    373.43800000</i>
   <i name="EDIFF">      0.00010000</i>
   <i type="int" name="IALGO">    38</i>
   <i type="int" name="IWAVPR">    11</i>
   <i type="int" name="NBANDS">   120</i>
   <i name="NELECT">    159.00000000</i>
   <i type="int" name="TURBO">     0</i>
   <i type="int" name="IRESTART">     0</i>
   <i type="int" name="NREBOOT">     0</i>
   <i type="int" name="NMIN">     0</i>
   <i name="EREF">      0.00000000</i>
   <separator name="electronic smearing" >
    <i type="int" name="ISMEAR">     0</i>
    <i name="SIGMA">      0.20000000</i>
    <i name="KSPACING">      0.50000000</i>
    <i type="logical" name="KGAMMA"> T  </i>
   </separator>
   <separator name="electronic projectors" >
    <i type="logical" name="LREAL"> F  </i>
    <v name="ROPT">      0.00000000      0.00000000      0.00000000      0.00000000</v>
    <i type="int" name="LMAXPAW">  -100</i>
    <i type="int" name="LMAXMIX">     2</i>
    <i type="logical" name="NLSPLINE"> F  </i>
   </separator>
   <separator name="electronic startup" >
    <i type="int" name="ISTART">     0</i>
    <i type="int" name="ICHARG">     2</i>
    <i type="int" name="INIWAV">     1</i>
   </separator>
   <separator name="electronic spin" >
    <i type="int" name="ISPIN">     1</i>
    <i type="logical" name="LNONCOLLINEAR"> F  </i>
    <v name="MAGMOM">      1.00000000      1.00000000      1.00000000      1.00000000      1.00000000      1.00000000      1.00000000      1.00000000      1.00000000      1.00000000      1.00000000      1.00000000      1.00000000      1.00000000      1.00000000      1.00000000      1.00000000      1.00000000      1.00000000      1.00000000
      1.00000000      1.00000000      1.00000000      1.00000000      1.00000000      1.00000000      1.00000000</v>
    <i name="NUPDOWN">     -1.00000000</i>
    <i type="logical" name="LSORBIT"> F  </i>
    <v name="SAXIS">      0.00000000      0.00000000      1.00000000</v>
    <i type="logical" name="LSPIRAL"> F  </i>
    <v name="QSPIRAL">      0.00000000      0.00000000      0.00000000</v>
    <i type="logical" name="LZEROZ"> F  </i>
   </separator>
   <separator name="electronic exchange-correlation" >
    <i type="logical" name="LASPH"> F  </i>
    <i type="logical" name="LMETAGGA"> F  </i>
   </separator>
   <separator name="electronic convergence" >
    <i type="int" name="NELM">    60</i>
    <i type="int" name="NELMDL">    -5</i>
    <i type="int" name="NELMIN">     2</i>
    <i name="ENINI">    280.00000000</i>
    <separator name="electronic convergence detail" >
     <i type="logical" name="LDIAG"> T  </i>
     <i type="logical" name="LSUBROT"> F  </i>
     <i name="WEIMIN">      0.00100000</i>
     <i name="EBREAK">      0.00000021</i>
     <i name="DEPER">      0.30000000</i>
     <i type="int" name="NRMM">     4</i>
     <i name="TIME">      0.40000000</i>
    </separator>
   </separator>
   <separator name="electronic mixer" >
    <i name="AMIX">      0.40000000</i>
    <i name="BMIX">      1.00000000</i>
    <i name="AMIN">      0.10000000</i>
    <i name="AMIX_MAG">      1.60000000</i>
    <i name="BMIX_MAG">      1.00000000</i>
    <separator name="electronic mixer details" >
     <i type="int" name="IMIX">     4</i>
     <i type="logical" name="MIXFIRST"> F  </i>
     <i type="int" name="MAXMIX">   -45</i>
     <i name="WC">    100.00000000</i>
     <i type="int" name="INIMIX">     1</i>
     <i type="int" name="MIXPRE">     1</i>
     <i type="int" name="MREMOVE">     5</i>
    </separator>
   </separator>
   <separator name="electronic dipolcorrection" >
    <i type="logical" name="LDIPOL"> F  </i>
    <i type="logical" name="LMONO"> F  </i>
    <i type="int" name="IDIPOL">     0</i>
    <i name="EPSILON">      1.00000000</i>
    <v name="DIPOL">   -100.00000000   -100.00000000   -100.00000000</v>
    <i name="EFIELD">      0.00000000</i>
   </separator>
  </separator>
  <separator name="grids" >
   <i type="int" name="NGX">    42</i>
   <i type="int" name="NGY">    42</i>
   <i type="int" name="NGZ">   126</i>
   <i type="int" name="NGXF">    84</i>
   <i type="int" name="NGYF">    84</i>
   <i type="int" name="NGZF">   252</i>
   <i type="logical" name="ADDGRID"> F  </i>
  </separator>
  <separator name="ionic" >
   <i type="int" name="NSW">   100</i>
   <i type="int" name="IBRION">     1</i>
   <i type="int" name="ISIF">     3</i>
   <i name="PSTRESS">      0.00000000</i>
   <i name="EDIFFG">      0.00100000</i>
   <i type="int" name="NFREE">     0</i>
   <i name="POTIM">      0.50000000</i>
   <i name="SMASS">     -3.00000000</i>
   <i name="SCALEE">      1.00000000</i>
  </separator>
  <separator name="ionic md" >
   <i name="TEBEG">      0.00010000</i>
   <i name="TEEND">      0.00010000</i>
   <i type="int" name="NBLOCK">     1</i>
   <i type="int" name="KBLOCK">   100</i>
   <i type="int" name="NPACO">   256</i>
   <i name="APACO">     16.00000000</i>
  </separator>
  <separator name="symmetry" >
   <i type="int" name="ISYM">     0</i>
   <i name="SYMPREC">      0.00000001</i>
  </separator>
  <separator name="dos" >
   <i type="logical" name="LORBIT"> F  </i>
   <v name="RWIGS">     -1.00000000     -1.00000000     -1.00000000     -1.00000000</v>
   <i type="int" name="NEDOS">   301</i>
   <i name="EMIN">     10.00000000</i>
   <i name="EMAX">    -10.00000000</i>
   <i name="EFERMI">      0.00000000</i>
  </separator>
  <separator name="writing" >
   <i type="int" name="NWRITE">     2</i>
   <i type="logical" name="LWAVE"> F  </i>
   <i type="logical" name="LCHARG"> F  </i>
   <i type="logical" name="LPARD"> F  </i>
   <i type="logical" name="LVTOT"> F  </i>
   <i type="logical" name="LVHAR"> F  </i>
   <i type="logical" name="LELF"> F  </i>
   <i type="logical" name="LOPTICS"> F  </i>
   <v name="STM">      0.00000000      0.00000000      0.00000000      0.00000000      0.00000000      0.00000000      0.00000000</v>
  </separator>
  <separator name="performance" >
   <i type="int" name="NPAR">    40</i>
   <i type="int" name="NSIM">     4</i>
   <i type="int" name="NBLK">    -1</i>
   <i type="logical" name="LPLANE"> F  </i>
   <i type="logical" name="LSCALAPACK"> T  </i>
   <i type="logical" name="LSCAAWARE"> F  </i>
   <i type="logical" name="LSCALU"> F  </i>
   <i type="logical" name="LASYNC"> F  </i>
   <i type="logical" name="LORBITALREAL"> F  </i>
  </separator>
  <separator name="miscellaneous" >
   <i type="int" name="IDIOT">     3</i>
   <i type="logical" name="LMUSIC"> F  </i>
   <v name="POMASS">     50.94100000     95.94000000    183.85000000     32.06600000</v>
   <v name="DARWINR">      0.00000000      0.00000000      0.00000000      0.00000000</v>
   <v name="DARWINV">      1.00000000      1.00000000      1.00000000      1.00000000</v>
   <i type="logical" name="LCORR"> T  </i>
  </separator>
  <i type="logical" name="GGA_COMPAT"> T  </i>
  <i type="logical" name="LBERRY"> F  </i>
  <i type="int" name="ICORELEVEL">     0</i>
  <i type="logical" name="LDAU"> F  </i>
  <i type="int" name="I_CONSTRAINED_M">     0</i>
  <separator name="electronic exchange-correlation" >
   <i type="string" name="GGA">--</i>
   <i type="int" name="VOSKOWN">     0</i>
   <i type="logical" name="LHFCALC"> F  </i>
   <i type="string" name="PRECFOCK"></i>
   <i type="logical" name="LSYMGRAD"> F  </i>
   <i type="logical" name="LHFONE"> F  </i>
   <i type="logical" name="LRHFCALC"> F  </i>
   <i type="logical" name="LTHOMAS"> F  </i>
   <i type="logical" name="LMODELHF"> F  </i>
   <i name="ENCUT4O">     -1.00000000</i>
   <i type="int" name="EXXOEP">     0</i>
   <i type="int" name="FOURORBIT">     0</i>
   <i name="AEXX">      0.00000000</i>
   <i name="HFALPHA">      0.00000000</i>
   <i name="MCALPHA">      0.00000000</i>
   <i name="ALDAX">      1.00000000</i>
   <i name="AGGAX">      1.00000000</i>
   <i name="ALDAC">      1.00000000</i>
   <i name="AGGAC">      1.00000000</i>
   <i type="int" name="NKREDX">     1</i>
   <i type="int" name="NKREDY">     1</i>
   <i type="int" name="NKREDZ">     1</i>
   <i type="logical" name="SHIFTRED"> F  </i>
   <i type="logical" name="ODDONLY"> F  </i>
   <i type="logical" name="EVENONLY"> F  </i>
   <i type="int" name="LMAXFOCK">     0</i>
   <i type="int" name="NMAXFOCKAE">     0</i>
   <i type="logical" name="LFOCKAEDFT"> F  </i>
   <i name="HFSCREEN">      0.00000000</i>
   <i name="HFSCREENC">      0.00000000</i>
   <i type="int" name="NBANDSGWLOW">     0</i>
  </separator>
  <separator name="vdW DFT" >
   <i type="logical" name="LUSE_VDW"> F  </i>
   <i name="Zab_VDW">     -0.84910000</i>
   <i name="PARAM1">      0.12340000</i>
   <i name="PARAM2">      1.00000000</i>
   <i name="PARAM3">      0.00000000</i>
  </separator>
  <separator name="model GW" >
   <i type="int" name="MODEL_GW">     0</i>
   <i name="MODEL_EPS0">     58.26239943</i>
   <i name="MODEL_ALPHA">      1.00000000</i>
  </separator>
  <separator name="linear response parameters" >
   <i type="logical" name="LEPSILON"> F  </i>
   <i type="logical" name="LRPA"> F  </i>
   <i type="logical" name="LNABLA"> F  </i>
   <i type="logical" name="LVEL"> F  </i>
   <i type="int" name="KINTER">     0</i>
   <i name="CSHIFT">      0.10000000</i>
   <i name="OMEGAMAX">     -1.00000000</i>
   <i name="DEG_THRESHOLD">      0.00200000</i>
  </separator>
  <separator name="orbital magnetization" >
   <i type="logical" name="NUCIND"> F  </i>
   <v name="MAGPOS">      0.00000000      0.00000000      0.00000000</v>
   <i type="logical" name="LNICSALL"> T  </i>
   <i type="logical" name="ORBITALMAG"> F  </i>
   <i type="logical" name="LMAGBLOCH"> F  </i>
   <i type="logical" name="LCHIMAG"> F  </i>
   <i type="logical" name="LGAUGE"> T  </i>
   <i type="int" name="MAGATOM">     0</i>
   <v name="MAGDIPOL">      0.00000000      0.00000000      0.00000000</v>
   <v name="AVECCONST">      0.00000000      0.00000000      0.00000000</v>
  </separator>
  <separator name="response functions" >
   <i type="logical" name="LADDER"> F  </i>
   <i type="logical" name="LFXC"> F  </i>
   <i type="logical" name="LHARTREE"> T  </i>
   <i type="int" name="IBSE">     0</i>
   <v type="int" name="KPOINT">    -1     0     0     0</v>
   <i type="logical" name="LTCTE"> F  </i>
   <i type="logical" name="LTETE"> F  </i>
   <i type="logical" name="LTRIPLET"> F  </i>
   <i type="logical" name="LFXCEPS"> F  </i>
   <i type="logical" name="LFXHEG"> F  </i>
   <i type="int" name="NATURALO">     0</i>
   <i type="logical" name="L2ORDER"> F  </i>
   <i type="logical" name="LUSEW"> F  </i>
   <i name="ENCUTGW">     -2.00000000</i>
   <i name="ENCUTGWSOFT">     -2.00000000</i>
   <i name="ENCUTLF">     -1.00000000</i>
   <i type="int" name="LMAXMP2">    -1</i>
   <i name="SCISSOR">      0.00000000</i>
   <i type="int" name="NOMEGA">     0</i>
   <i type="int" name="NOMEGAR">     0</i>
   <i type="int" name="NBANDSGW">    -1</i>
   <i type="int" name="NBANDSO">    -1</i>
   <i type="int" name="NBANDSV">    -1</i>
   <i type="int" name="NELM">     1</i>
   <i type="int" name="NELMHF">     1</i>
   <i type="int" name="DIM">     3</i>
   <i type="int" name="ANTIRES">     0</i>
   <i name="OMEGAMAX">    -30.00000000</i>
   <i name="OMEGAMIN">    -30.00000000</i>
   <i name="OMEGATL">   -200.00000000</i>
   <i type="int" name="OMEGAGRID">     0</i>
   <i name="CSHIFT">     -0.10000000</i>
   <i type="logical" name="SELFENERGY"> F  </i>
   <i type="logical" name="LSPECTRAL"> F  </i>
   <i type="logical" name="LSPECTRALGW"> F  </i>
   <i type="logical" name="LSINGLES"> F  </i>
   <i type="logical" name="LFERMIGW"> F  </i>
   <i type="logical" name="ODDONLYGW"> F  </i>
   <i type="logical" name="EVENONLYGW"> F  </i>
   <i type="int" name="NKREDLFX">     1</i>
   <i type="int" name="NKREDLFY">     1</i>
   <i type="int" name="NKREDLFZ">     1</i>
   <i type="int" name="MAXMEM">  1800</i>
   <i type="int" name="TELESCOPE">     0</i>
   <i type="int" name="TAUPAR">     1</i>
   <i type="int" name="OMEGAPAR">    -1</i>
   <i name="LAMBDA">      1.00000000</i>
  </separator>
  <separator name="External order field" >
   <i name="OFIELD_KAPPA">      0.00000000</i>
   <v name="OFIELD_K">      0.00000000      0.00000000      0.00000000</v>
   <i name="OFIELD_Q6_NEAR">      0.00000000</i>
   <i name="OFIELD_Q6_FAR">      0.00000000</i>
   <i name="OFIELD_A">      0.00000000</i>
  </separator>
 </parameters>
 <atominfo>
  <atoms>      27 </atoms>
  <types>       4 </types>
  <array name="atoms" >
   <dimension dim="1">ion</dimension>
   <field type="string">element</field>
   <field type="int">atomtype</field>
   <set>
    <rc><c>V </c><c>   1</c></rc>
    <rc><c>V </c><c>   1</c></rc>
    <rc><c>V </c><c>   1</c></rc>
    <rc><c>Mo</c><c>   2</c></rc>
    <rc><c>Mo</c><c>   2</c></rc>
    <rc><c>Mo</c><c>   2</c></rc>
    <rc><c>W </c><c>   3</c></rc>
    <rc><c>W </c><c>   3</c></rc>
    <rc><c>W </c><c>   3</c></rc>
    <rc><c>S </c><c>   4</c></rc>
    <rc><c>S </c><c>   4</c></rc>
    <rc><c>S </c><c>   4</c></rc>
    <rc><c>S </c><c>   4</c></rc>
    <rc><c>S </c><c>   4</c></rc>
    <rc><c>S </c><c>   4</c></rc>
    <rc><c>S </c><c>   4</c></rc>
    <rc><c>S </c><c>   4</c></rc>
    <rc><c>S </c><c>   4</c></rc>
    <rc><c>S </c><c>   4</c></rc>
    <rc><c>S </c><c>   4</c></rc>
    <rc><c>S </c><c>   4</c></rc>
    <rc><c>S </c><c>   4</c></rc>
    <rc><c>S </c><c>   4</c></rc>
    <rc><c>S </c><c>   4</c></rc>
    <rc><c>S </c><c>   4</c></rc>
    <rc><c>S </c><c>   4</c></rc>
    <rc><c>S </c><c>   4</c></rc>
   </set>
  </array>
  <array name="atomtypes" >
   <dimension dim="1">type</dimension>
   <field type="int">atomspertype</field>
   <field type="string">element</field>
   <field>mass</field>
   <field>valence</field>
   <field type="string">pseudopotential</field>
   <set>
    <rc><c>   3</c><c>V </c><c>     50.94100000</c><c>      5.00000000</c><c> PAW_PBE V 08Apr2002                    </c></rc>
    <rc><c>   3</c><c>Mo</c><c>     95.94000000</c><c>      6.00000000</c><c> PAW_PBE Mo 08Apr2002                   </c></rc>
    <rc><c>   3</c><c>W </c><c>    183.85000000</c><c>      6.00000000</c><c> PAW_PBE W 08Apr2002                    </c></rc>
    <rc><c>  18</c><c>S </c><c>     32.06600000</c><c>      6.00000000</c><c>  PAW_PBE S 17Jan2003                   </c></rc>
   </set>
  </array>
 </atominfo>
 <structure name="initialpos" >
  <crystal>
   <varray name="basis" >
    <v>       8.66999996       5.03999989       0.00000000 </v>
    <v>      -8.66999982       5.04000013       0.00000000 </v>
    <v>       0.00000000       0.00000000      30.00000000 </v>
   </varray>
   <i name="volume">   2621.80797419 </i>
   <varray name="rec_basis" >
    <v>       0.05767013       0.09920635       0.00000000 </v>
    <v>      -0.05767013       0.09920635       0.00000000 </v>
    <v>       0.00000000       0.00000000       0.03333333 </v>
   </varray>
  </crystal>
  <varray name="positions" >
   <v>       1.00000000       0.33333334       0.00000000 </v>
   <v>       0.33333334       0.33333334       0.00000000 </v>
   <v>       0.66666669       0.00000000       0.00000000 </v>
   <v>       0.66666669       0.33333334       0.00000000 </v>
   <v>       0.33333334       0.66666669       0.00000000 </v>
   <v>       0.00000000       0.66666669       0.00000000 </v>
   <v>       0.00000000       0.00000000       0.00000000 </v>
   <v>       0.33333334       0.00000000       0.00000000 </v>
   <v>       0.66666669       0.66666669       0.00000000 </v>
   <v>       0.11068511       0.22244981       0.95539999 </v>
   <v>       0.22244981       0.11068511       0.04460000 </v>
   <v>       0.11068511       0.55578315       0.95539999 </v>
   <v>       0.22244981       0.44401845       0.04460000 </v>
   <v>       0.11068511       0.88911647       0.95539999 </v>
   <v>       0.22244981       0.77735180       0.04460000 </v>
   <v>       0.44401845       0.22244981       0.95539999 </v>
   <v>       0.55578315       0.11068511       0.04460000 </v>
   <v>       0.44401845       0.55578315       0.95539999 </v>
   <v>       0.55578315       0.44401845       0.04460000 </v>
   <v>       0.44401845       0.88911647       0.95539999 </v>
   <v>       0.55578315       0.77735180       0.04460000 </v>
   <v>       0.77735180       0.22244981       0.95539999 </v>
   <v>       0.88911647       0.11068511       0.04460000 </v>
   <v>       0.77735180       0.55578315       0.95539999 </v>
   <v>       0.88911647       0.44401845       0.04460000 </v>
   <v>       0.77735180       0.88911647       0.95539999 </v>
   <v>       0.88911647       0.77735180       0.04460000 </v>
  </varray>
 </structure>
 <calculation>
  <scstep>
   <time name="dav">   21.64   21.73</time>
   <time name="total">   21.69   21.78</time>
   <energy>
    <i name="alphaZ">     81.65567618 </i>
    <i name="ewald">  41890.23011097 </i>
    <i name="hartreedc"> -47722.86568057 </i>
    <i name="XCdc">   -242.92868295 </i>
    <i name="pawpsdc">   3467.42045192 </i>
    <i name="pawaedc">  -2871.19716117 </i>
    <i name="eentropy">     -0.52125081 </i>
    <i name="bandstr">   -239.13281177 </i>
    <i name="atom">   6761.44252427 </i>
    <i name="e_fr_energy">   1124.10317607 </i>
    <i name="e_wo_entrp">   1124.62442688 </i>
    <i name="e_0_energy">   1124.36380148 </i>
   </energy>
  </scstep>
  <scstep>
   <time name="dav">   27.59   27.66</time>
   <time name="total">   27.59   27.67</time>
   <energy>
    <i name="e_fr_energy">     -2.00321997 </i>
    <i name="e_wo_entrp">     -1.83079857 </i>
    <i name="e_0_energy">     -1.91700927 </i>
   </energy>
  </scstep>
  <scstep>
   <time name="dav">   27.57   27.63</time>
   <time name="total">   27.57   27.64</time>
   <energy>
    <i name="e_fr_energy">   -199.77940015 </i>
    <i name="e_wo_entrp">   -199.51757578 </i>
    <i name="e_0_energy">   -199.64848797 </i>
   </energy>
  </scstep>
  <scstep>
   <time name="dav">   29.55   29.62</time>
   <time name="total">   29.55   29.63</time>
   <energy>
    <i name="e_fr_energy">   -208.95873999 </i>
    <i name="e_wo_entrp">   -208.64985302 </i>
    <i name="e_0_energy">   -208.80429650 </i>
   </energy>
  </scstep>
  <scstep>
   <time name="dav">   29.00   29.07</time>
   <time name="total">   29.47   29.55</time>
   <energy>
    <i name="e_fr_energy">   -209.30544901 </i>
    <i name="e_wo_entrp">   -208.99975805 </i>
    <i name="e_0_energy">   -209.15260353 </i>
   </energy>
  </scstep>
  <scstep>
   <time name="dav">   31.28   31.36</time>
   <time name="total">   31.78   31.86</time>
   <energy>
    <i name="e_fr_energy">   -236.75996246 </i>
    <i name="e_wo_entrp">   -236.47640353 </i>
    <i name="e_0_energy">   -236.61818299 </i>
   </energy>
  </scstep>
  <scstep>
   <time name="dav">   31.54   31.61</time>
   <time name="total">   32.04   32.13</time>
   <energy>
    <i name="e_fr_energy">   -196.68024612 </i>
    <i name="e_wo_entrp">   -196.35872468 </i>
    <i name="e_0_energy">   -196.51948540 </i>
   </energy>
  </scstep>
  <scstep>
   <time name="dav">   29.34   29.41</time>
   <time name="total">   29.85   29.93</time>
   <energy>
    <i name="e_fr_energy">   -189.95110164 </i>
    <i name="e_wo_entrp">   -189.67415441 </i>
    <i name="e_0_energy">   -189.81262802 </i>
   </energy>
  </scstep>
  <scstep>
   <time name="dav">   29.47   29.54</time>
   <time name="total">   29.99   30.07</time>
   <energy>
    <i name="e_fr_energy">   -188.23250298 </i>
    <i name="e_wo_entrp">   -187.90361037 </i>
    <i name="e_0_energy">   -188.06805667 </i>
   </energy>
  </scstep>
  <scstep>
   <time name="dav">   32.57   32.65</time>
   <time name="total">   33.10   33.19</time>
   <energy>
    <i name="e_fr_energy">   -187.04976744 </i>
    <i name="e_wo_entrp">   -186.70774971 </i>
    <i name="e_0_energy">   -186.87875857 </i>
   </energy>
  </scstep>
  <scstep>
   <time name="dav">   33.01   33.09</time>
   <time name="total">   33.54   33.63</time>
   <energy>
    <i name="e_fr_energy">   -187.02497121 </i>
    <i name="e_wo_entrp">   -186.67262522 </i>
    <i name="e_0_energy">   -186.84879821 </i>
   </energy>
  </scstep>
  <scstep>
   <time name="dav">   32.08   32.16</time>
   <time name="total">   32.61   32.70</time>
   <energy>
    <i name="e_fr_energy">   -187.17628547 </i>
    <i name="e_wo_entrp">   -186.84233325 </i>
    <i name="e_0_energy">   -187.00930936 </i>
   </energy>
  </scstep>
  <scstep>
   <time name="dav">   31.41   31.49</time>
   <time name="total">   31.95   32.03</time>
   <energy>
    <i name="e_fr_energy">   -186.92080108 </i>
    <i name="e_wo_entrp">   -186.58713059 </i>
    <i name="e_0_energy">   -186.75396584 </i>
   </energy>
  </scstep>
  <scstep>
   <time name="dav">   32.33   32.41</time>
   <time name="total">   32.86   32.95</time>
   <energy>
    <i name="e_fr_energy">   -186.87679934 </i>
    <i name="e_wo_entrp">   -186.53080028 </i>
    <i name="e_0_energy">   -186.70379981 </i>
   </energy>
  </scstep>
  <scstep>
   <time name="dav">   31.39   31.46</time>
   <time name="total">   31.92   32.01</time>
   <energy>
    <i name="e_fr_energy">   -186.87445698 </i>
    <i name="e_wo_entrp">   -186.52892221 </i>
    <i name="e_0_energy">   -186.70168959 </i>
   </energy>
  </scstep>
  <scstep>
   <time name="dav">   32.06   32.14</time>
   <time name="total">   32.60   32.68</time>
   <energy>
    <i name="e_fr_energy">   -186.86845994 </i>
    <i name="e_wo_entrp">   -186.52456688 </i>
    <i name="e_0_energy">   -186.69651341 </i>
   </energy>
  </scstep>
  <scstep>
   <time name="dav">   31.88   31.96</time>
   <time name="total">   32.42   32.50</time>
   <energy>
    <i name="e_fr_energy">   -186.86849158 </i>
    <i name="e_wo_entrp">   -186.52547807 </i>
    <i name="e_0_energy">   -186.69698483 </i>
   </energy>
  </scstep>
  <scstep>
   <time name="dav">   28.73   28.80</time>
   <time name="total">   29.26   29.34</time>
   <energy>
    <i name="e_fr_energy">   -186.86778998 </i>
    <i name="e_wo_entrp">   -186.52450337 </i>
    <i name="e_0_energy">   -186.69614667 </i>
   </energy>
  </scstep>
  <scstep>
   <time name="dav">   24.43   24.48</time>
   <time name="total">   24.46   24.53</time>
   <energy>
    <i name="alphaZ">     81.65567618 </i>
    <i name="ewald">  41890.23011097 </i>
    <i name="hartreedc"> -47817.82709857 </i>
    <i name="XCdc">   -231.69547717 </i>
    <i name="pawpsdc">   4194.29425550 </i>
    <i name="pawaedc">  -3612.32521292 </i>
    <i name="eentropy">     -0.34340478 </i>
    <i name="bandstr">  -1452.29918949 </i>
    <i name="atom">   6761.44252427 </i>
    <i name="e_fr_energy">   -186.86781602 </i>
    <i name="e_wo_entrp">   -186.52441123 </i>
    <i name="e_0_energy">   -186.69611362 </i>
   </energy>
  </scstep>
  <structure>
   <crystal>
    <varray name="basis" >
     <v>       8.66999996       5.03999989       0.00000000 </v>
     <v>      -8.66999982       5.04000013       0.00000000 </v>
     <v>       0.00000000       0.00000000      30.00000000 </v>
    </varray>
    <i name="volume">   2621.80797419 </i>
    <varray name="rec_basis" >
     <v>       0.05767013       0.09920635       0.00000000 </v>
     <v>      -0.05767013       0.09920635       0.00000000 </v>
     <v>       0.00000000       0.00000000       0.03333333 </v>
    </varray>
   </crystal>
   <varray name="positions" >
    <v>       1.00000000       0.33333334       0.00000000 </v>
    <v>       0.33333334       0.33333334       0.00000000 </v>
    <v>       0.66666669       0.00000000       0.00000000 </v>
    <v>       0.66666669       0.33333334       0.00000000 </v>
    <v>       0.33333334       0.66666669       0.00000000 </v>
    <v>       0.00000000       0.66666669       0.00000000 </v>
    <v>       0.00000000       0.00000000       0.00000000 </v>
    <v>       0.33333334       0.00000000       0.00000000 </v>
    <v>       0.66666669       0.66666669       0.00000000 </v>
    <v>       0.11068511       0.22244981       0.95539999 </v>
    <v>       0.22244981       0.11068511       0.04460000 </v>
    <v>       0.11068511       0.55578315       0.95539999 </v>
    <v>       0.22244981       0.44401845       0.04460000 </v>
    <v>       0.11068511       0.88911647       0.95539999 </v>
    <v>       0.22244981       0.77735180       0.04460000 </v>
    <v>       0.44401845       0.22244981       0.95539999 </v>
    <v>       0.55578315       0.11068511       0.04460000 </v>
    <v>       0.44401845       0.55578315       0.95539999 </v>
    <v>       0.55578315       0.44401845       0.04460000 </v>
    <v>       0.44401845       0.88911647       0.95539999 </v>
    <v>       0.55578315       0.77735180       0.04460000 </v>
    <v>       0.77735180       0.22244981       0.95539999 </v>
    <v>       0.88911647       0.11068511       0.04460000 </v>
    <v>       0.77735180       0.55578315       0.95539999 </v>
    <v>       0.88911647       0.44401845       0.04460000 </v>
    <v>       0.77735180       0.88911647       0.95539999 </v>
    <v>       0.88911647       0.77735180       0.04460000 </v>
   </varray>
  </structure>
  <varray name="forces" >
   <v>      -0.35949587       0.20475364      -0.00033180 </v>
   <v>      -0.08493310       0.19486468       0.09435736 </v>
   <v>      -0.20635591      -0.03107073      -0.08992291 </v>
   <v>       0.06801548       0.27963083      -0.06775095 </v>
   <v>      -0.23625401      -0.20286381       0.05975289 </v>
   <v>       0.26627746      -0.13252424      -0.00655327 </v>
   <v>       0.11772327      -0.08488393       0.00737060 </v>
   <v>       0.30493854      -0.11549467      -0.15143663 </v>
   <v>       0.23585919      -0.19516419       0.15257600 </v>
   <v>      -0.23223391       0.52367427      -1.39515793 </v>
   <v>      -0.49846372       0.59742704       2.17197538 </v>
   <v>       0.52426893      -0.69277716      -2.17678945 </v>
   <v>       0.33753187      -0.65969128       1.42136432 </v>
   <v>       0.06828740       0.14344250      -2.90584767 </v>
   <v>      -0.21070359       0.13087318       2.89164984 </v>
   <v>      -0.65130238      -0.15996964      -2.05702496 </v>
   <v>       0.64836249      -0.13221833       2.10084446 </v>
   <v>       0.59621752      -0.54603591      -2.13627316 </v>
   <v>      -0.64681418      -0.54838057       2.19267098 </v>
   <v>       0.34922380       0.72776053      -2.20535314 </v>
   <v>      -0.35045045       0.69718536       2.10585220 </v>
   <v>       0.89737414      -0.01671743      -1.46559380 </v>
   <v>      -0.73738994      -0.00570859       1.43876359 </v>
   <v>      -0.02881796       0.02215143      -2.89226913 </v>
   <v>       0.74186616       0.00712919       2.14157559 </v>
   <v>      -0.63814078       0.01419659      -2.12654281 </v>
   <v>      -0.27459044      -0.01958878       2.89809440 </v>
  </varray>
  <varray name="stress" >
   <v>       7.43285770      -0.03747177      -1.52931006 </v>
   <v>      -0.03747184       4.50088189       0.04229887 </v>
   <v>      -1.52931001       0.04229896      31.08281407 </v>
  </varray>
  <energy>
   <i name="e_fr_energy">   -186.86781602 </i>
   <i name="e_wo_entrp">   -186.69611362 </i>
   <i name="e_0_energy">     -0.34340478 </i>
  </energy>
  <time name="totalsc">  616.26  617.93</time>
 </calculation>
 <calculation>
  <scstep>
   <time name="dav">   21.62   21.67</time>
   <time name="total">   22.16   22.22</time>
   <energy>
    <i name="alphaZ">     78.88075630 </i>
    <i name="ewald">  39358.68783315 </i>
    <i name="hartreedc"> -45306.63937695 </i>
    <i name="XCdc">   -239.15113255 </i>
    <i name="pawpsdc">   4193.08270808 </i>
    <i name="pawaedc">  -3611.09195797 </i>
    <i name="eentropy">     -0.28380387 </i>
    <i name="bandstr">  -1422.40887876 </i>
    <i name="atom">   6761.44252427 </i>
    <i name="e_fr_energy">   -187.48132829 </i>
    <i name="e_wo_entrp">   -187.19752443 </i>
    <i name="e_0_energy">   -187.33942636 </i>
   </energy>
  </scstep>
  <scstep>
   <time name="dav">   29.52   29.59</time>
   <time name="total">   30.05   30.13</time>
   <energy>
    <i name="e_fr_energy">   -189.42882626 </i>
    <i name="e_wo_entrp">   -189.09765231 </i>
    <i name="e_0_energy">   -189.26323928 </i>
   </energy>
  </scstep>
  <scstep>
   <time name="dav">   30.04   30.11</time>
   <time name="total">   30.58   30.67</time>
   <energy>
    <i name="e_fr_energy">   -189.34296476 </i>
    <i name="e_wo_entrp">   -189.06686914 </i>
    <i name="e_0_energy">   -189.20491695 </i>
   </energy>
  </scstep>
  <scstep>
   <time name="dav">   29.96   30.03</time>
   <time name="total">   30.50   30.58</time>
   <energy>
    <i name="e_fr_energy">   -188.75091736 </i>
    <i name="e_wo_entrp">   -188.46646247 </i>
    <i name="e_0_energy">   -188.60868991 </i>
   </energy>
  </scstep>
  <scstep>
   <time name="dav">   28.22   28.29</time>
   <time name="total">   28.76   28.84</time>
   <energy>
    <i name="e_fr_energy">   -188.84660556 </i>
    <i name="e_wo_entrp">   -188.55623827 </i>
    <i name="e_0_energy">   -188.70142191 </i>
   </energy>
  </scstep>
  <scstep>
   <time name="dav">   30.39   30.46</time>
   <time name="total">   30.93   31.01</time>
   <energy>
    <i name="e_fr_energy">   -188.74722174 </i>
    <i name="e_wo_entrp">   -188.46016224 </i>
    <i name="e_0_energy">   -188.60369199 </i>
   </energy>
  </scstep>
  <scstep>
   <time name="dav">   30.09   30.16</time>
   <time name="total">   30.64   30.72</time>
   <energy>
    <i name="e_fr_energy">   -188.66546267 </i>
    <i name="e_wo_entrp">   -188.38056769 </i>
    <i name="e_0_energy">   -188.52301518 </i>
   </energy>
  </scstep>
  <scstep>
   <time name="dav">   29.07   29.14</time>
   <time name="total">   29.62   29.70</time>
   <energy>
    <i name="e_fr_energy">   -188.66226159 </i>
    <i name="e_wo_entrp">   -188.37840915 </i>
    <i name="e_0_energy">   -188.52033537 </i>
   </energy>
  </scstep>
  <scstep>
   <time name="dav">   28.09   28.16</time>
   <time name="total">   28.64   28.71</time>
   <energy>
    <i name="e_fr_energy">   -188.64660289 </i>
    <i name="e_wo_entrp">   -188.36301935 </i>
    <i name="e_0_energy">   -188.50481112 </i>
   </energy>
  </scstep>
  <scstep>
   <time name="dav">   29.85   29.92</time>
   <time name="total">   30.40   30.48</time>
   <energy>
    <i name="e_fr_energy">   -188.64392260 </i>
    <i name="e_wo_entrp">   -188.36081412 </i>
    <i name="e_0_energy">   -188.50236836 </i>
   </energy>
  </scstep>
  <scstep>
   <time name="dav">   31.16   31.24</time>
   <time name="total">   31.72   31.81</time>
   <energy>
    <i name="e_fr_energy">   -188.64349564 </i>
    <i name="e_wo_entrp">   -188.36059206 </i>
    <i name="e_0_energy">   -188.50204385 </i>
   </energy>
  </scstep>
  <scstep>
   <time name="dav">   27.55   27.62</time>
   <time name="total">   28.10   28.17</time>
   <energy>
    <i name="e_fr_energy">   -188.64348797 </i>
    <i name="e_wo_entrp">   -188.36126334 </i>
    <i name="e_0_energy">   -188.50237565 </i>
   </energy>
  </scstep>
  <scstep>
   <time name="dav">   19.34   19.38</time>
   <time name="total">   19.88   19.94</time>
   <energy>
    <i name="e_fr_energy">   -188.64363425 </i>
    <i name="e_wo_entrp">   -188.36115362 </i>
    <i name="e_0_energy">   -188.50239394 </i>
   </energy>
  </scstep>
  <scstep>
   <time name="dav">   20.95   21.00</time>
   <time name="total">   20.98   21.04</time>
   <energy>
    <i name="alphaZ">     78.88075630 </i>
    <i name="ewald">  39358.68783315 </i>
    <i name="hartreedc"> -45323.88485801 </i>
    <i name="XCdc">   -238.01872983 </i>
    <i name="pawpsdc">   3949.57123530 </i>
    <i name="pawaedc">  -3364.06983474 </i>
    <i name="eentropy">     -0.28254101 </i>
    <i name="bandstr">  -1410.97008501 </i>
    <i name="atom">   6761.44252427 </i>
    <i name="e_fr_energy">   -188.64369957 </i>
    <i name="e_wo_entrp">   -188.36115856 </i>
    <i name="e_0_energy">   -188.50242907 </i>
   </energy>
  </scstep>
  <structure>
   <crystal>
    <varray name="basis" >
     <v>       8.85787022       5.10537630       0.00000000 </v>
     <v>      -8.85897447       5.10727636       0.00000000 </v>
     <v>       0.00000000       0.00000000      30.00000000 </v>
    </varray>
    <i name="volume">   2714.03968443 </i>
    <varray name="rec_basis" >
     <v>       0.05645396       0.09792386       0.00000000 </v>
     <v>      -0.05643296       0.09791165       0.00000000 </v>
     <v>       0.00000000       0.00000000       0.03333333 </v>
    </varray>
   </crystal>
   <varray name="positions" >
    <v>       0.99997977       0.33531346      -0.00000053 </v>
    <v>       0.33402966       0.33450226       0.00015173 </v>
    <v>       0.66594387       0.00042541      -0.00014460 </v>
    <v>       0.66819422       0.33448242      -0.00010895 </v>
    <v>       0.33170515       0.66635308       0.00009609 </v>
    <v>       0.00010657       0.66529160      -0.00001054 </v>
    <v>      -0.00007873      -0.00073378       0.00001185 </v>
    <v>       0.33362898      -0.00140114      -0.00024352 </v>
    <v>       0.66638883       0.66507644       0.00024536 </v>
    <v>       0.11254529       0.22560221       0.95315645 </v>
    <v>       0.22392228       0.11493119       0.04809273 </v>
    <v>       0.10882809       0.55100894       0.95189952 </v>
    <v>       0.22023161       0.43992212       0.04688568 </v>
    <v>       0.11156161       0.88961299       0.95072713 </v>
    <v>       0.22248995       0.77856436       0.04925003 </v>
    <v>       0.44144081       0.22349623       0.95209211 </v>
    <v>       0.55695421       0.10824847       0.04797834 </v>
    <v>       0.44306391       0.55151106       0.95196467 </v>
    <v>       0.55135907       0.44319346       0.04812601 </v>
    <v>       0.44847310       0.89162792       0.95185359 </v>
    <v>       0.55814486       0.78166352       0.04798640 </v>
    <v>       0.77976843       0.21987316       0.95304319 </v>
    <v>       0.88703761       0.11270933       0.04691366 </v>
    <v>       0.77737764       0.55596935       0.95074897 </v>
    <v>       0.89121458       0.44198858       0.04804384 </v>
    <v>       0.77564433       0.89095982       0.95198032 </v>
    <v>       0.88825876       0.77802200       0.04926039 </v>
   </varray>
  </structure>
  <varray name="forces" >
   <v>      -0.32561811       0.18497418      -0.00037657 </v>
   <v>      -0.02432498       0.21874074      -0.04222063 </v>
   <v>      -0.20038232      -0.08101013       0.04461341 </v>
   <v>      -0.12522190       0.36546477      -0.07659975 </v>
   <v>      -0.38178035      -0.07173617       0.07647945 </v>
   <v>       0.07755899      -0.04126122      -0.00093501 </v>
   <v>       0.30071665      -0.17463204       0.00070510 </v>
   <v>       0.25890000      -0.26219399      -0.04410624 </v>
   <v>       0.35171136      -0.09907538       0.04044097 </v>
   <v>       0.05898034      -0.08220842       0.23003131 </v>
   <v>       0.05260045      -0.05023104      -0.14683381 </v>
   <v>       0.04756537      -0.08291279      -0.15259171 </v>
   <v>      -0.00856109      -0.05473578      -0.03366681 </v>
   <v>      -0.05775941       0.09473075      -0.03726404 </v>
   <v>      -0.07277909       0.11079643       0.13472942 </v>
   <v>       0.01300374      -0.11035607       0.11698453 </v>
   <v>      -0.02362308      -0.09229151      -0.07160643 </v>
   <v>       0.07038699       0.04848988       0.08972019 </v>
   <v>      -0.08157674       0.04530813       0.09761638 </v>
   <v>      -0.10532893       0.06077138      -0.09567927 </v>
   <v>       0.10682107       0.05896012      -0.13610364 </v>
   <v>       0.03769803       0.01662860       0.04972332 </v>
   <v>       0.10688705       0.00495734      -0.24673798 </v>
   <v>      -0.14622032       0.01371434      -0.12308127 </v>
   <v>       0.07887891      -0.00868763       0.16135594 </v>
   <v>       0.08206516      -0.00363439       0.12203710 </v>
   <v>      -0.09059778      -0.00857011       0.04336605 </v>
  </varray>
  <varray name="stress" >
   <v>     -19.94694243       0.01919991       0.05841405 </v>
   <v>       0.01919992     -19.53552319       0.04683995 </v>
   <v>       0.05841400       0.04683988      -1.66914430 </v>
  </varray>
  <energy>
   <i name="e_fr_energy">   -188.64369957 </i>
   <i name="e_wo_entrp">   -188.50242907 </i>
   <i name="e_0_energy">     -0.28254101 </i>
  </energy>
  <time name="totalsc">  435.13  436.29</time>
 </calculation>
 <calculation>
  <scstep>
   <time name="dav">   23.78   23.84</time>
   <time name="total">   24.32   24.38</time>
   <energy>
    <i name="alphaZ">     82.31891543 </i>
    <i name="ewald">  41290.15253930 </i>
    <i name="hartreedc"> -47286.36994436 </i>
    <i name="XCdc">   -233.87387589 </i>
    <i name="pawpsdc">   3948.58565415 </i>
    <i name="pawaedc">  -3363.07500457 </i>
    <i name="eentropy">     -0.23606912 </i>
    <i name="bandstr">  -1389.52005006 </i>
    <i name="atom">   6761.44252427 </i>
    <i name="e_fr_energy">   -190.57531086 </i>
    <i name="e_wo_entrp">   -190.33924173 </i>
    <i name="e_0_energy">   -190.45727630 </i>
   </energy>
  </scstep>
  <scstep>
   <time name="dav">   29.14   29.21</time>
   <time name="total">   29.66   29.74</time>
   <energy>
    <i name="e_fr_energy">   -190.57173457 </i>
    <i name="e_wo_entrp">   -190.33306934 </i>
    <i name="e_0_energy">   -190.45240196 </i>
   </energy>
  </scstep>
  <scstep>
   <time name="dav">   30.16   30.23</time>
   <time name="total">   30.69   30.77</time>
   <energy>
    <i name="e_fr_energy">   -190.04722725 </i>
    <i name="e_wo_entrp">   -189.79686976 </i>
    <i name="e_0_energy">   -189.92204851 </i>
   </energy>
  </scstep>
  <scstep>
   <time name="dav">   31.67   31.75</time>
   <time name="total">   32.21   32.30</time>
   <energy>
    <i name="e_fr_energy">   -189.84863656 </i>
    <i name="e_wo_entrp">   -189.61253813 </i>
    <i name="e_0_energy">   -189.73058735 </i>
   </energy>
  </scstep>
  <scstep>
   <time name="dav">   30.28   30.36</time>
   <time name="total">   30.81   30.89</time>
   <energy>
    <i name="e_fr_energy">   -189.89630267 </i>
    <i name="e_wo_entrp">   -189.65080089 </i>
    <i name="e_0_energy">   -189.77355178 </i>
   </energy>
  </scstep>
  <scstep>
   <time name="dav">   30.03   30.10</time>
   <time name="total">   30.56   30.65</time>
   <energy>
    <i name="e_fr_energy">   -189.74023459 </i>
    <i name="e_wo_entrp">   -189.50172661 </i>
    <i name="e_0_energy">   -189.62098060 </i>
   </energy>
  </scstep>
  <scstep>
   <time name="dav">   29.72   29.79</time>
   <time name="total">   30.25   30.33</time>
   <energy>
    <i name="e_fr_energy">   -189.73424994 </i>
    <i name="e_wo_entrp">   -189.49606211 </i>
    <i name="e_0_energy">   -189.61515602 </i>
   </energy>
  </scstep>
  <scstep>
   <time name="dav">   28.42   28.49</time>
   <time name="total">   28.95   29.03</time>
   <energy>
    <i name="e_fr_energy">   -189.73458420 </i>
    <i name="e_wo_entrp">   -189.49640911 </i>
    <i name="e_0_energy">   -189.61549665 </i>
   </energy>
  </scstep>
  <scstep>
   <time name="dav">   26.47   26.53</time>
   <time name="total">   27.00   27.07</time>
   <energy>
    <i name="e_fr_energy">   -189.73433760 </i>
    <i name="e_wo_entrp">   -189.49609681 </i>
    <i name="e_0_energy">   -189.61521721 </i>
   </energy>
  </scstep>
  <scstep>
   <time name="dav">   25.43   25.50</time>
   <time name="total">   25.97   26.04</time>
   <energy>
    <i name="e_fr_energy">   -189.73452284 </i>
    <i name="e_wo_entrp">   -189.49616458 </i>
    <i name="e_0_energy">   -189.61534371 </i>
   </energy>
  </scstep>
  <scstep>
   <time name="dav">   22.08   22.14</time>
   <time name="total">   22.62   22.68</time>
   <energy>
    <i name="e_fr_energy">   -189.73426770 </i>
    <i name="e_wo_entrp">   -189.49595618 </i>
    <i name="e_0_energy">   -189.61511194 </i>
   </energy>
  </scstep>
  <scstep>
   <time name="dav">   19.32   19.36</time>
   <time name="total">   19.35   19.41</time>
   <energy>
    <i name="alphaZ">     82.31891543 </i>
    <i name="ewald">  41290.15253930 </i>
    <i name="hartreedc"> -47261.57705494 </i>
    <i name="XCdc">   -235.26399358 </i>
    <i name="pawpsdc">   4038.48718241 </i>
    <i name="pawaedc">  -3454.18553908 </i>
    <i name="eentropy">     -0.23830308 </i>
    <i name="bandstr">  -1410.87059392 </i>
    <i name="atom">   6761.44252427 </i>
    <i name="e_fr_energy">   -189.73432320 </i>
    <i name="e_wo_entrp">   -189.49602012 </i>
    <i name="e_0_energy">   -189.61517166 </i>
   </energy>
  </scstep>
  <structure>
   <crystal>
    <varray name="basis" >
     <v>       8.66907385       4.99892754       0.00000000 </v>
     <v>      -8.66994491       5.00042424       0.00000000 </v>
     <v>       0.00000000       0.00000000      30.00000000 </v>
    </varray>
    <i name="volume">   2600.68420271 </i>
    <varray name="rec_basis" >
     <v>       0.05768202       0.10001151       0.00000000 </v>
     <v>      -0.05766476       0.10000146       0.00000000 </v>
     <v>       0.00000000       0.00000000       0.03333333 </v>
    </varray>
   </crystal>
   <varray name="positions" >
    <v>       0.99997519       0.33593522      -0.00000075 </v>
    <v>       0.33437127       0.33489062       0.00012775 </v>
    <v>       0.66561592       0.00048295      -0.00011926 </v>
    <v>       0.66868361       0.33521261      -0.00015246 </v>
    <v>       0.33121816       0.66660053       0.00013953 </v>
    <v>       0.00011233       0.66514817      -0.00001107 </v>
    <v>      -0.00008084      -0.00131433       0.00001225 </v>
    <v>       0.33344052      -0.00208758      -0.00026858 </v>
    <v>       0.66656186       0.66457291       0.00026833 </v>
    <v>       0.11246485       0.22540833       0.95328712 </v>
    <v>       0.22388906       0.11479680       0.04800932 </v>
    <v>       0.10873550       0.55082486       0.95181284 </v>
    <v>       0.22013204       0.43983903       0.04686655 </v>
    <v>       0.11166412       0.88982659       0.95070596 </v>
    <v>       0.22260482       0.77881921       0.04932656 </v>
    <v>       0.44126917       0.22329959       0.95215856 </v>
    <v>       0.55677748       0.10811720       0.04793767 </v>
    <v>       0.44321254       0.55152428       0.95201564 </v>
    <v>       0.55135620       0.44334750       0.04818146 </v>
    <v>       0.44847318       0.89183060       0.95179924 </v>
    <v>       0.55834601       0.78165917       0.04790909 </v>
    <v>       0.77983244       0.21986465       0.95307143 </v>
    <v>       0.88714871       0.11261481       0.04677351 </v>
    <v>       0.77725986       0.55613284       0.95067905 </v>
    <v>       0.89127596       0.44189823       0.04813550 </v>
    <v>       0.77571721       0.89087484       0.95204964 </v>
    <v>       0.88815730       0.77809482       0.04928502 </v>
   </varray>
  </structure>
  <varray name="forces" >
   <v>      -0.32691568       0.18708206      -0.00112788 </v>
   <v>       0.01413487       0.23941052      -0.06583830 </v>
   <v>      -0.19775993      -0.12917492       0.06632152 </v>
   <v>      -0.19134454       0.37583319      -0.05201711 </v>
   <v>      -0.42489789      -0.02214974       0.05331467 </v>
   <v>       0.00981063      -0.00162340       0.00093975 </v>
   <v>       0.36469249      -0.21371833      -0.00059696 </v>
   <v>       0.24681688      -0.32279721      -0.00349722 </v>
   <v>       0.39416753      -0.05986230       0.00111497 </v>
   <v>      -0.02380909       0.04399716      -0.21552432 </v>
   <v>      -0.00342974       0.07815215       0.35387961 </v>
   <v>       0.08526586      -0.14557682      -0.65289141 </v>
   <v>       0.02235172      -0.12351381       0.41917826 </v>
   <v>      -0.00793443       0.02172120      -0.61165892 </v>
   <v>      -0.04534207       0.04031351       0.69719737 </v>
   <v>      -0.09131283      -0.04208664      -0.36314012 </v>
   <v>       0.07081482      -0.01393222       0.40541662 </v>
   <v>       0.05000167      -0.06983868      -0.38791502 </v>
   <v>      -0.06281515      -0.09433424       0.62553331 </v>
   <v>       0.03062157       0.11404332      -0.62338313 </v>
   <v>      -0.00651071       0.11539258       0.34405710 </v>
   <v>       0.11792373       0.02472661      -0.40335173 </v>
   <v>      -0.04638605       0.01302395       0.19962610 </v>
   <v>      -0.06904033       0.02601633      -0.68611686 </v>
   <v>       0.15173072      -0.00719559       0.66115159 </v>
   <v>      -0.05743467      -0.01995819      -0.37687906 </v>
   <v>      -0.00339936      -0.01395051       0.61620720 </v>
  </varray>
  <varray name="stress" >
   <v>     -10.20611069       0.00209766       0.04257520 </v>
   <v>       0.00209781      -9.88718667       0.04179867 </v>
   <v>       0.04257518       0.04179876       6.49915248 </v>
  </varray>
  <energy>
   <i name="e_fr_energy">   -189.73432320 </i>
   <i name="e_wo_entrp">   -189.61517166 </i>
   <i name="e_0_energy">     -0.23830308 </i>
  </energy>
  <time name="totalsc">  374.30  375.29</time>
 </calculation>
 <calculation>
  <scstep>
   <time name="dav">   21.63   21.68</time>
   <time name="total">   22.15   22.20</time>
   <energy>
    <i name="alphaZ">     85.82916659 </i>
    <i name="ewald">  42838.21762879 </i>
    <i name="hartreedc"> -48854.71989986 </i>
    <i name="XCdc">   -232.94235790 </i>
    <i name="pawpsdc">   4038.28670994 </i>
    <i name="pawaedc">  -3453.97757839 </i>
    <i name="eentropy">     -0.19712362 </i>
    <i name="bandstr">  -1373.23552859 </i>
    <i name="atom">   6761.44252427 </i>
    <i name="e_fr_energy">   -191.29645878 </i>
    <i name="e_wo_entrp">   -191.09933516 </i>
    <i name="e_0_energy">   -191.19789697 </i>
   </energy>
  </scstep>
  <scstep>
   <time name="dav">   32.75   32.83</time>
   <time name="total">   33.26   33.35</time>
   <energy>
    <i name="e_fr_energy">   -191.17129435 </i>
    <i name="e_wo_entrp">   -190.96947136 </i>
    <i name="e_0_energy">   -191.07038286 </i>
   </energy>
  </scstep>
  <scstep>
   <time name="dav">   29.93   30.00</time>
   <time name="total">   30.44   30.52</time>
   <energy>
    <i name="e_fr_energy">   -191.19903963 </i>
    <i name="e_wo_entrp">   -190.98085490 </i>
    <i name="e_0_energy">   -191.08994727 </i>
   </energy>
  </scstep>
  <scstep>
   <time name="dav">   31.62   31.70</time>
   <time name="total">   32.14   32.23</time>
   <energy>
    <i name="e_fr_energy">   -190.80997760 </i>
    <i name="e_wo_entrp">   -190.61052673 </i>
    <i name="e_0_energy">   -190.71025216 </i>
   </energy>
  </scstep>
  <scstep>
   <time name="dav">   28.05   28.12</time>
   <time name="total">   28.57   28.65</time>
   <energy>
    <i name="e_fr_energy">   -190.71072666 </i>
    <i name="e_wo_entrp">   -190.50744197 </i>
    <i name="e_0_energy">   -190.60908431 </i>
   </energy>
  </scstep>
  <scstep>
   <time name="dav">   30.14   30.21</time>
   <time name="total">   30.66   30.74</time>
   <energy>
    <i name="e_fr_energy">   -190.70804424 </i>
    <i name="e_wo_entrp">   -190.50455497 </i>
    <i name="e_0_energy">   -190.60629961 </i>
   </energy>
  </scstep>
  <scstep>
   <time name="dav">   29.48   29.55</time>
   <time name="total">   30.00   30.08</time>
   <energy>
    <i name="e_fr_energy">   -190.69830367 </i>
    <i name="e_wo_entrp">   -190.49565839 </i>
    <i name="e_0_energy">   -190.59698103 </i>
   </energy>
  </scstep>
  <scstep>
   <time name="dav">   26.74   26.80</time>
   <time name="total">   27.26   27.34</time>
   <energy>
    <i name="e_fr_energy">   -190.69240745 </i>
    <i name="e_wo_entrp">   -190.48971552 </i>
    <i name="e_0_energy">   -190.59106148 </i>
   </energy>
  </scstep>
  <scstep>
   <time name="dav">   27.50   27.57</time>
   <time name="total">   28.02   28.09</time>
   <energy>
    <i name="e_fr_energy">   -190.69270131 </i>
    <i name="e_wo_entrp">   -190.48982026 </i>
    <i name="e_0_energy">   -190.59126079 </i>
   </energy>
  </scstep>
  <scstep>
   <time name="dav">   29.44   29.51</time>
   <time name="total">   29.96   30.06</time>
   <energy>
    <i name="e_fr_energy">   -190.69282442 </i>
    <i name="e_wo_entrp">   -190.49007879 </i>
    <i name="e_0_energy">   -190.59145160 </i>
   </energy>
  </scstep>
  <scstep>
   <time name="dav">   23.77   23.83</time>
   <time name="total">   24.29   24.36</time>
   <energy>
    <i name="e_fr_energy">   -190.69258786 </i>
    <i name="e_wo_entrp">   -190.48988692 </i>
    <i name="e_0_energy">   -190.59123739 </i>
   </energy>
  </scstep>
  <scstep>
   <time name="dav">   18.03   18.07</time>
   <time name="total">   18.07   18.12</time>
   <energy>
    <i name="alphaZ">     85.82916659 </i>
    <i name="ewald">  42838.21762879 </i>
    <i name="hartreedc"> -48826.20461695 </i>
    <i name="XCdc">   -234.29290600 </i>
    <i name="pawpsdc">   4063.35578254 </i>
    <i name="pawaedc">  -3479.22841481 </i>
    <i name="eentropy">     -0.20267392 </i>
    <i name="bandstr">  -1399.60904516 </i>
    <i name="atom">   6761.44252427 </i>
    <i name="e_fr_energy">   -190.69255464 </i>
    <i name="e_wo_entrp">   -190.48988073 </i>
    <i name="e_0_energy">   -190.59121768 </i>
   </energy>
  </scstep>
  <structure>
   <crystal>
    <varray name="basis" >
     <v>       8.48553507       4.89793998       0.00000000 </v>
     <v>      -8.48659850       4.89977202       0.00000000 </v>
     <v>       0.00000000       0.00000000      30.00000000 </v>
    </varray>
    <i name="volume">   2494.32111997 </i>
    <varray name="rec_basis" >
     <v>       0.05893113       0.10207104       0.00000000 </v>
     <v>      -0.05890909       0.10205825       0.00000000 </v>
     <v>       0.00000000       0.00000000       0.03333333 </v>
    </varray>
   </crystal>
   <varray name="positions" >
    <v>       0.99996918       0.33829932      -0.00000373 </v>
    <v>       0.33603209       0.33633793      -0.00002891 </v>
    <v>       0.66397261       0.00026369       0.00003678 </v>
    <v>       0.67027989       0.33838468      -0.00023937 </v>
    <v>       0.32960303       0.66818562       0.00023034 </v>
    <v>       0.00013911       0.66529953      -0.00000752 </v>
    <v>      -0.00010735      -0.00416534       0.00000991 </v>
    <v>       0.33213912      -0.00514054      -0.00024121 </v>
    <v>       0.66777255       0.66280777       0.00023711 </v>
    <v>       0.11285130       0.22620610       0.95246033 </v>
    <v>       0.22460770       0.11570195       0.04917004 </v>
    <v>       0.10802811       0.54939151       0.95003242 </v>
    <v>       0.21931025       0.43876628       0.04812187 </v>
    <v>       0.11166079       0.88973685       0.94894787 </v>
    <v>       0.22255676       0.77902015       0.05125186 </v>
    <v>       0.44069489       0.22368749       0.95099619 </v>
    <v>       0.55727900       0.10783343       0.04918506 </v>
    <v>       0.44262949       0.55063822       0.95080401 </v>
    <v>       0.55021420       0.44260614       0.04992869 </v>
    <v>       0.44962938       0.89237255       0.95005664 </v>
    <v>       0.55902425       0.78271167       0.04903191 </v>
    <v>       0.78055059       0.21949754       0.95184873 </v>
    <v>       0.88686142       0.11310582       0.04756801 </v>
    <v>       0.77731545       0.55646534       0.94877624 </v>
    <v>       0.89188898       0.44120257       0.04993262 </v>
    <v>       0.77514176       0.89111793       0.95084276 </v>
    <v>       0.88816988       0.77788026       0.05105122 </v>
   </varray>
  </structure>
  <varray name="forces" >
   <v>      -0.28378724       0.16285883      -0.00136609 </v>
   <v>       0.04643616       0.27001105      -0.07734811 </v>
   <v>      -0.20744805      -0.17333221       0.07652483 </v>
   <v>      -0.26672534       0.38858104       0.00707235 </v>
   <v>      -0.47424762       0.02863402      -0.00844057 </v>
   <v>      -0.09482665       0.06097502       0.00184701 </v>
   <v>       0.38392515      -0.22588784       0.00253035 </v>
   <v>       0.24963009      -0.41048092       0.03396626 </v>
   <v>       0.47522870      -0.01781926      -0.02924124 </v>
   <v>      -0.00255167      -0.01121283      -0.09780448 </v>
   <v>       0.02833998       0.02654392       0.20408371 </v>
   <v>       0.01538595      -0.04671619      -0.46705655 </v>
   <v>      -0.04257226      -0.02620603       0.31808145 </v>
   <v>       0.07111915      -0.02611853      -0.49330074 </v>
   <v>      -0.02523956      -0.03699767       0.54752713 </v>
   <v>       0.02426340      -0.00718531      -0.19418927 </v>
   <v>      -0.03033045       0.03506168       0.20328730 </v>
   <v>      -0.04043000      -0.00135942      -0.19872643 </v>
   <v>      -0.00238811      -0.03256940       0.49092161 </v>
   <v>       0.02942337       0.01871019      -0.49139924 </v>
   <v>       0.01192976      -0.00675140       0.18834687 </v>
   <v>       0.00923703       0.04123406      -0.31252115 </v>
   <v>       0.00371016       0.01844941       0.09466626 </v>
   <v>       0.02375243       0.04133580      -0.54336653 </v>
   <v>       0.03678714       0.01311249       0.46979109 </v>
   <v>       0.00270440      -0.03640293      -0.21410227 </v>
   <v>       0.05867406      -0.04646757       0.49021645 </v>
  </varray>
  <varray name="stress" >
   <v>      -5.76357725      -0.03152125      -0.09260279 </v>
   <v>      -0.03152135      -5.82602280      -0.03258403 </v>
   <v>      -0.09260265      -0.03258385       4.54643691 </v>
  </varray>
  <energy>
   <i name="e_fr_energy">   -190.69255464 </i>
   <i name="e_wo_entrp">   -190.59121768 </i>
   <i name="e_0_energy">     -0.20267392 </i>
  </energy>
  <time name="totalsc">  376.81  377.82</time>
 </calculation>
 <calculation>
  <scstep>
   <time name="dav">   21.61   21.66</time>
   <time name="total">   22.12   22.17</time>
   <energy>
    <i name="alphaZ">     90.23081820 </i>
    <i name="ewald">  44692.55380850 </i>
    <i name="hartreedc"> -50736.42064363 </i>
    <i name="XCdc">   -231.79798811 </i>
    <i name="pawpsdc">   4063.28029710 </i>
    <i name="pawaedc">  -3479.14862132 </i>
    <i name="eentropy">     -0.18342972 </i>
    <i name="bandstr">  -1352.04499982 </i>
    <i name="atom">   6761.44252427 </i>
    <i name="e_fr_energy">   -192.08823452 </i>
    <i name="e_wo_entrp">   -191.90480480 </i>
    <i name="e_0_energy">   -191.99651966 </i>
   </energy>
  </scstep>
  <scstep>
   <time name="dav">   30.38   30.45</time>
   <time name="total">   30.88   30.97</time>
   <energy>
    <i name="e_fr_energy">   -191.79404608 </i>
    <i name="e_wo_entrp">   -191.60421621 </i>
    <i name="e_0_energy">   -191.69913115 </i>
   </energy>
  </scstep>
  <scstep>
   <time name="dav">   30.43   30.51</time>
   <time name="total">   30.94   31.03</time>
   <energy>
    <i name="e_fr_energy">   -191.86227245 </i>
    <i name="e_wo_entrp">   -191.66318182 </i>
    <i name="e_0_energy">   -191.76272714 </i>
   </energy>
  </scstep>
  <scstep>
   <time name="dav">   30.57   30.65</time>
   <time name="total">   31.08   31.16</time>
   <energy>
    <i name="e_fr_energy">   -191.60956166 </i>
    <i name="e_wo_entrp">   -191.42587558 </i>
    <i name="e_0_energy">   -191.51771862 </i>
   </energy>
  </scstep>
  <scstep>
   <time name="dav">   30.60   30.67</time>
   <time name="total">   31.10   31.19</time>
   <energy>
    <i name="e_fr_energy">   -191.37134362 </i>
    <i name="e_wo_entrp">   -191.17918077 </i>
    <i name="e_0_energy">   -191.27526220 </i>
   </energy>
  </scstep>
  <scstep>
   <time name="dav">   30.70   30.78</time>
   <time name="total">   31.21   31.30</time>
   <energy>
    <i name="e_fr_energy">   -191.36910479 </i>
    <i name="e_wo_entrp">   -191.17718433 </i>
    <i name="e_0_energy">   -191.27314456 </i>
   </energy>
  </scstep>
  <scstep>
   <time name="dav">   29.35   29.42</time>
   <time name="total">   29.86   29.95</time>
   <energy>
    <i name="e_fr_energy">   -191.36807336 </i>
    <i name="e_wo_entrp">   -191.17622016 </i>
    <i name="e_0_energy">   -191.27214676 </i>
   </energy>
  </scstep>
  <scstep>
   <time name="dav">   29.70   29.77</time>
   <time name="total">   30.21   30.29</time>
   <energy>
    <i name="e_fr_energy">   -191.35690774 </i>
    <i name="e_wo_entrp">   -191.16514353 </i>
    <i name="e_0_energy">   -191.26102564 </i>
   </energy>
  </scstep>
  <scstep>
   <time name="dav">   29.03   29.10</time>
   <time name="total">   29.54   29.62</time>
   <energy>
    <i name="e_fr_energy">   -191.35791229 </i>
    <i name="e_wo_entrp">   -191.16616264 </i>
    <i name="e_0_energy">   -191.26203746 </i>
   </energy>
  </scstep>
  <scstep>
   <time name="dav">   29.77   29.84</time>
   <time name="total">   30.28   30.37</time>
   <energy>
    <i name="e_fr_energy">   -191.35724704 </i>
    <i name="e_wo_entrp">   -191.16540620 </i>
    <i name="e_0_energy">   -191.26132662 </i>
   </energy>
  </scstep>
  <scstep>
   <time name="dav">   23.52   23.58</time>
   <time name="total">   23.56   23.62</time>
   <energy>
    <i name="alphaZ">     90.23081820 </i>
    <i name="ewald">  44692.55380850 </i>
    <i name="hartreedc"> -50701.78772958 </i>
    <i name="XCdc">   -233.36093268 </i>
    <i name="pawpsdc">   4084.02022227 </i>
    <i name="pawaedc">  -3499.95454121 </i>
    <i name="eentropy">     -0.19180007 </i>
    <i name="bandstr">  -1384.30953800 </i>
    <i name="atom">   6761.44252427 </i>
    <i name="e_fr_energy">   -191.35716830 </i>
    <i name="e_wo_entrp">   -191.16536823 </i>
    <i name="e_0_energy">   -191.26126827 </i>
   </energy>
  </scstep>
  <structure>
   <crystal>
    <varray name="basis" >
     <v>       8.27618053       4.77437297       0.00000000 </v>
     <v>      -8.27937403       4.77989506       0.00000000 </v>
     <v>       0.00000000       0.00000000      30.00000000 </v>
    </varray>
    <i name="volume">   2372.64281997 </i>
    <varray name="rec_basis" >
     <v>       0.06043761       0.10468547       0.00000000 </v>
     <v>      -0.06036778       0.10464509       0.00000000 </v>
     <v>       0.00000000       0.00000000       0.03333333 </v>
    </varray>
   </crystal>
   <varray name="positions" >
    <v>       0.99995997       0.34238998      -0.00000979 </v>
    <v>       0.33970889       0.33929226      -0.00035456 </v>
    <v>       0.66033127      -0.00047134       0.00035797 </v>
    <v>       0.67312468       0.34507486      -0.00021868 </v>
    <v>       0.32663416       0.67197082       0.00020700 </v>
    <v>       0.00021340       0.66673808       0.00000120 </v>
    <v>      -0.00016380      -0.00982551       0.00001705 </v>
    <v>       0.32882558      -0.01193784      -0.00008592 </v>
    <v>       0.67095007       0.65928049       0.00009814 </v>
    <v>       0.11299331       0.22669968       0.95157059 </v>
    <v>       0.22546516       0.11640557       0.05055510 </v>
    <v>       0.10734940       0.54823585       0.94757903 </v>
    <v>       0.21844187       0.43827253       0.04988892 </v>
    <v>       0.11172004       0.88877729       0.94635327 </v>
    <v>       0.22187731       0.77864531       0.05406793 </v>
    <v>       0.44063253       0.22385039       0.94966054 </v>
    <v>       0.55789177       0.10836717       0.05057173 </v>
    <v>       0.44192548       0.55039963       0.94944187 </v>
    <v>       0.54926663       0.44174642       0.05247697 </v>
    <v>       0.45060548       0.89247923       0.94750808 </v>
    <v>       0.55918610       0.78311625       0.05033720 </v>
    <v>       0.78135439       0.21969546       0.95010914 </v>
    <v>       0.88682534       0.11362207       0.04843919 </v>
    <v>       0.77803837       0.55677479       0.94597992 </v>
    <v>       0.89251159       0.44084222       0.05239938 </v>
    <v>       0.77440616       0.89092259       0.94941254 </v>
    <v>       0.88813930       0.77685020       0.05363608 </v>
   </varray>
  </structure>
  <varray name="forces" >
   <v>      -0.22351578       0.12775246       0.00407156 </v>
   <v>       0.02398861       0.30465749      -0.00153019 </v>
   <v>      -0.24529756      -0.17041716       0.00148350 </v>
   <v>      -0.21856146       0.31650909       0.01976682 </v>
   <v>      -0.37783445       0.02238382      -0.01962686 </v>
   <v>      -0.16544265       0.09517401      -0.00160294 </v>
   <v>       0.35950696      -0.21410825      -0.00482166 </v>
   <v>       0.18201424      -0.44218252      -0.00697936 </v>
   <v>       0.47554268       0.06163114      -0.00150285 </v>
   <v>       0.05104275      -0.07686793       0.17376724 </v>
   <v>       0.09945507      -0.05092566      -0.07078313 </v>
   <v>      -0.08344346       0.06197889      -0.11754151 </v>
   <v>      -0.07950257       0.09398190      -0.00698896 </v>
   <v>       0.10224800      -0.01839427      -0.24321636 </v>
   <v>      -0.02079023      -0.12279837       0.28220119 </v>
   <v>       0.19305112      -0.01833676       0.15887330 </v>
   <v>      -0.18473798       0.03475180      -0.10028317 </v>
   <v>      -0.12579078       0.14580726       0.09276667 </v>
   <v>       0.02318973       0.05569600       0.18754152 </v>
   <v>      -0.03486114      -0.05192653      -0.18066656 </v>
   <v>       0.10904799      -0.15988403      -0.15579569 </v>
   <v>      -0.11949567       0.02511038       0.00424528 </v>
   <v>       0.09216314      -0.00283366      -0.16891480 </v>
   <v>       0.09728542       0.08182179      -0.27827017 </v>
   <v>      -0.09063402       0.04220849       0.11327936 </v>
   <v>       0.09588994      -0.06422913       0.07305710 </v>
   <v>       0.06548209      -0.07656025       0.24747068 </v>
  </varray>
  <varray name="stress" >
   <v>      -0.14494566      -0.19323353      -0.17959393 </v>
   <v>      -0.19323348      -0.32265716      -0.30280098 </v>
   <v>      -0.17959381      -0.30280091      -0.39820342 </v>
  </varray>
  <energy>
   <i name="e_fr_energy">   -191.35716830 </i>
   <i name="e_wo_entrp">   -191.26126827 </i>
   <i name="e_0_energy">     -0.19180007 </i>
  </energy>
  <time name="totalsc">  362.57  363.53</time>
 </calculation>
 <calculation>
  <scstep>
   <time name="dav">   21.59   21.65</time>
   <time name="total">   22.11   22.17</time>
   <energy>
    <i name="alphaZ">     90.38202831 </i>
    <i name="ewald">  44746.62324178 </i>
    <i name="hartreedc"> -50757.98416867 </i>
    <i name="XCdc">   -233.32039024 </i>
    <i name="pawpsdc">   4084.15768570 </i>
    <i name="pawaedc">  -3500.08946505 </i>
    <i name="eentropy">     -0.19482266 </i>
    <i name="bandstr">  -1382.46927951 </i>
    <i name="atom">   6761.44252427 </i>
    <i name="e_fr_energy">   -191.45264607 </i>
    <i name="e_wo_entrp">   -191.25782341 </i>
    <i name="e_0_energy">   -191.35523474 </i>
   </energy>
  </scstep>
  <scstep>
   <time name="dav">   30.89   30.96</time>
   <time name="total">   31.39   31.48</time>
   <energy>
    <i name="e_fr_energy">   -191.52178162 </i>
    <i name="e_wo_entrp">   -191.31702468 </i>
    <i name="e_0_energy">   -191.41940315 </i>
   </energy>
  </scstep>
  <scstep>
   <time name="dav">   30.66   30.74</time>
   <time name="total">   31.17   31.26</time>
   <energy>
    <i name="e_fr_energy">   -191.46583476 </i>
    <i name="e_wo_entrp">   -191.26984941 </i>
    <i name="e_0_energy">   -191.36784209 </i>
   </energy>
  </scstep>
  <scstep>
   <time name="dav">   27.40   27.47</time>
   <time name="total">   27.91   27.98</time>
   <energy>
    <i name="e_fr_energy">   -191.46327755 </i>
    <i name="e_wo_entrp">   -191.26671247 </i>
    <i name="e_0_energy">   -191.36499501 </i>
   </energy>
  </scstep>
  <scstep>
   <time name="dav">   27.93   28.00</time>
   <time name="total">   28.44   28.52</time>
   <energy>
    <i name="e_fr_energy">   -191.46299774 </i>
    <i name="e_wo_entrp">   -191.26559166 </i>
    <i name="e_0_energy">   -191.36429470 </i>
   </energy>
  </scstep>
  <scstep>
   <time name="dav">   28.75   28.81</time>
   <time name="total">   29.25   29.33</time>
   <energy>
    <i name="e_fr_energy">   -191.46190147 </i>
    <i name="e_wo_entrp">   -191.26470445 </i>
    <i name="e_0_energy">   -191.36330296 </i>
   </energy>
  </scstep>
  <scstep>
   <time name="dav">   28.50   28.57</time>
   <time name="total">   29.01   29.09</time>
   <energy>
    <i name="e_fr_energy">   -191.46134548 </i>
    <i name="e_wo_entrp">   -191.26393011 </i>
    <i name="e_0_energy">   -191.36263779 </i>
   </energy>
  </scstep>
  <scstep>
   <time name="dav">   23.38   23.44</time>
   <time name="total">   23.42   23.48</time>
   <energy>
    <i name="alphaZ">     90.38202831 </i>
    <i name="ewald">  44746.62324178 </i>
    <i name="hartreedc"> -50757.83802719 </i>
    <i name="XCdc">   -233.34994073 </i>
    <i name="pawpsdc">   4084.56038197 </i>
    <i name="pawaedc">  -3500.48086814 </i>
    <i name="eentropy">     -0.19731218 </i>
    <i name="bandstr">  -1382.60337171 </i>
    <i name="atom">   6761.44252427 </i>
    <i name="e_fr_energy">   -191.46134363 </i>
    <i name="e_wo_entrp">   -191.26403145 </i>
    <i name="e_0_energy">   -191.36268754 </i>
   </energy>
  </scstep>
  <structure>
   <crystal>
    <varray name="basis" >
     <v>       8.26874684       4.76486636       0.00000000 </v>
     <v>      -8.27696714       4.77909618       0.00000000 </v>
     <v>       0.00000000       0.00000000      30.00000000 </v>
    </varray>
    <i name="volume">   2368.67336281 </i>
    <varray name="rec_basis" >
     <v>       0.06052877       0.10483042       0.00000000 </v>
     <v>      -0.06034854       0.10472630       0.00000000 </v>
     <v>       0.00000000       0.00000000       0.03333333 </v>
    </varray>
   </crystal>
   <varray name="positions" >
    <v>       0.99995321       0.34377339      -0.00000318 </v>
    <v>       0.34140603       0.34083513      -0.00036174 </v>
    <v>       0.65866798      -0.00063158       0.00036500 </v>
    <v>       0.67414730       0.34745409      -0.00018594 </v>
    <v>       0.32558186       0.67326550       0.00017448 </v>
    <v>       0.00021265       0.66774279      -0.00000130 </v>
    <v>      -0.00019850      -0.01208278       0.00000919 </v>
    <v>       0.32703730      -0.01485842      -0.00009507 </v>
    <v>       0.67273152       0.65813343       0.00009353 </v>
    <v>       0.11275312       0.22616309       0.95183953 </v>
    <v>       0.22551368       0.11586131       0.05046312 </v>
    <v>       0.10740933       0.54878420       0.94734620 </v>
    <v>       0.21867601       0.43898362       0.04990651 </v>
    <v>       0.11192969       0.88836303       0.94591137 </v>
    <v>       0.22117089       0.77806685       0.05457709 </v>
    <v>       0.44111147       0.22318662       0.94989824 </v>
    <v>       0.55753243       0.10910352       0.05043128 </v>
    <v>       0.44229016       0.55151957       0.94957035 </v>
    <v>       0.54960552       0.44194865       0.05282628 </v>
    <v>       0.45025170       0.89231716       0.94717008 </v>
    <v>       0.55868898       0.78197639       0.05010408 </v>
    <v>       0.78114097       0.22018172       0.95008747 </v>
    <v>       0.88708245       0.11334291       0.04817792 </v>
    <v>       0.77876186       0.55691155       0.94547753 </v>
    <v>       0.89246982       0.44132288       0.05262541 </v>
    <v>       0.77434727       0.89030491       0.94950759 </v>
    <v>       0.88793976       0.77624492       0.05408487 </v>
   </varray>
  </structure>
  <varray name="forces" >
   <v>      -0.25245461       0.13483185      -0.00030938 </v>
   <v>      -0.01999913       0.32747851      -0.03586606 </v>
   <v>      -0.29836255      -0.15054685       0.04068055 </v>
   <v>      -0.17713360       0.35822319       0.00140064 </v>
   <v>      -0.40177274      -0.01330877      -0.00019999 </v>
   <v>      -0.14737572       0.07818226       0.00174823 </v>
   <v>       0.38590477      -0.23500131       0.00054734 </v>
   <v>       0.19619223      -0.45272373       0.02627972 </v>
   <v>       0.49390166       0.07329199      -0.02061716 </v>
   <v>       0.05220562      -0.06316715       0.23180471 </v>
   <v>       0.08619918      -0.04503225      -0.09142454 </v>
   <v>      -0.06525495       0.03689706      -0.10113684 </v>
   <v>      -0.04816293       0.06596766      -0.02679377 </v>
   <v>       0.06914539      -0.01363328      -0.23961026 </v>
   <v>      -0.02488225      -0.10698684       0.24453955 </v>
   <v>       0.15604720      -0.03394174       0.20654393 </v>
   <v>      -0.15464712       0.00676635      -0.13203904 </v>
   <v>      -0.08729532       0.13784455       0.11933498 </v>
   <v>       0.01812937       0.04807547       0.18039034 </v>
   <v>      -0.02563736      -0.03729325      -0.17455670 </v>
   <v>       0.10338086      -0.11313511      -0.21183593 </v>
   <v>      -0.07789634       0.00779791       0.03068334 </v>
   <v>       0.07747460      -0.01540236      -0.23313064 </v>
   <v>       0.08320696       0.07557731      -0.24745751 </v>
   <v>      -0.06436927       0.03822302       0.10147164 </v>
   <v>       0.07858442      -0.05679992       0.09010829 </v>
   <v>       0.04487163      -0.05218456       0.23944454 </v>
  </varray>
  <varray name="stress" >
   <v>       0.29345867      -0.10698745      -0.15653142 </v>
   <v>      -0.10698734       0.18594994      -0.24866466 </v>
   <v>      -0.15653139      -0.24866490      -0.94034671 </v>
  </varray>
  <energy>
   <i name="e_fr_energy">   -191.46134363 </i>
   <i name="e_wo_entrp">   -191.36268754 </i>
   <i name="e_0_energy">     -0.19731218 </i>
  </energy>
  <time name="totalsc">  264.49  265.19</time>
 </calculation>
 <calculation>
  <scstep>
   <time name="dav">   21.61   21.66</time>
   <time name="total">   22.12   22.17</time>
   <energy>
    <i name="alphaZ">     90.32568228 </i>
    <i name="ewald">  44722.50101003 </i>
    <i name="hartreedc"> -50733.03029874 </i>
    <i name="XCdc">   -233.38281817 </i>
    <i name="pawpsdc">   4084.58549637 </i>
    <i name="pawaedc">  -3500.50654999 </i>
    <i name="eentropy">     -0.19757499 </i>
    <i name="bandstr">  -1383.21757638 </i>
    <i name="atom">   6761.44252427 </i>
    <i name="e_fr_energy">   -191.48010532 </i>
    <i name="e_wo_entrp">   -191.28253032 </i>
    <i name="e_0_energy">   -191.38131782 </i>
   </energy>
  </scstep>
  <scstep>
   <time name="dav">   31.11   31.19</time>
   <time name="total">   31.62   31.70</time>
   <energy>
    <i name="e_fr_energy">   -191.48345393 </i>
    <i name="e_wo_entrp">   -191.28356563 </i>
    <i name="e_0_energy">   -191.38350978 </i>
   </energy>
  </scstep>
  <scstep>
   <time name="dav">   28.92   28.99</time>
   <time name="total">   29.43   29.51</time>
   <energy>
    <i name="e_fr_energy">   -191.48044139 </i>
    <i name="e_wo_entrp">   -191.28256314 </i>
    <i name="e_0_energy">   -191.38150226 </i>
   </energy>
  </scstep>
  <scstep>
   <time name="dav">   23.49   23.55</time>
   <time name="total">   24.00   24.06</time>
   <energy>
    <i name="e_fr_energy">   -191.48057283 </i>
    <i name="e_wo_entrp">   -191.28270634 </i>
    <i name="e_0_energy">   -191.38163958 </i>
   </energy>
  </scstep>
  <scstep>
   <time name="dav">   22.79   22.84</time>
   <time name="total">   23.30   23.36</time>
   <energy>
    <i name="e_fr_energy">   -191.48038192 </i>
    <i name="e_wo_entrp">   -191.28231241 </i>
    <i name="e_0_energy">   -191.38134717 </i>
   </energy>
  </scstep>
  <scstep>
   <time name="dav">   17.42   17.46</time>
   <time name="total">   17.46   17.51</time>
   <energy>
    <i name="alphaZ">     90.32568228 </i>
    <i name="ewald">  44722.50101003 </i>
    <i name="hartreedc"> -50733.94157939 </i>
    <i name="XCdc">   -233.35734717 </i>
    <i name="pawpsdc">   4085.09978780 </i>
    <i name="pawaedc">  -3501.02629463 </i>
    <i name="eentropy">     -0.19805951 </i>
    <i name="bandstr">  -1382.32608029 </i>
    <i name="atom">   6761.44252427 </i>
    <i name="e_fr_energy">   -191.48035660 </i>
    <i name="e_wo_entrp">   -191.28229709 </i>
    <i name="e_0_energy">   -191.38132685 </i>
   </energy>
  </scstep>
  <structure>
   <crystal>
    <varray name="basis" >
     <v>       8.27129733       4.76579562       0.00000000 </v>
     <v>      -8.28001686       4.78089016       0.00000000 </v>
     <v>       0.00000000       0.00000000      30.00000000 </v>
    </varray>
    <i name="volume">   2370.15096399 </i>
    <varray name="rec_basis" >
     <v>       0.06051374       0.10480366       0.00000000 </v>
     <v>      -0.06032268       0.10469330       0.00000000 </v>
     <v>       0.00000000       0.00000000       0.03333333 </v>
    </varray>
   </crystal>
   <varray name="positions" >
    <v>       0.99994093       0.34402511      -0.00000334 </v>
    <v>       0.34169789       0.34116368      -0.00037110 </v>
    <v>       0.65836736      -0.00059614       0.00037616 </v>
    <v>       0.67439177       0.34786656      -0.00018617 </v>
    <v>       0.32535133       0.67345126       0.00017515 </v>
    <v>       0.00020401       0.66789585      -0.00000073 </v>
    <v>      -0.00021116      -0.01250392       0.00000948 </v>
    <v>       0.32671646      -0.01538079      -0.00008714 </v>
    <v>       0.67307572       0.65794930       0.00008775 </v>
    <v>       0.11271607       0.22605671       0.95193176 </v>
    <v>       0.22550690       0.11575145       0.05041303 </v>
    <v>       0.10741602       0.54887497       0.94734344 </v>
    <v>       0.21872628       0.43908650       0.04987447 </v>
    <v>       0.11195626       0.88832036       0.94586377 </v>
    <v>       0.22105228       0.77797602       0.05462294 </v>
    <v>       0.44116883       0.22305239       0.94998694 </v>
    <v>       0.55743534       0.10919508       0.05036726 </v>
    <v>       0.44239374       0.55172046       0.94962967 </v>
    <v>       0.54968006       0.44200037       0.05285476 </v>
    <v>       0.45018443       0.89229262       0.94714351 </v>
    <v>       0.55863390       0.78179125       0.05001374 </v>
    <v>       0.78109222       0.22023288       0.95012067 </v>
    <v>       0.88711382       0.11327172       0.04808532 </v>
    <v>       0.77888229       0.55693761       0.94543027 </v>
    <v>       0.89246381       0.44140592       0.05262825 </v>
    <v>       0.77434515       0.89019953       0.94955765 </v>
    <v>       0.88791273       0.77617771       0.05413237 </v>
   </varray>
  </structure>
  <varray name="forces" >
   <v>      -0.25191526       0.14042745      -0.00082406 </v>
[...]
      <set comment="kpoint 31">
       <r>  -17.5987    1.0000 </r>
       <r>  -17.2187    1.0000 </r>
       <r>  -16.9446    1.0000 </r>
       <r>  -16.7394    1.0000 </r>
       <r>  -16.5192    1.0000 </r>
       <r>  -16.4367    1.0000 </r>
       <r>  -16.3520    1.0000 </r>
       <r>  -16.2493    1.0000 </r>
       <r>  -16.1005    1.0000 </r>
       <r>  -15.9862    1.0000 </r>
       <r>  -15.9678    1.0000 </r>
       <r>  -15.8566    1.0000 </r>
       <r>  -15.7458    1.0000 </r>
       <r>  -15.6585    1.0000 </r>
       <r>  -15.6201    1.0000 </r>
       <r>  -15.5286    1.0000 </r>
       <r>  -15.2761    1.0000 </r>
       <r>  -15.1934    1.0000 </r>
       <r>   -9.7556    1.0000 </r>
       <r>   -9.4724    1.0000 </r>
       <r>   -9.3984    1.0000 </r>
       <r>   -9.1318    1.0000 </r>
       <r>   -8.9219    1.0000 </r>
       <r>   -8.7066    1.0000 </r>
       <r>   -8.5201    1.0000 </r>
       <r>   -8.4608    1.0000 </r>
       <r>   -8.3867    1.0000 </r>
       <r>   -8.3317    1.0000 </r>
       <r>   -8.2745    1.0000 </r>
       <r>   -8.2417    1.0000 </r>
       <r>   -8.1493    1.0000 </r>
       <r>   -8.1093    1.0000 </r>
       <r>   -8.0239    1.0000 </r>
       <r>   -7.8681    1.0000 </r>
       <r>   -7.7903    1.0000 </r>
       <r>   -7.6878    1.0000 </r>
       <r>   -7.6628    1.0000 </r>
       <r>   -7.4326    1.0000 </r>
       <r>   -7.2985    1.0000 </r>
       <r>   -7.2420    1.0000 </r>
       <r>   -7.1526    1.0000 </r>
       <r>   -7.0882    1.0000 </r>
       <r>   -7.0394    1.0000 </r>
       <r>   -6.9177    1.0000 </r>
       <r>   -6.8136    1.0000 </r>
       <r>   -6.7720    1.0000 </r>
       <r>   -6.6419    1.0000 </r>
       <r>   -6.5899    1.0000 </r>
       <r>   -6.5015    1.0000 </r>
       <r>   -6.4434    1.0000 </r>
       <r>   -6.4182    1.0000 </r>
       <r>   -6.3478    1.0000 </r>
       <r>   -6.2606    1.0000 </r>
       <r>   -6.2009    1.0000 </r>
       <r>   -6.1398    1.0000 </r>
       <r>   -6.0764    1.0000 </r>
       <r>   -5.9877    1.0000 </r>
       <r>   -5.9058    1.0000 </r>
       <r>   -5.8597    1.0000 </r>
       <r>   -5.7268    1.0000 </r>
       <r>   -5.7002    1.0000 </r>
       <r>   -5.5983    1.0000 </r>
       <r>   -5.4967    1.0000 </r>
       <r>   -5.4036    1.0000 </r>
       <r>   -5.3023    1.0000 </r>
       <r>   -5.2209    1.0000 </r>
       <r>   -5.0965    1.0000 </r>
       <r>   -4.8219    1.0000 </r>
       <r>   -4.7819    1.0000 </r>
       <r>   -4.6091    1.0000 </r>
       <r>   -4.5927    1.0000 </r>
       <r>   -4.4452    1.0000 </r>
       <r>   -4.3135    1.0000 </r>
       <r>   -4.1971    1.0000 </r>
       <r>   -4.1398    1.0000 </r>
       <r>   -4.1005    1.0000 </r>
       <r>   -3.9993    1.0000 </r>
       <r>   -3.7020    0.9994 </r>
       <r>   -3.5770    0.9909 </r>
       <r>   -3.1253    0.2021 </r>
       <r>   -2.9590    0.0222 </r>
       <r>   -2.7716    0.0004 </r>
       <r>   -2.6927    0.0000 </r>
       <r>   -2.5890    0.0000 </r>
       <r>   -2.4588    0.0000 </r>
       <r>   -2.3640    0.0000 </r>
       <r>   -2.1669    0.0000 </r>
       <r>   -2.0852    0.0000 </r>
       <r>   -2.0628    0.0000 </r>
       <r>   -1.9139    0.0000 </r>
       <r>   -1.7527    0.0000 </r>
       <r>   -1.5485    0.0000 </r>
       <r>   -1.4310    0.0000 </r>
       <r>   -1.3587    0.0000 </r>
       <r>   -1.2887    0.0000 </r>
       <r>   -1.1461    0.0000 </r>
       <r>   -1.0901    0.0000 </r>
       <r>   -1.0430    0.0000 </r>
       <r>   -0.9394    0.0000 </r>
       <r>   -0.8614    0.0000 </r>
       <r>   -0.8232    0.0000 </r>
       <r>   -0.7276    0.0000 </r>
       <r>   -0.6639    0.0000 </r>
       <r>   -0.5970    0.0000 </r>
       <r>   -0.4235    0.0000 </r>
       <r>   -0.2266    0.0000 </r>
       <r>   -0.1597    0.0000 </r>
       <r>   -0.0281    0.0000 </r>
       <r>   -0.0042    0.0000 </r>
       <r>    0.2696    0.0000 </r>
       <r>    0.4082    0.0000 </r>
       <r>    0.6055    0.0000 </r>
       <r>    0.7173    0.0000 </r>
       <r>    0.8787    0.0000 </r>
       <r>    0.9608    0.0000 </r>
       <r>    1.2527    0.0000 </r>
       <r>    1.3721    0.0000 </r>
       <r>    2.1144    0.0000 </r>
       <r>    2.3098    0.0000 </r>
       <r>    2.3781    0.0000 </r>
      </set>
      <set comment="kpoint 32">
       <r>  -17.5957    1.0000 </r>
       <r>  -17.1366    1.0000 </r>
       <r>  -17.0865    1.0000 </r>
       <r>  -16.7332    1.0000 </r>
       <r>  -16.4741    1.0000 </r>
       <r>  -16.3921    1.0000 </r>
       <r>  -16.2953    1.0000 </r>
       <r>  -16.2518    1.0000 </r>
       <r>  -16.1859    1.0000 </r>
       <r>  -16.0350    1.0000 </r>
       <r>  -15.9678    1.0000 </r>
       <r>  -15.8693    1.0000 </r>
       <r>  -15.7373    1.0000 </r>
       <r>  -15.6540    1.0000 </r>
       <r>  -15.5903    1.0000 </r>
       <r>  -15.4735    1.0000 </r>
       <r>  -15.3160    1.0000 </r>
       <r>  -15.1960    1.0000 </r>
       <r>   -9.6668    1.0000 </r>
       <r>   -9.6208    1.0000 </r>
       <r>   -9.4737    1.0000 </r>
       <r>   -9.0975    1.0000 </r>
       <r>   -8.7617    1.0000 </r>
       <r>   -8.5412    1.0000 </r>
       <r>   -8.5236    1.0000 </r>
       <r>   -8.4754    1.0000 </r>
       <r>   -8.4182    1.0000 </r>
       <r>   -8.3685    1.0000 </r>
       <r>   -8.3234    1.0000 </r>
       <r>   -8.2451    1.0000 </r>
       <r>   -8.1609    1.0000 </r>
       <r>   -8.1285    1.0000 </r>
       <r>   -8.0110    1.0000 </r>
       <r>   -7.9255    1.0000 </r>
       <r>   -7.8325    1.0000 </r>
       <r>   -7.7410    1.0000 </r>
       <r>   -7.5787    1.0000 </r>
       <r>   -7.4858    1.0000 </r>
       <r>   -7.3372    1.0000 </r>
       <r>   -7.2619    1.0000 </r>
       <r>   -7.1132    1.0000 </r>
       <r>   -7.0815    1.0000 </r>
       <r>   -7.0343    1.0000 </r>
       <r>   -6.9239    1.0000 </r>
       <r>   -6.8885    1.0000 </r>
       <r>   -6.7966    1.0000 </r>
       <r>   -6.6617    1.0000 </r>
       <r>   -6.5673    1.0000 </r>
       <r>   -6.4819    1.0000 </r>
       <r>   -6.4383    1.0000 </r>
       <r>   -6.3541    1.0000 </r>
       <r>   -6.3171    1.0000 </r>
       <r>   -6.2982    1.0000 </r>
       <r>   -6.2098    1.0000 </r>
       <r>   -6.1287    1.0000 </r>
       <r>   -6.0390    1.0000 </r>
       <r>   -5.9804    1.0000 </r>
       <r>   -5.8669    1.0000 </r>
       <r>   -5.8385    1.0000 </r>
       <r>   -5.6980    1.0000 </r>
       <r>   -5.6376    1.0000 </r>
       <r>   -5.5944    1.0000 </r>
       <r>   -5.4671    1.0000 </r>
       <r>   -5.4058    1.0000 </r>
       <r>   -5.3508    1.0000 </r>
       <r>   -5.1944    1.0000 </r>
       <r>   -5.1524    1.0000 </r>
       <r>   -4.8494    1.0000 </r>
       <r>   -4.7541    1.0000 </r>
       <r>   -4.6831    1.0000 </r>
       <r>   -4.5123    1.0000 </r>
       <r>   -4.4506    1.0000 </r>
       <r>   -4.3583    1.0000 </r>
       <r>   -4.2592    1.0000 </r>
       <r>   -4.1524    1.0000 </r>
       <r>   -4.0350    1.0000 </r>
       <r>   -3.9635    1.0000 </r>
       <r>   -3.6737    0.9988 </r>
       <r>   -3.5414    0.9825 </r>
       <r>   -3.2146    0.4196 </r>
       <r>   -2.8743    0.0045 </r>
       <r>   -2.7983    0.0008 </r>
       <r>   -2.7693    0.0004 </r>
       <r>   -2.5717    0.0000 </r>
       <r>   -2.5047    0.0000 </r>
       <r>   -2.4162    0.0000 </r>
       <r>   -2.2008    0.0000 </r>
       <r>   -2.1366    0.0000 </r>
       <r>   -2.0425    0.0000 </r>
       <r>   -1.9865    0.0000 </r>
       <r>   -1.7693    0.0000 </r>
       <r>   -1.4547    0.0000 </r>
       <r>   -1.3814    0.0000 </r>
       <r>   -1.3163    0.0000 </r>
       <r>   -1.2258    0.0000 </r>
       <r>   -1.1720    0.0000 </r>
       <r>   -1.0816    0.0000 </r>
       <r>   -1.0198    0.0000 </r>
       <r>   -0.9315    0.0000 </r>
       <r>   -0.8539    0.0000 </r>
       <r>   -0.8165    0.0000 </r>
       <r>   -0.7268    0.0000 </r>
       <r>   -0.6603    0.0000 </r>
       <r>   -0.6216    0.0000 </r>
       <r>   -0.4335    0.0000 </r>
       <r>   -0.2560    0.0000 </r>
       <r>   -0.1898    0.0000 </r>
       <r>   -0.0875    0.0000 </r>
       <r>    0.0053    0.0000 </r>
       <r>    0.3131    0.0000 </r>
       <r>    0.3812    0.0000 </r>
       <r>    0.5841    0.0000 </r>
       <r>    0.6448    0.0000 </r>
       <r>    0.9181    0.0000 </r>
       <r>    1.0208    0.0000 </r>
       <r>    1.2643    0.0000 </r>
       <r>    1.4169    0.0000 </r>
       <r>    2.0961    0.0000 </r>
       <r>    2.2763    0.0000 </r>
       <r>    2.5705    0.0000 </r>
      </set>
      <set comment="kpoint 33">
       <r>  -17.5722    1.0000 </r>
       <r>  -17.2730    1.0000 </r>
       <r>  -16.9226    1.0000 </r>
       <r>  -16.7252    1.0000 </r>
       <r>  -16.5088    1.0000 </r>
       <r>  -16.4679    1.0000 </r>
       <r>  -16.3371    1.0000 </r>
       <r>  -16.2081    1.0000 </r>
       <r>  -16.1691    1.0000 </r>
       <r>  -16.0554    1.0000 </r>
       <r>  -15.9319    1.0000 </r>
       <r>  -15.8642    1.0000 </r>
       <r>  -15.7366    1.0000 </r>
       <r>  -15.6438    1.0000 </r>
       <r>  -15.5680    1.0000 </r>
       <r>  -15.4383    1.0000 </r>
       <r>  -15.3350    1.0000 </r>
       <r>  -15.2325    1.0000 </r>
       <r>   -9.7859    1.0000 </r>
       <r>   -9.4906    1.0000 </r>
       <r>   -9.3965    1.0000 </r>
       <r>   -9.0741    1.0000 </r>
       <r>   -8.8413    1.0000 </r>
       <r>   -8.6815    1.0000 </r>
       <r>   -8.5736    1.0000 </r>
       <r>   -8.5531    1.0000 </r>
       <r>   -8.4623    1.0000 </r>
       <r>   -8.3184    1.0000 </r>
       <r>   -8.2830    1.0000 </r>
       <r>   -8.1943    1.0000 </r>
       <r>   -8.1030    1.0000 </r>
       <r>   -8.0587    1.0000 </r>
       <r>   -7.9745    1.0000 </r>
       <r>   -7.9060    1.0000 </r>
       <r>   -7.8421    1.0000 </r>
       <r>   -7.7265    1.0000 </r>
       <r>   -7.5905    1.0000 </r>
       <r>   -7.4761    1.0000 </r>
       <r>   -7.3537    1.0000 </r>
       <r>   -7.2256    1.0000 </r>
       <r>   -7.1538    1.0000 </r>
       <r>   -7.0823    1.0000 </r>
       <r>   -7.0405    1.0000 </r>
       <r>   -6.9329    1.0000 </r>
       <r>   -6.8778    1.0000 </r>
       <r>   -6.7771    1.0000 </r>
       <r>   -6.6509    1.0000 </r>
       <r>   -6.5960    1.0000 </r>
       <r>   -6.5429    1.0000 </r>
       <r>   -6.4167    1.0000 </r>
       <r>   -6.3792    1.0000 </r>
       <r>   -6.3365    1.0000 </r>
       <r>   -6.2804    1.0000 </r>
       <r>   -6.2022    1.0000 </r>
       <r>   -6.1175    1.0000 </r>
       <r>   -6.0431    1.0000 </r>
       <r>   -5.9826    1.0000 </r>
       <r>   -5.9704    1.0000 </r>
       <r>   -5.8253    1.0000 </r>
       <r>   -5.7189    1.0000 </r>
       <r>   -5.6498    1.0000 </r>
       <r>   -5.5644    1.0000 </r>
       <r>   -5.4901    1.0000 </r>
       <r>   -5.3530    1.0000 </r>
       <r>   -5.2615    1.0000 </r>
       <r>   -5.2114    1.0000 </r>
       <r>   -4.9601    1.0000 </r>
       <r>   -4.8869    1.0000 </r>
       <r>   -4.8252    1.0000 </r>
       <r>   -4.6961    1.0000 </r>
       <r>   -4.5317    1.0000 </r>
       <r>   -4.4400    1.0000 </r>
       <r>   -4.3619    1.0000 </r>
       <r>   -4.2549    1.0000 </r>
       <r>   -4.1421    1.0000 </r>
       <r>   -3.9511    1.0000 </r>
       <r>   -3.9190    1.0000 </r>
       <r>   -3.7124    0.9995 </r>
       <r>   -3.5833    0.9919 </r>
       <r>   -3.2434    0.5003 </r>
       <r>   -2.9074    0.0088 </r>
       <r>   -2.8289    0.0017 </r>
       <r>   -2.7607    0.0003 </r>
       <r>   -2.5897    0.0000 </r>
       <r>   -2.5517    0.0000 </r>
       <r>   -2.4359    0.0000 </r>
       <r>   -2.2508    0.0000 </r>
       <r>   -2.1923    0.0000 </r>
       <r>   -2.0471    0.0000 </r>
       <r>   -1.9558    0.0000 </r>
       <r>   -1.7774    0.0000 </r>
       <r>   -1.3862    0.0000 </r>
       <r>   -1.3194    0.0000 </r>
       <r>   -1.2831    0.0000 </r>
       <r>   -1.2093    0.0000 </r>
       <r>   -1.1568    0.0000 </r>
       <r>   -1.0901    0.0000 </r>
       <r>   -0.9861    0.0000 </r>
       <r>   -0.9162    0.0000 </r>
       <r>   -0.8542    0.0000 </r>
       <r>   -0.8484    0.0000 </r>
       <r>   -0.7551    0.0000 </r>
       <r>   -0.6559    0.0000 </r>
       <r>   -0.5653    0.0000 </r>
       <r>   -0.4361    0.0000 </r>
       <r>   -0.3259    0.0000 </r>
       <r>   -0.3085    0.0000 </r>
       <r>   -0.0991    0.0000 </r>
       <r>   -0.0125    0.0000 </r>
       <r>    0.2722    0.0000 </r>
       <r>    0.4131    0.0000 </r>
       <r>    0.5502    0.0000 </r>
       <r>    0.6781    0.0000 </r>
       <r>    0.9713    0.0000 </r>
       <r>    1.1070    0.0000 </r>
       <r>    1.2187    0.0000 </r>
       <r>    1.5445    0.0000 </r>
       <r>    2.1360    0.0000 </r>
       <r>    2.3054    0.0000 </r>
       <r>    2.4009    0.0000 </r>
      </set>
      <set comment="kpoint 34">
       <r>  -17.5510    1.0000 </r>
       <r>  -17.3352    1.0000 </r>
       <r>  -16.7787    1.0000 </r>
       <r>  -16.7127    1.0000 </r>
       <r>  -16.6440    1.0000 </r>
       <r>  -16.5037    1.0000 </r>
       <r>  -16.3287    1.0000 </r>
       <r>  -16.2013    1.0000 </r>
       <r>  -16.1630    1.0000 </r>
       <r>  -16.0479    1.0000 </r>
       <r>  -15.8943    1.0000 </r>
       <r>  -15.8719    1.0000 </r>
       <r>  -15.7410    1.0000 </r>
       <r>  -15.6347    1.0000 </r>
       <r>  -15.5551    1.0000 </r>
       <r>  -15.4350    1.0000 </r>
       <r>  -15.3241    1.0000 </r>
       <r>  -15.2672    1.0000 </r>
       <r>   -9.8316    1.0000 </r>
       <r>   -9.4314    1.0000 </r>
       <r>   -9.2294    1.0000 </r>
       <r>   -9.1427    1.0000 </r>
       <r>   -8.9303    1.0000 </r>
       <r>   -8.8094    1.0000 </r>
       <r>   -8.6160    1.0000 </r>
       <r>   -8.5659    1.0000 </r>
       <r>   -8.4775    1.0000 </r>
       <r>   -8.2761    1.0000 </r>
       <r>   -8.2582    1.0000 </r>
       <r>   -8.1660    1.0000 </r>
       <r>   -8.1193    1.0000 </r>
       <r>   -8.0184    1.0000 </r>
       <r>   -7.9738    1.0000 </r>
       <r>   -7.8753    1.0000 </r>
       <r>   -7.7246    1.0000 </r>
       <r>   -7.7023    1.0000 </r>
       <r>   -7.6301    1.0000 </r>
       <r>   -7.4728    1.0000 </r>
       <r>   -7.3686    1.0000 </r>
       <r>   -7.3154    1.0000 </r>
       <r>   -7.1952    1.0000 </r>
       <r>   -7.0528    1.0000 </r>
       <r>   -7.0043    1.0000 </r>
       <r>   -6.9261    1.0000 </r>
       <r>   -6.7662    1.0000 </r>
       <r>   -6.7269    1.0000 </r>
       <r>   -6.6265    1.0000 </r>
       <r>   -6.6189    1.0000 </r>
       <r>   -6.5529    1.0000 </r>
       <r>   -6.4989    1.0000 </r>
       <r>   -6.4256    1.0000 </r>
       <r>   -6.3583    1.0000 </r>
       <r>   -6.3383    1.0000 </r>
       <r>   -6.2430    1.0000 </r>
       <r>   -6.1612    1.0000 </r>
       <r>   -6.0431    1.0000 </r>
       <r>   -6.0176    1.0000 </r>
       <r>   -5.8346    1.0000 </r>
       <r>   -5.8070    1.0000 </r>
       <r>   -5.7242    1.0000 </r>
       <r>   -5.7191    1.0000 </r>
       <r>   -5.5458    1.0000 </r>
       <r>   -5.5218    1.0000 </r>
       <r>   -5.3787    1.0000 </r>
       <r>   -5.1745    1.0000 </r>
       <r>   -5.0679    1.0000 </r>
       <r>   -5.0079    1.0000 </r>
       <r>   -4.9609    1.0000 </r>
       <r>   -4.8204    1.0000 </r>
       <r>   -4.6429    1.0000 </r>
       <r>   -4.5522    1.0000 </r>
       <r>   -4.4157    1.0000 </r>
       <r>   -4.3329    1.0000 </r>
       <r>   -4.2702    1.0000 </r>
       <r>   -4.1470    1.0000 </r>
       <r>   -3.9467    1.0000 </r>
       <r>   -3.8655    1.0000 </r>
       <r>   -3.7527    0.9998 </r>
       <r>   -3.6211    0.9962 </r>
       <r>   -3.2302    0.4633 </r>
       <r>   -2.9563    0.0212 </r>
       <r>   -2.8416    0.0023 </r>
       <r>   -2.7390    0.0002 </r>
       <r>   -2.6146    0.0000 </r>
       <r>   -2.5597    0.0000 </r>
       <r>   -2.4357    0.0000 </r>
       <r>   -2.2883    0.0000 </r>
       <r>   -2.1976    0.0000 </r>
       <r>   -2.0490    0.0000 </r>
       <r>   -1.9321    0.0000 </r>
       <r>   -1.7778    0.0000 </r>
       <r>   -1.3559    0.0000 </r>
       <r>   -1.3091    0.0000 </r>
       <r>   -1.2620    0.0000 </r>
       <r>   -1.2131    0.0000 </r>
       <r>   -1.1350    0.0000 </r>
       <r>   -1.1004    0.0000 </r>
       <r>   -0.9634    0.0000 </r>
       <r>   -0.9547    0.0000 </r>
       <r>   -0.8484    0.0000 </r>
       <r>   -0.8277    0.0000 </r>
       <r>   -0.7877    0.0000 </r>
       <r>   -0.6146    0.0000 </r>
       <r>   -0.5214    0.0000 </r>
       <r>   -0.4586    0.0000 </r>
       <r>   -0.3962    0.0000 </r>
       <r>   -0.3504    0.0000 </r>
       <r>   -0.1235    0.0000 </r>
       <r>   -0.0090    0.0000 </r>
       <r>    0.2469    0.0000 </r>
       <r>    0.4071    0.0000 </r>
       <r>    0.5852    0.0000 </r>
       <r>    0.6848    0.0000 </r>
       <r>    0.9994    0.0000 </r>
       <r>    1.1489    0.0000 </r>
       <r>    1.2023    0.0000 </r>
       <r>    1.6045    0.0000 </r>
       <r>    2.2313    0.0000 </r>
       <r>    2.2423    0.0000 </r>
       <r>    2.3921    0.0000 </r>
      </set>
     </set>
    </set>
   </array>
  </eigenvalues>
  <separator name="orbital magnetization" >
   <v name="MAGDIPOLOUT">      0.00000000      0.00000000      0.00000000</v>
  </separator>
 </calculation>
 <structure name="finalpos" >
  <crystal>
   <varray name="basis" >
    <v>       8.30822060       4.78564723       0.00000000 </v>
    <v>      -8.33326185       4.82929093       0.00000000 </v>
    <v>       0.00000000       0.00000000      30.00000000 </v>
   </varray>
   <i name="volume">   2400.08597333 </i>
   <varray name="rec_basis" >
    <v>       0.06036397       0.10416204       0.00000000 </v>
    <v>      -0.05981845       0.10384904       0.00000000 </v>
    <v>       0.00000000       0.00000000       0.03333333 </v>
   </varray>
  </crystal>
  <varray name="positions" >
   <v>       1.01073089       0.36425973       0.00112293 </v>
   <v>       0.35726736       0.37251504       0.00285349 </v>
   <v>       0.64144840      -0.03610559      -0.00271917 </v>
   <v>       0.68786614       0.37082332       0.00173835 </v>
   <v>       0.31628043       0.67228112       0.00007711 </v>
   <v>       0.00090184       0.66857487       0.00007006 </v>
   <v>      -0.01155410      -0.03441007      -0.00124176 </v>
   <v>       0.31257781      -0.03628989      -0.00170486 </v>
   <v>       0.68522036       0.66384188      -0.00007710 </v>
   <v>       0.11543553       0.22489701       0.95811391 </v>
   <v>       0.22566875       0.11491176       0.04550348 </v>
   <v>       0.10710408       0.55107225       0.94569279 </v>
   <v>       0.21893441       0.44364752       0.05282434 </v>
   <v>       0.10995623       0.88498573       0.94276758 </v>
   <v>       0.21754629       0.77442920       0.05640770 </v>
   <v>       0.44127705       0.22317638       0.95693330 </v>
   <v>       0.55683663       0.10972433       0.04329133 </v>
   <v>       0.44765882       0.56043312       0.95016544 </v>
   <v>       0.55786548       0.45112010       0.05589978 </v>
   <v>       0.44174321       0.88539693       0.94384236 </v>
   <v>       0.55338250       0.77436484       0.04987612 </v>
   <v>       0.77816337       0.21991162       0.95554171 </v>
   <v>       0.88445225       0.11002433       0.04169588 </v>
   <v>       0.78326816       0.56057850       0.94378518 </v>
   <v>       0.89446401       0.44411539       0.05515119 </v>
   <v>       0.77485716       0.88708069       0.94597345 </v>
   <v>       0.88886140       0.77285434       0.05641531 </v>
  </varray>
 </structure>
</modeling>
