unknown system                          
           1
     8.857870    5.105376    0.000000
    -8.858974    5.107276    0.000000
     0.000000    0.000000   30.000000
   V    Mo   W    S 
   3   3   3  18
Direct configuration=     1
   1.00000000  0.33333334  0.00000000
   0.33333334  0.33333334  0.00000000
   0.66666669  0.00000000  0.00000000
   0.66666669  0.33333334  0.00000000
   0.33333334  0.66666669  0.00000000
   0.00000000  0.66666669  0.00000000
   0.00000000  0.00000000  0.00000000
   0.33333334  0.00000000  0.00000000
   0.66666669  0.66666669  0.00000000
   0.11068511  0.22244981  0.95539999
   0.22244981  0.11068511  0.04460000
   0.11068511  0.55578315  0.95539999
   0.22244981  0.44401845  0.04460000
   0.11068511  0.88911647  0.95539999
   0.22244981  0.77735180  0.04460000
   0.44401845  0.22244981  0.95539999
   0.55578315  0.11068511  0.04460000
   0.44401845  0.55578315  0.95539999
   0.55578315  0.44401845  0.04460000
   0.44401845  0.88911647  0.95539999
   0.55578315  0.77735180  0.04460000
   0.77735180  0.22244981  0.95539999
   0.88911647  0.11068511  0.04460000
   0.77735180  0.55578315  0.95539999
   0.88911647  0.44401845  0.04460000
   0.77735180  0.88911647  0.95539999
   0.88911647  0.77735180  0.04460000
unknown system                          
           1
     8.669074    4.998928    0.000000
    -8.669945    5.000424    0.000000
     0.000000    0.000000   30.000000
   V    Mo   W    S 
   3   3   3  18
Direct configuration=     2
   0.99997977  0.33531346 -0.00000053
   0.33402966  0.33450226  0.00015173
   0.66594387  0.00042541 -0.00014460
   0.66819422  0.33448242 -0.00010895
   0.33170515  0.66635308  0.00009609
   0.00010657  0.66529160 -0.00001054
  -0.00007873 -0.00073378  0.00001185
   0.33362898 -0.00140114 -0.00024352
   0.66638883  0.66507644  0.00024536
   0.11254529  0.22560221  0.95315645
   0.22392228  0.11493119  0.04809273
   0.10882809  0.55100894  0.95189952
   0.22023161  0.43992212  0.04688568
   0.11156161  0.88961299  0.95072713
   0.22248995  0.77856436  0.04925003
   0.44144081  0.22349623  0.95209211
   0.55695421  0.10824847  0.04797834
   0.44306391  0.55151106  0.95196467
   0.55135907  0.44319346  0.04812601
   0.44847310  0.89162792  0.95185359
   0.55814486  0.78166352  0.04798640
   0.77976843  0.21987316  0.95304319
   0.88703761  0.11270933  0.04691366
   0.77737764  0.55596935  0.95074897
   0.89121458  0.44198858  0.04804384
   0.77564433  0.89095982  0.95198032
   0.88825876  0.77802200  0.04926039
unknown system                          
           1
     8.485535    4.897940    0.000000
    -8.486598    4.899772    0.000000
     0.000000    0.000000   30.000000
   V    Mo   W    S 
   3   3   3  18
Direct configuration=     3
   0.99997519  0.33593522 -0.00000075
   0.33437127  0.33489062  0.00012775
   0.66561592  0.00048295 -0.00011926
   0.66868361  0.33521261 -0.00015246
   0.33121816  0.66660053  0.00013953
   0.00011233  0.66514817 -0.00001107
  -0.00008084 -0.00131433  0.00001225
   0.33344052 -0.00208758 -0.00026858
   0.66656186  0.66457291  0.00026833
   0.11246485  0.22540833  0.95328712
   0.22388906  0.11479680  0.04800932
   0.10873550  0.55082486  0.95181284
   0.22013204  0.43983903  0.04686655
   0.11166412  0.88982659  0.95070596
   0.22260482  0.77881921  0.04932656
   0.44126917  0.22329959  0.95215856
   0.55677748  0.10811720  0.04793767
   0.44321254  0.55152428  0.95201564
   0.55135620  0.44334750  0.04818146
   0.44847318  0.89183060  0.95179924
   0.55834601  0.78165917  0.04790909
   0.77983244  0.21986465  0.95307143
   0.88714871  0.11261481  0.04677351
   0.77725986  0.55613284  0.95067905
   0.89127596  0.44189823  0.04813550
   0.77571721  0.89087484  0.95204964
   0.88815730  0.77809482  0.04928502
unknown system                          
           1
     8.276181    4.774373    0.000000
    -8.279374    4.779895    0.000000
     0.000000    0.000000   30.000000
   V    Mo   W    S 
   3   3   3  18
Direct configuration=     4
   0.99996918  0.33829932 -0.00000373
   0.33603209  0.33633793 -0.00002891
   0.66397261  0.00026369  0.00003678
   0.67027989  0.33838468 -0.00023937
   0.32960303  0.66818562  0.00023034
   0.00013911  0.66529953 -0.00000752
  -0.00010735 -0.00416534  0.00000991
   0.33213912 -0.00514054 -0.00024121
   0.66777255  0.66280777  0.00023711
   0.11285130  0.22620610  0.95246033
   0.22460770  0.11570195  0.04917004
   0.10802811  0.54939151  0.95003242
   0.21931025  0.43876628  0.04812187
   0.11166079  0.88973685  0.94894787
   0.22255676  0.77902015  0.05125186
   0.44069489  0.22368749  0.95099619
   0.55727900  0.10783343  0.04918506
   0.44262949  0.55063822  0.95080401
   0.55021420  0.44260614  0.04992869
   0.44962938  0.89237255  0.95005664
   0.55902425  0.78271167  0.04903191
   0.78055059  0.21949754  0.95184873
   0.88686142  0.11310582  0.04756801
   0.77731545  0.55646534  0.94877624
   0.89188898  0.44120257  0.04993262
   0.77514176  0.89111793  0.95084276
   0.88816988  0.77788026  0.05105122
unknown system                          
           1
     8.268747    4.764866    0.000000
    -8.276967    4.779096    0.000000
     0.000000    0.000000   30.000000
   V    Mo   W    S 
   3   3   3  18
Direct configuration=     5
   0.99995997  0.34238998 -0.00000979
   0.33970889  0.33929226 -0.00035456
   0.66033127 -0.00047134  0.00035797
   0.67312468  0.34507486 -0.00021868
   0.32663416  0.67197082  0.00020700
   0.00021340  0.66673808  0.00000120
  -0.00016380 -0.00982551  0.00001705
   0.32882558 -0.01193784 -0.00008592
   0.67095007  0.65928049  0.00009814
   0.11299331  0.22669968  0.95157059
   0.22546516  0.11640557  0.05055510
   0.10734940  0.54823585  0.94757903
   0.21844187  0.43827253  0.04988892
   0.11172004  0.88877729  0.94635327
   0.22187731  0.77864531  0.05406793
   0.44063253  0.22385039  0.94966054
   0.55789177  0.10836717  0.05057173
   0.44192548  0.55039963  0.94944187
   0.54926663  0.44174642  0.05247697
   0.45060548  0.89247923  0.94750808
   0.55918610  0.78311625  0.05033720
   0.78135439  0.21969546  0.95010914
   0.88682534  0.11362207  0.04843919
   0.77803837  0.55677479  0.94597992
   0.89251159  0.44084222  0.05239938
   0.77440616  0.89092259  0.94941254
   0.88813930  0.77685020  0.05363608
unknown system                          
           1
     8.271297    4.765796    0.000000
    -8.280017    4.780890    0.000000
     0.000000    0.000000   30.000000
   V    Mo   W    S 
   3   3   3  18
Direct configuration=     6
   0.99995321  0.34377339 -0.00000318
   0.34140603  0.34083513 -0.00036174
   0.65866798 -0.00063158  0.00036500
   0.67414730  0.34745409 -0.00018594
   0.32558186  0.67326550  0.00017448
   0.00021265  0.66774279 -0.00000130
  -0.00019850 -0.01208278  0.00000919
   0.32703730 -0.01485842 -0.00009507
   0.67273152  0.65813343  0.00009353
   0.11275312  0.22616309  0.95183953
   0.22551368  0.11586131  0.05046312
   0.10740933  0.54878420  0.94734620
   0.21867601  0.43898362  0.04990651
   0.11192969  0.88836303  0.94591137
   0.22117089  0.77806685  0.05457709
   0.44111147  0.22318662  0.94989824
   0.55753243  0.10910352  0.05043128
   0.44229016  0.55151957  0.94957035
   0.54960552  0.44194865  0.05282628
   0.45025170  0.89231716  0.94717008
   0.55868898  0.78197639  0.05010408
   0.78114097  0.22018172  0.95008747
   0.88708245  0.11334291  0.04817792
   0.77876186  0.55691155  0.94547753
   0.89246982  0.44132288  0.05262541
   0.77434727  0.89030491  0.94950759
   0.88793976  0.77624492  0.05408487
unknown system                          
           1
     8.241591    4.760512    0.000000
    -8.242292    4.761729    0.000000
     0.000000    0.000000   30.000000
   V    Mo   W    S 
   3   3   3  18
Direct configuration=     7
   0.99994093  0.34402511 -0.00000334
   0.34169789  0.34116368 -0.00037110
   0.65836736 -0.00059614  0.00037616
   0.67439177  0.34786656 -0.00018617
   0.32535133  0.67345126  0.00017515
   0.00020401  0.66789585 -0.00000073
  -0.00021116 -0.01250392  0.00000948
   0.32671646 -0.01538079 -0.00008714
   0.67307572  0.65794930  0.00008775
   0.11271607  0.22605671  0.95193176
   0.22550690  0.11575145  0.05041303
   0.10741602  0.54887497  0.94734344
   0.21872628  0.43908650  0.04987447
   0.11195626  0.88832036  0.94586377
   0.22105228  0.77797602  0.05462294
   0.44116883  0.22305239  0.94998694
   0.55743534  0.10919508  0.05036726
   0.44239374  0.55172046  0.94962967
   0.54968006  0.44200037  0.05285476
   0.45018443  0.89229262  0.94714351
   0.55863390  0.78179125  0.05001374
   0.78109222  0.22023288  0.95012067
   0.88711382  0.11327172  0.04808532
   0.77888229  0.55693761  0.94543027
   0.89246381  0.44140592  0.05262825
   0.77434515  0.89019953  0.94955765
   0.88791273  0.77617771  0.05413237
unknown system                          
           1
     8.226338    4.753958    0.000000
    -8.224461    4.750711    0.000000
     0.000000    0.000000   30.000000
   V    Mo   W    S 
   3   3   3  18
Direct configuration=     8
   0.99972482  0.34075098  0.00000859
   0.33737067  0.33609918 -0.00022584
   0.66197930 -0.00149058  0.00027453
   0.67188377  0.34275178 -0.00021653
   0.32839992  0.67181328  0.00020901
   0.00021593  0.66590128  0.00000144
  -0.00046442 -0.00725812  0.00002818
   0.33094170 -0.00912559 -0.00006103
   0.66955457  0.66087805  0.00007573
   0.11286255  0.22710371  0.95066909
   0.22545316  0.11678905  0.05110344
   0.10734116  0.54798111  0.94747032
   0.21813030  0.43830606  0.05027398
   0.11160197  0.88876213  0.94646998
   0.22249580  0.77910865  0.05397197
   0.44084145  0.22455227  0.94873658
   0.55883572  0.10819021  0.05105739
   0.44110855  0.54964592  0.94884563
   0.54899161  0.44150343  0.05262814
   0.45108839  0.89262533  0.94742178
   0.55911959  0.78392731  0.05118156
   0.78152135  0.21977118  0.94979480
   0.88671167  0.11404236  0.04924875
   0.77745101  0.55667294  0.94609218
   0.89251114  0.44060586  0.05249936
   0.77430807  0.89139620  0.94893698
   0.88823471  0.77691045  0.05350390
unknown system                          
           1
     8.225685    4.753523    0.000000
    -8.223922    4.750473    0.000000
     0.000000    0.000000   30.000000
   V    Mo   W    S 
   3   3   3  18
Direct configuration=     9
   0.99967931  0.33899565  0.00000939
   0.33498192  0.33262458 -0.00019016
   0.66385930 -0.00272605  0.00023143
   0.67016934  0.34016001 -0.00022331
   0.33031861  0.67130936  0.00019889
   0.00015629  0.66474660 -0.00002547
  -0.00051543 -0.00426542  0.00002797
   0.33335758 -0.00533767 -0.00008222
   0.66748306  0.66258658  0.00008929
   0.11281630  0.22749715  0.94993328
   0.22538787  0.11714876  0.05155183
   0.10739430  0.54771439  0.94751238
   0.21793144  0.43821718  0.05047314
   0.11151611  0.88897404  0.94677061
   0.22310295  0.77967858  0.05373799
   0.44080851  0.22522938  0.94800782
   0.55966013  0.10788061  0.05143948
   0.44034569  0.54860308  0.94850223
   0.54863607  0.44135328  0.05251710
   0.45160285  0.89287777  0.94745562
   0.55921510  0.78476776  0.05192420
   0.78167809  0.21971113  0.94958911
   0.88661163  0.11442730  0.04996325
   0.77685146  0.55660196  0.94636283
   0.89250374  0.44034420  0.05248792
   0.77429915  0.89188969  0.94849039
   0.88836307  0.77720455  0.05324490
unknown system                          
           1
     8.228666    4.744597    0.000000
    -8.232696    4.751580    0.000000
     0.000000    0.000000   30.000000
   V    Mo   W    S 
   3   3   3  18
Direct configuration=    10
   0.99967268  0.33895803  0.00001008
   0.33491513  0.33248720 -0.00018908
   0.66389471 -0.00280698  0.00023100
   0.67011062  0.34009325 -0.00022433
   0.33039514  0.67133357  0.00020088
   0.00014864  0.66467956 -0.00002476
  -0.00052645 -0.00417952  0.00002840
   0.33345487 -0.00520229 -0.00008233
   0.66741630  0.66266101  0.00008970
   0.11280813  0.22749902  0.94991233
   0.22538164  0.11714651  0.05156640
   0.10740530  0.54771573  0.94751445
   0.21793775  0.43822203  0.05047289
   0.11152047  0.88898880  0.94678218
   0.22312074  0.77970289  0.05372676
   0.44080883  0.22523879  0.94798547
   0.55968751  0.10787392  0.05144627
   0.44032263  0.54857594  0.94849763
   0.54861795  0.44135221  0.05251115
   0.45162631  0.89289790  0.94745742
   0.55921786  0.78478265  0.05194705
   0.78167237  0.21970378  0.94958810
   0.88661108  0.11443277  0.04998246
   0.77683414  0.55660705  0.94637338
   0.89249559  0.44033663  0.05248623
   0.77430280  0.89189909  0.94847564
   0.88836174  0.77721493  0.05323452
unknown system                          
           1
     8.232710    4.747234    0.000000
    -8.236291    4.753445    0.000000
     0.000000    0.000000   30.000000
   V    Mo   W    S 
   3   3   3  18
Direct configuration=    11
   1.00004481  0.34023008  0.00000733
   0.33581054  0.33139860 -0.00028257
   0.66273672 -0.00474431  0.00025121
   0.66951651  0.34136439 -0.00024209
   0.33054718  0.67246750  0.00021229
  -0.00006272  0.66347434 -0.00002477
  -0.00009388 -0.00429828  0.00001662
   0.33367787 -0.00447891 -0.00014336
   0.66695119  0.66251080  0.00012837
   0.11266157  0.22716927  0.95015946
   0.22536532  0.11650727  0.05152446
   0.10780192  0.54833685  0.94752512
   0.21851364  0.43881820  0.05013682
   0.11190848  0.88907681  0.94680352
   0.22268668  0.77970116  0.05380739
   0.44105297  0.22468182  0.94818342
   0.55964026  0.10835579  0.05120591
   0.44040201  0.54894389  0.94893082
   0.54849917  0.44167707  0.05243549
   0.45167770  0.89325425  0.94735734
   0.55891377  0.78383726  0.05186551
   0.78127477  0.21981548  0.94983842
   0.88675691  0.11424886  0.04980307
   0.77727145  0.55694844  0.94627676
   0.89221867  0.44057659  0.05249191
   0.77434926  0.89134123  0.94845411
   0.88809168  0.77699998  0.05327734
unknown system                          
           1
     8.233754    4.744021    0.000000
    -8.240527    4.755778    0.000000
     0.000000    0.000000   30.000000
   V    Mo   W    S 
   3   3   3  18
Direct configuration=    12
   1.00026725  0.34095399  0.00001494
   0.33599500  0.32988567 -0.00028308
   0.66225366 -0.00637137  0.00022625
   0.66914481  0.34212264 -0.00026478
   0.33074084  0.67334495  0.00024847
  -0.00021716  0.66242245  0.00000138
   0.00017263 -0.00392862  0.00001986
   0.33408589 -0.00365031 -0.00010529
   0.66657428  0.66267898  0.00009101
   0.11263998  0.22716683  0.95018128
   0.22542943  0.11634193  0.05162047
   0.10803218  0.54859133  0.94747353
   0.21884935  0.43903704  0.04995966
   0.11200104  0.88904040  0.94686102
   0.22261946  0.77989117  0.05377927
   0.44120408  0.22462348  0.94804137
   0.55989727  0.10856316  0.05112676
   0.44015075  0.54883777  0.94906615
   0.54824106  0.44172445  0.05248103
   0.45182420  0.89351643  0.94727954
   0.55875038  0.78355613  0.05201325
   0.78103413  0.21979463  0.95001605
   0.88677794  0.11423810  0.04976564
   0.77733789  0.55718951  0.94626102
   0.89201489  0.44055848  0.05252479
   0.77435388  0.89116660  0.94838195
   0.88803935  0.77691863  0.05321838
unknown system                          
           1
     8.236193    4.752832    0.000000
    -8.238486    4.756797    0.000000
     0.000000    0.000000   30.000000
   V    Mo   W    S 
   3   3   3  18
Direct configuration=    13
   1.00081405  0.34303915  0.00002434
   0.33654132  0.32592086 -0.00030664
   0.66093407 -0.01067733  0.00020387
   0.66868521  0.34471052 -0.00028374
   0.33083442  0.67593861  0.00026877
  -0.00062897  0.65981626  0.00001603
   0.00084565 -0.00313718  0.00001021
   0.33485562 -0.00208307 -0.00007001
   0.66600299  0.66291946  0.00003001
   0.11262047  0.22711086  0.95034044
   0.22545930  0.11594318  0.05188364
   0.10861362  0.54917238  0.94734562
   0.21963790  0.43952182  0.04947402
   0.11218128  0.88883802  0.94709840
   0.22234325  0.78037858  0.05374800
   0.44165744  0.22454957  0.94767921
   0.56052545  0.10909218  0.05080740
   0.43948076  0.54857056  0.94949939
   0.54768528  0.44189285  0.05260218
   0.45202211  0.89409054  0.94714208
   0.55825034  0.78281889  0.05233048
   0.78049685  0.21980413  0.95054434
   0.88688728  0.11417886  0.04952303
   0.77759336  0.55790817  0.94620656
   0.89142248  0.44038985  0.05263254
   0.77454767  0.89083839  0.94826089
   0.88790527  0.77666834  0.05298883
unknown system                          
           1
     8.244533    4.755146    0.000000
    -8.248814    4.762541    0.000000
     0.000000    0.000000   30.000000
   V    Mo   W    S 
   3   3   3  18
Direct configuration=    14
   0.99981229  0.34057269  0.00000769
   0.33709885  0.33412239 -0.00027642
   0.66193929 -0.00332589  0.00025618
   0.67043029  0.34233968 -0.00023068
   0.32976361  0.67262241  0.00021951
   0.00006893  0.66523105  0.00000194
  -0.00048887 -0.00672274  0.00001667
   0.33188435 -0.00724387 -0.00009470
   0.66865244  0.66179478  0.00008646
   0.11244940  0.22666651  0.95049870
   0.22540821  0.11630184  0.05123027
   0.10767838  0.54852498  0.94753501
   0.21854320  0.43899585  0.05016976
   0.11193631  0.88900923  0.94652020
   0.22246153  0.77921233  0.05395871
   0.44093994  0.22419338  0.94858542
   0.55899812  0.10857041  0.05113925
   0.44100121  0.54972721  0.94896660
   0.54879289  0.44169940  0.05251621
   0.45132535  0.89298826  0.94729171
   0.55898226  0.78336792  0.05149369
   0.78123062  0.22002656  0.94976869
   0.88701395  0.11396393  0.04951031
   0.77752916  0.55674480  0.94612552
   0.89237869  0.44094174  0.05247227
   0.77431181  0.89101385  0.94868690
   0.88807227  0.77687575  0.05354402
unknown system                          
           1
     8.244321    4.754280    0.000000
    -8.249330    4.762957    0.000000
     0.000000    0.000000   30.000000
   V    Mo   W    S 
   3   3   3  18
Direct configuration=    15
   0.99955447  0.34110858 -0.00000989
   0.33881583  0.33768454 -0.00033559
   0.66080251 -0.00155587  0.00033169
   0.67179227  0.34385606 -0.00019238
   0.32852496  0.67283247  0.00017379
   0.00021261  0.66773259 -0.00001227
  -0.00086644 -0.00988886  0.00001775
   0.32947716 -0.01104681 -0.00005918
   0.67095969  0.66055940  0.00007044
   0.11233937  0.22612620  0.95098967
   0.22538026  0.11603721  0.05087889
   0.10752239  0.54876183  0.94752889
   0.21854630  0.43921210  0.05018911
   0.11196764  0.88877376  0.94607747
   0.22197493  0.77853108  0.05430865
   0.44092162  0.22363775  0.94913766
   0.55825416  0.10880287  0.05095051
   0.44173857  0.55069011  0.94909816
   0.54925021  0.44184814  0.05266966
   0.45091264  0.89266669  0.94716191
   0.55899635  0.78283542  0.05096593
   0.78117583  0.22024610  0.94972910
   0.88713252  0.11356534  0.04907979
   0.77805102  0.55658609  0.94580855
   0.89253227  0.44137507  0.05249965
   0.77425047  0.89067217  0.94894598
   0.88799483  0.77656444  0.05399597
unknown system                          
           1
     8.245076    4.753461    0.000000
    -8.252132    4.765692    0.000000
     0.000000    0.000000   30.000000
   V    Mo   W    S 
   3   3   3  18
Direct configuration=    16
   0.99994707  0.34153995  0.00000823
   0.33752509  0.33261299 -0.00029466
   0.66115473 -0.00520694  0.00027594
   0.67050392  0.34380277 -0.00022391
   0.32966858  0.67404391  0.00020750
  -0.00014820  0.66446452 -0.00000832
  -0.00027567 -0.00675385  0.00002067
   0.33197137 -0.00708333 -0.00005281
   0.66882030  0.66180746  0.00005039
   0.11246122  0.22657295  0.95063131
   0.22539460  0.11611148  0.05133315
   0.10793134  0.54880182  0.94744092
   0.21892259  0.43925964  0.04994878
   0.11195472  0.88878869  0.94655867
   0.22221360  0.77936213  0.05402933
   0.44121268  0.22413082  0.94845928
   0.55925927  0.10885455  0.05092722
   0.44071809  0.54968755  0.94921041
   0.54861986  0.44179522  0.05261197
   0.45137567  0.89319062  0.94719037
   0.55870990  0.78297800  0.05157694
   0.78095211  0.22003692  0.95001745
   0.88704198  0.11386032  0.04932140
   0.77774961  0.55708793  0.94602757
   0.89208538  0.44089046  0.05256772
   0.77440292  0.89087886  0.94865597
   0.88804174  0.77669904  0.05350841
unknown system                          
           1
     8.244511    4.753814    0.000000
    -8.250910    4.764898    0.000000
     0.000000    0.000000   30.000000
   V    Mo   W    S 
   3   3   3  18
Direct configuration=    17
   1.00009608  0.34308452  0.00001780
   0.33825673  0.33068454 -0.00032917
   0.65976528 -0.00791824  0.00030857
   0.67106937  0.34637176 -0.00022262
   0.32919734  0.67630763  0.00021208
  -0.00043799  0.66352451 -0.00000844
  -0.00006665 -0.00719773  0.00001681
   0.33171130 -0.00761100 -0.00001523
   0.66954578  0.66173454  0.00000669
   0.11241576  0.22635841  0.95089762
   0.22536227  0.11577107  0.05140993
   0.10817504  0.54916441  0.94735088
   0.21937395  0.43970528  0.04959424
   0.11199469  0.88850640  0.94658514
   0.22182158  0.77950270  0.05414374
   0.44162630  0.22393254  0.94841208
   0.55951865  0.10925600  0.05056119
   0.44046481  0.54984667  0.94962664
   0.54857968  0.44203047  0.05272628
   0.45137360  0.89346002  0.94706558
   0.55830492  0.78237030  0.05156406
   0.78058875  0.22008394  0.95039429
   0.88707546  0.11367187  0.04897632
   0.77807923  0.55754051  0.94586346
   0.89180985  0.44093977  0.05265993
   0.77449509  0.89065723  0.94867710
   0.88801760  0.77643633  0.05350493
unknown system                          
           1
     8.244077    4.753104    0.000000
    -8.250966    4.765043    0.000000
     0.000000    0.000000   30.000000
   V    Mo   W    S 
   3   3   3  18
Direct configuration=    18
   0.99990214  0.34250178  0.00000793
   0.33870904  0.33371135 -0.00033702
   0.65997942 -0.00541849  0.00032225
   0.67145077  0.34564050 -0.00021270
   0.32881168  0.67507059  0.00020567
  -0.00016877  0.66523820 -0.00000431
  -0.00038157 -0.00852954  0.00001491
   0.33068326 -0.00924439 -0.00003306
   0.67021899  0.66111992  0.00003178
   0.11237986  0.22622227  0.95099292
   0.22536842  0.11580904  0.05117498
   0.10793445  0.54907374  0.94741254
   0.21909598  0.43953571  0.04980510
   0.11201506  0.88858331  0.94636265
   0.22182382  0.77907437  0.05422606
   0.44134888  0.22374122  0.94873235
   0.55896987  0.10910802  0.05068490
   0.44101132  0.55025320  0.94943550
   0.54883082  0.44197653  0.05273232
   0.45117479  0.89316906  0.94709388
   0.55857643  0.78247655  0.05128496
   0.78077740  0.22015231  0.95016384
   0.88710926  0.11358794  0.04895652
   0.77814150  0.55719588  0.94581612
   0.89207113  0.44114447  0.05259941
   0.77440495  0.89059724  0.94881140
   0.88797558  0.77642367  0.05371900
unknown system                          
           1
     8.257330    4.757660    0.000000
    -8.266299    4.773193    0.000000
     0.000000    0.000000   30.000000
   V    Mo   W    S 
   3   3   3  18
Direct configuration=    19
   1.00000033  0.34270249  0.00001357
   0.33835696  0.33211794 -0.00032641
   0.65999532 -0.00659375  0.00030833
   0.67122434  0.34585747 -0.00021838
   0.32902504  0.67556784  0.00021178
  -0.00030347  0.66435812 -0.00000493
  -0.00020492 -0.00773238  0.00001410
   0.33126419 -0.00829124 -0.00002752
   0.66980802  0.66147968  0.00002149
   0.11241184  0.22631223  0.95092054
   0.22536315  0.11581707  0.05129779
   0.10804708  0.54909953  0.94738917
   0.21922221  0.43959080  0.04970762
   0.11199731  0.88857353  0.94649300
   0.22184658  0.77930368  0.05416327
   0.44146653  0.22386517  0.94856175
   0.55925730  0.10915696  0.05064029
   0.44071954  0.55000308  0.94952108
   0.54869286  0.44198934  0.05271108
   0.45128360  0.89331459  0.94709127
   0.55845394  0.78245936  0.05143984
   0.78070286  0.22010818  0.95026419
   0.88708785  0.11364348  0.04899522
   0.77808363  0.55736112  0.94585963
   0.89195008  0.44103284  0.05262138
   0.77445710  0.89065628  0.94873703
   0.88800519  0.77646106  0.05359371
unknown system                          
           1
     8.257110    4.757212    0.000000
    -8.265714    4.772106    0.000000
     0.000000    0.000000   30.000000
   V    Mo   W    S 
   3   3   3  18
Direct configuration=    20
   0.99998045  0.34395214  0.00000485
   0.34021308  0.33436744 -0.00040072
   0.65842346 -0.00627032  0.00037302
   0.67260322  0.34833903 -0.00019240
   0.32759782  0.67649469  0.00017929
  -0.00028280  0.66584354 -0.00000677
  -0.00030658 -0.01046346  0.00001812
   0.32903825 -0.01167382  0.00000642
   0.67193435  0.66022184 -0.00000229
   0.11234701  0.22587600  0.95141309
   0.22535414  0.11547465  0.05106095
   0.10801588  0.54940621  0.94729878
   0.21937136  0.43993051  0.04960642
   0.11208133  0.88829711  0.94607166
   0.22125221  0.77878473  0.05457386
   0.44167513  0.22335690  0.94900017
   0.55875953  0.10955508  0.05037157
   0.44121573  0.55088469  0.94977260
   0.54902881  0.44219539  0.05293566
   0.45096525  0.89315741  0.94686539
   0.55822610  0.78171589  0.05102780
   0.78054449  0.22030359  0.95036175
   0.88716034  0.11329475  0.04853450
   0.77868106  0.55743949  0.94546060
   0.89199140  0.44137690  0.05272310
   0.77442301  0.89025824  0.94891325
   0.88792043  0.77609583  0.05402924
unknown system                          
           1
     8.254928    4.753939    0.000000
    -8.265982    4.773086    0.000000
     0.000000    0.000000   30.000000
   V    Mo   W    S 
   3   3   3  18
Direct configuration=    21
   1.00007440  0.34447170  0.00000977
   0.34044186  0.33414452 -0.00042816
   0.65813099 -0.00646080  0.00039054
   0.67327132  0.34940275 -0.00017713
   0.32678543  0.67676269  0.00015835
  -0.00035956  0.66602017  0.00000414
  -0.00012673 -0.01103643  0.00001924
   0.32817304 -0.01255498  0.00000437
   0.67277316  0.65997963 -0.00000298
   0.11230785  0.22571118  0.95153783
   0.22537985  0.11542697  0.05106524
   0.10787779  0.54944832  0.94725544
   0.21936334  0.43997058  0.04951686
   0.11207061  0.88828649  0.94598625
   0.22098781  0.77873061  0.05467839
   0.44175183  0.22318540  0.94911311
   0.55863282  0.10971508  0.05020648
   0.44130347  0.55109914  0.95000247
   0.54912099  0.44228454  0.05294711
   0.45080698  0.89313511  0.94684024
   0.55811120  0.78138717  0.05090643
   0.78062158  0.22043300  0.95042199
   0.88728454  0.11320389  0.04840515
   0.77890234  0.55760983  0.94532846
   0.89213590  0.44154309  0.05275973
   0.77444728  0.89017752  0.94894692
   0.88794433  0.77613729  0.05410365
unknown system                          
           1
     8.258799    4.755614    0.000000
    -8.270181    4.775318    0.000000
     0.000000    0.000000   30.000000
   V    Mo   W    S 
   3   3   3  18
Direct configuration=    22
   1.00002496  0.34516586  0.00000554
   0.34155969  0.33508008 -0.00045250
   0.65706657 -0.00700838  0.00041203
   0.67352487  0.35049301 -0.00017635
   0.32667538  0.67766650  0.00017074
  -0.00035171  0.66627870  0.00000296
  -0.00031899 -0.01207771  0.00001846
   0.32780428 -0.01367174  0.00003252
   0.67321363  0.65945848 -0.00002478
   0.11230956  0.22556812  0.95177667
   0.22531318  0.11518071  0.05092158
   0.10809690  0.54966689  0.94723804
   0.21957735  0.44024867  0.04943643
   0.11214876  0.88813020  0.94589871
   0.22084178  0.77857052  0.05479167
   0.44193254  0.22304888  0.94924594
   0.55856561  0.10987908  0.05009406
   0.44142956  0.55141461  0.95004546
   0.54922436  0.44239137  0.05307056
   0.45077663  0.89314607  0.94672658
   0.55796234  0.78112914  0.05078971
   0.78034300  0.22041411  0.95054413
   0.88718469  0.11302428  0.04816856
   0.77907894  0.55762611  0.94522705
   0.89190933  0.44154414  0.05278273
   0.77446003  0.88998415  0.94904011
   0.88786120  0.77586260  0.05421331
unknown system                          
           1
     8.259710    4.753657    0.000000
    -8.273771    4.778034    0.000000
     0.000000    0.000000   30.000000
   V    Mo   W    S 
   3   3   3  18
Direct configuration=    23
   1.00017601  0.34544593  0.00001788
   0.34098965  0.33387857 -0.00047776
   0.65725288 -0.00705531  0.00044314
   0.67437562  0.35132009 -0.00016492
   0.32561718  0.67769628  0.00015264
  -0.00042858  0.66630110  0.00000048
   0.00008884 -0.01209466  0.00000888
   0.32684909 -0.01420761  0.00002484
   0.67424178  0.65960221 -0.00002470
   0.11224250  0.22546762  0.95178813
   0.22533872  0.11518225  0.05105203
   0.10783507  0.54963202  0.94715971
   0.21947623  0.44021033  0.04937357
   0.11205363  0.88814303  0.94577112
   0.22057827  0.77855231  0.05489397
   0.44211230  0.22293980  0.94931880
   0.55843627  0.11005823  0.04990701
   0.44146169  0.55162366  0.95034323
   0.54936070  0.44244687  0.05303197
   0.45052885  0.89307955  0.94677211
   0.55775105  0.78077271  0.05063667
   0.78057638  0.22062046  0.95055700
   0.88740032  0.11304257  0.04811549
   0.77927470  0.55781149  0.94508639
   0.89213353  0.44171789  0.05284468
   0.77454950  0.88999028  0.94904887
   0.88794227  0.77603682  0.05431868
unknown system                          
           1
     8.267817    4.755460    0.000000
    -8.284333    4.784089    0.000000
     0.000000    0.000000   30.000000
   V    Mo   W    S 
   3   3   3  18
Direct configuration=    24
   0.99978782  0.34590374 -0.00003215
   0.34456227  0.33874257 -0.00047394
   0.65520779 -0.00763219  0.00040309
   0.67286148  0.35118907 -0.00018332
   0.32767404  0.67863670  0.00021501
  -0.00022558  0.66716702  0.00001067
  -0.00120152 -0.01415870  0.00001427
   0.32799395 -0.01503220  0.00008210
   0.67273155  0.65834281 -0.00006893
   0.11239119  0.22532993  0.95216967
   0.22528072  0.11493717  0.05056365
   0.10856643  0.54999783  0.94719525
   0.21992434  0.44058545  0.04944587
   0.11240939  0.88794783  0.94579146
   0.22077414  0.77827066  0.05496778
   0.44183917  0.22286673  0.94934997
   0.55856656  0.10995554  0.05016461
   0.44166258  0.55167801  0.94972273
   0.54913087  0.44246399  0.05342886
   0.45099772  0.89322763  0.94639146