   27   27  100    1
  0.9710400E+02  0.1002848E-08  0.1002848E-08  0.3000000E-08  0.5000000E-15
  1.000000000000000E-004
  CAR 
 unknown system                          
    159     34    120
 
  0.0000000E+00  0.0000000E+00  0.0000000E+00  0.1562500E-01
    1      -17.823590   1.000000
    2      -16.790481   1.000000
    3      -16.648823   1.000000
    4      -16.611929   1.000000
    5      -16.486336   1.000000
    6      -16.435093   1.000000
    7      -16.360788   1.000000
    8      -16.283540   1.000000
    9      -16.258103   1.000000
   10      -16.157666   1.000000
   11      -16.091963   1.000000
   12      -15.935408   1.000000
   13      -15.864271   1.000000
   14      -15.661006   1.000000
   15      -15.629671   1.000000
   16      -15.522843   1.000000
   17      -15.325662   1.000000
   18      -15.255217   1.000000
   19       -9.231966   1.000000
   20       -9.021642   1.000000
   21       -8.900705   1.000000
   22       -8.870621   1.000000
   23       -8.772079   1.000000
   24       -8.709348   1.000000
   25       -8.651591   1.000000
   26       -8.617033   1.000000
   27       -8.562933   1.000000
   28       -8.431827   1.000000
   29       -8.429754   1.000000
   30       -8.343022   1.000000
   31       -8.314315   1.000000
   32       -8.221310   1.000000
   33       -8.165215   1.000000
   34       -8.060031   1.000000
   35       -7.840760   1.000000
   36       -7.787691   1.000000
   37       -7.664762   1.000000
   38       -7.584133   1.000000
   39       -7.440633   1.000000
   40       -7.346971   1.000000
   41       -7.305672   1.000000
   42       -7.216986   1.000000
   43       -7.102221   1.000000
   44       -6.981570   1.000000
   45       -6.884797   1.000000
   46       -6.826769   1.000000
   47       -6.766087   1.000000
   48       -6.751105   1.000000
   49       -6.686155   1.000000
   50       -6.515003   1.000000
   51       -6.430911   1.000000
   52       -6.313303   1.000000
   53       -6.234355   1.000000
   54       -6.170054   1.000000
   55       -6.049964   1.000000
   56       -6.024884   1.000000
   57       -6.000635   1.000000
   58       -5.872297   1.000000
   59       -5.743641   1.000000
   60       -5.655805   1.000000
   61       -5.574227   1.000000
   62       -5.453090   1.000000
   63       -5.379742   1.000000
   64       -5.068304   1.000000
   65       -5.052793   1.000000
   66       -4.899776   1.000000
   67       -4.843217   1.000000
   68       -4.825381   1.000000
   69       -4.808867   1.000000
   70       -4.703221   1.000000
   71       -4.665841   1.000000
   72       -4.582991   1.000000
   73       -4.442453   1.000000
   74       -4.282098   1.000000
   75       -4.237918   1.000000
   76       -4.082969   1.000000
   77       -3.762124   0.999721
   78       -3.567846   0.981117
   79       -3.471116   0.918250
   80       -3.317615   0.620953
   81       -3.165160   0.220640
   82       -2.803575   0.000439
   83       -2.695672   0.000022
   84       -2.654256   0.000006
   85       -2.483167   0.000000
   86       -2.381308   0.000000
   87       -2.206702   0.000000
   88       -2.187011   0.000000
   89       -2.085639   0.000000
   90       -1.876234   0.000000
   91       -1.755114   0.000000
   92       -1.647931   0.000000
   93       -1.360654   0.000000
   94       -1.243253   0.000000
   95       -1.177134   0.000000
   96       -1.067227   0.000000
   97       -1.005478   0.000000
   98       -0.971711   0.000000
   99       -0.799257   0.000000
  100       -0.664817   0.000000
  101       -0.628866   0.000000
  102       -0.553250   0.000000
  103       -0.470095   0.000000
  104       -0.435148   0.000000
  105       -0.264005   0.000000
  106       -0.197450   0.000000
  107       -0.045013   0.000000
  108        0.005136   0.000000
  109        0.135966   0.000000
  110        0.191217   0.000000
  111        0.356511   0.000000
  112        0.479013   0.000000
  113        0.497636   0.000000
  114        0.947512   0.000000
  115        1.099734   0.000000
  116        1.226891   0.000000
  117        1.354199   0.000000
  118        1.645570   0.000000
  119        1.839225   0.000000
  120        2.167106   0.000000
 
  0.1250000E+00  0.2775558E-16  0.0000000E+00  0.3125000E-01
    1      -17.798092   1.000000
    2      -16.801750   1.000000
    3      -16.779891   1.000000
    4      -16.574224   1.000000
    5      -16.502362   1.000000
    6      -16.454367   1.000000
    7      -16.381157   1.000000
    8      -16.301439   1.000000
    9      -16.197894   1.000000
   10      -16.076550   1.000000
   11      -16.054909   1.000000
   12      -15.945153   1.000000
   13      -15.843615   1.000000
   14      -15.657577   1.000000
   15      -15.623994   1.000000
   16      -15.531714   1.000000
   17      -15.351203   1.000000
   18      -15.254819   1.000000
   19       -9.227531   1.000000
   20       -9.144300   1.000000
   21       -9.004745   1.000000
   22       -8.991858   1.000000
   23       -8.776906   1.000000
   24       -8.735010   1.000000
   25       -8.694110   1.000000
   26       -8.614766   1.000000
   27       -8.523475   1.000000
   28       -8.466871   1.000000
   29       -8.375521   1.000000
   30       -8.330896   1.000000
   31       -8.252141   1.000000
   32       -8.112513   1.000000
   33       -7.982080   1.000000
   34       -7.931368   1.000000
   35       -7.885799   1.000000
   36       -7.737010   1.000000
   37       -7.693891   1.000000
   38       -7.530611   1.000000
   39       -7.407745   1.000000
   40       -7.366870   1.000000
   41       -7.325372   1.000000
   42       -7.241385   1.000000
   43       -7.115919   1.000000
   44       -6.996809   1.000000
   45       -6.901333   1.000000
   46       -6.825437   1.000000
   47       -6.817264   1.000000
   48       -6.733206   1.000000
   49       -6.652294   1.000000
   50       -6.557637   1.000000
   51       -6.429025   1.000000
   52       -6.322806   1.000000
   53       -6.251344   1.000000
   54       -6.123526   1.000000
   55       -6.090249   1.000000
   56       -6.039813   1.000000
   57       -5.970842   1.000000
   58       -5.831038   1.000000
   59       -5.709093   1.000000
   60       -5.615371   1.000000
   61       -5.573595   1.000000
   62       -5.440390   1.000000
   63       -5.377427   1.000000
   64       -5.151483   1.000000
   65       -5.133767   1.000000
   66       -5.050331   1.000000
   67       -4.960749   1.000000
   68       -4.873095   1.000000
   69       -4.797224   1.000000
   70       -4.694151   1.000000
   71       -4.540918   1.000000
   72       -4.471039   1.000000
   73       -4.374247   1.000000
   74       -4.269319   1.000000
   75       -4.198591   1.000000
   76       -4.001761   1.000000
   77       -3.839581   0.999968
   78       -3.661729   0.996940
   79       -3.507421   0.950540
   80       -3.402371   0.817876
   81       -3.043948   0.051854
   82       -2.800618   0.000407
   83       -2.724400   0.000051
   84       -2.619705   0.000002
   85       -2.466489   0.000000
   86       -2.371984   0.000000
   87       -2.205157   0.000000
   88       -2.162440   0.000000
   89       -2.056374   0.000000
   90       -1.877718   0.000000
   91       -1.755729   0.000000
   92       -1.642862   0.000000
   93       -1.370862   0.000000
   94       -1.225878   0.000000
   95       -1.174834   0.000000
   96       -1.069437   0.000000
   97       -1.003288   0.000000
   98       -0.977473   0.000000
   99       -0.802287   0.000000
  100       -0.746652   0.000000
  101       -0.668126   0.000000
  102       -0.600550   0.000000
  103       -0.536915   0.000000
  104       -0.506205   0.000000
  105       -0.324393   0.000000
  106       -0.167087   0.000000
  107       -0.107104   0.000000
  108        0.049001   0.000000
  109        0.097183   0.000000
  110        0.222456   0.000000
  111        0.351504   0.000000
  112        0.469383   0.000000
  113        0.595021   0.000000
  114        0.926560   0.000000
  115        1.143246   0.000000
  116        1.243729   0.000000
  117        1.337636   0.000000
  118        1.691169   0.000000
  119        1.878089   0.000000
  120        2.202525   0.000000
 
  0.2500000E+00  0.5551115E-16  0.0000000E+00  0.3125000E-01
    1      -17.722851   1.000000
    2      -17.001457   1.000000
    3      -16.779399   1.000000
    4      -16.635747   1.000000
    5      -16.575885   1.000000
    6      -16.448564   1.000000
    7      -16.363093   1.000000
    8      -16.230732   1.000000
    9      -16.146908   1.000000
   10      -16.033440   1.000000
   11      -15.984340   1.000000
   12      -15.896582   1.000000
   13      -15.819338   1.000000
   14      -15.640603   1.000000
   15      -15.602846   1.000000
   16      -15.547484   1.000000
   17      -15.407846   1.000000
   18      -15.265025   1.000000
   19       -9.483765   1.000000
   20       -9.186606   1.000000
   21       -9.133643   1.000000
   22       -9.023735   1.000000
   23       -8.925751   1.000000
   24       -8.799064   1.000000
   25       -8.692970   1.000000
   26       -8.615144   1.000000
   27       -8.439218   1.000000
   28       -8.394757   1.000000
   29       -8.360631   1.000000
   30       -8.260033   1.000000
   31       -8.164351   1.000000
   32       -8.012028   1.000000
   33       -7.925367   1.000000
   34       -7.843398   1.000000
   35       -7.757771   1.000000
   36       -7.669122   1.000000
   37       -7.561203   1.000000
   38       -7.528872   1.000000
   39       -7.454273   1.000000
   40       -7.352153   1.000000
   41       -7.307766   1.000000
   42       -7.181562   1.000000
   43       -7.119791   1.000000
   44       -6.986204   1.000000
   45       -6.925610   1.000000
   46       -6.875843   1.000000
   47       -6.802683   1.000000
   48       -6.744947   1.000000
   49       -6.607251   1.000000
   50       -6.484732   1.000000
   51       -6.418495   1.000000
   52       -6.360141   1.000000
   53       -6.268485   1.000000
   54       -6.136307   1.000000
   55       -6.102493   1.000000
   56       -6.075451   1.000000
   57       -5.884142   1.000000
   58       -5.818970   1.000000
   59       -5.736708   1.000000
   60       -5.628593   1.000000
   61       -5.554345   1.000000
   62       -5.485593   1.000000
   63       -5.442849   1.000000
   64       -5.273452   1.000000
   65       -5.228684   1.000000
   66       -5.195520   1.000000
   67       -5.083031   1.000000
   68       -4.872408   1.000000
   69       -4.774880   1.000000
   70       -4.630493   1.000000
   71       -4.467392   1.000000
   72       -4.374455   1.000000
   73       -4.292581   1.000000
   74       -4.176322   1.000000
   75       -4.128603   1.000000
   76       -4.076040   1.000000
   77       -3.943851   0.999999
   78       -3.755446   0.999668
   79       -3.545681   0.972613
   80       -3.393589   0.801001
   81       -2.984464   0.020292
   82       -2.828530   0.000815
   83       -2.722560   0.000048
   84       -2.548988   0.000000
   85       -2.435161   0.000000
   86       -2.359806   0.000000
   87       -2.206303   0.000000
   88       -2.101953   0.000000
   89       -1.983224   0.000000
   90       -1.867565   0.000000
   91       -1.741993   0.000000
   92       -1.620701   0.000000
   93       -1.390612   0.000000
   94       -1.266574   0.000000
   95       -1.134788   0.000000
   96       -1.080429   0.000000
   97       -1.027611   0.000000
   98       -0.980537   0.000000
   99       -0.938036   0.000000
  100       -0.803782   0.000000
  101       -0.773786   0.000000
  102       -0.697507   0.000000
  103       -0.637752   0.000000
  104       -0.562977   0.000000
  105       -0.421897   0.000000
  106       -0.277770   0.000000
  107       -0.173492   0.000000
  108       -0.014866   0.000000
  109        0.082770   0.000000
  110        0.233408   0.000000
  111        0.369292   0.000000
  112        0.602415   0.000000
  113        0.710076   0.000000
  114        0.861297   0.000000
  115        1.162903   0.000000
  116        1.276805   0.000000
  117        1.417145   0.000000
  118        1.817364   0.000000
  119        1.989293   0.000000
  120        2.307554   0.000000
 
  0.3750000E+00  0.0000000E+00  0.0000000E+00  0.3125000E-01
    1      -17.603110   1.000000
    2      -17.214763   1.000000
    3      -16.769998   1.000000
    4      -16.697842   1.000000
    5      -16.608063   1.000000
    6      -16.486459   1.000000
    7      -16.311754   1.000000
    8      -16.170523   1.000000
    9      -16.113557   1.000000
   10      -16.018055   1.000000
   11      -15.918147   1.000000
   12      -15.853324   1.000000
   13      -15.807537   1.000000
   14      -15.640205   1.000000
   15      -15.604972   1.000000
   16      -15.518071   1.000000
   17      -15.446887   1.000000
   18      -15.289464   1.000000
   19       -9.708136   1.000000
   20       -9.289942   1.000000
   21       -9.163078   1.000000
   22       -9.043543   1.000000
   23       -8.936392   1.000000
   24       -8.888890   1.000000
   25       -8.643754   1.000000
   26       -8.563099   1.000000
   27       -8.428157   1.000000
   28       -8.348393   1.000000
   29       -8.301949   1.000000
   30       -8.250308   1.000000
   31       -8.109820   1.000000
   32       -7.987542   1.000000
   33       -7.948023   1.000000
   34       -7.847298   1.000000
   35       -7.718812   1.000000
   36       -7.680924   1.000000
   37       -7.562854   1.000000
   38       -7.510313   1.000000
   39       -7.371588   1.000000
   40       -7.317521   1.000000
   41       -7.247631   1.000000
   42       -7.143602   1.000000
   43       -7.044246   1.000000
   44       -6.965805   1.000000
   45       -6.912396   1.000000
   46       -6.839937   1.000000
   47       -6.736865   1.000000
   48       -6.613998   1.000000
   49       -6.509829   1.000000
   50       -6.440504   1.000000
   51       -6.379570   1.000000
   52       -6.318404   1.000000
   53       -6.229088   1.000000
   54       -6.168432   1.000000
   55       -6.120415   1.000000
   56       -6.085257   1.000000
   57       -6.045743   1.000000
   58       -5.980160   1.000000
   59       -5.805185   1.000000
   60       -5.694838   1.000000
   61       -5.652953   1.000000
   62       -5.511657   1.000000
   63       -5.483785   1.000000
   64       -5.318428   1.000000
   65       -5.261616   1.000000
   66       -5.132628   1.000000
   67       -5.074027   1.000000
   68       -4.876242   1.000000
   69       -4.787387   1.000000
   70       -4.692177   1.000000
   71       -4.481011   1.000000
   72       -4.451284   1.000000
   73       -4.278099   1.000000
   74       -4.137956   1.000000
   75       -4.105461   1.000000
   76       -4.031412   1.000000
   77       -3.908062   0.999996
   78       -3.748226   0.999600
   79       -3.589171   0.987066
   80       -3.305906   0.589084
   81       -3.002813   0.027555
   82       -2.886397   0.003061
   83       -2.678314   0.000013
   84       -2.503981   0.000000
   85       -2.429946   0.000000
   86       -2.329899   0.000000
   87       -2.185555   0.000000
   88       -2.047270   0.000000
   89       -1.918849   0.000000
   90       -1.845608   0.000000
   91       -1.719524   0.000000
   92       -1.565467   0.000000
   93       -1.428677   0.000000
   94       -1.300013   0.000000
   95       -1.187343   0.000000
   96       -1.156775   0.000000
   97       -1.034531   0.000000
   98       -1.010225   0.000000
   99       -0.965414   0.000000
  100       -0.927012   0.000000
  101       -0.842856   0.000000
  102       -0.770961   0.000000
  103       -0.672497   0.000000
  104       -0.574864   0.000000
  105       -0.509537   0.000000
  106       -0.384823   0.000000
  107       -0.287914   0.000000
  108       -0.086946   0.000000
  109        0.076419   0.000000
  110        0.243666   0.000000
  111        0.353677   0.000000
  112        0.712535   0.000000
  113        0.792919   0.000000
  114        0.867184   0.000000
  115        1.133083   0.000000
  116        1.289376   0.000000
  117        1.560574   0.000000
  118        2.004958   0.000000
  119        2.163950   0.000000
  120        2.478758   0.000000
 
  0.5000000E+00  0.1110223E-15  0.0000000E+00  0.1562500E-01
    1      -17.488122   1.000000
    2      -17.363225   1.000000
    3      -16.761344   1.000000
    4      -16.725882   1.000000
    5      -16.615324   1.000000
    6      -16.502086   1.000000
    7      -16.295200   1.000000
    8      -16.140452   1.000000
    9      -16.115101   1.000000
   10      -15.998648   1.000000
   11      -15.892426   1.000000
   12      -15.859893   1.000000
   13      -15.758953   1.000000
   14      -15.694904   1.000000
   15      -15.583333   1.000000
   16      -15.534331   1.000000
   17      -15.421941   1.000000
   18      -15.309170   1.000000
   19       -9.788921   1.000000
   20       -9.330399   1.000000
   21       -9.179620   1.000000
   22       -9.080908   1.000000
   23       -8.927984   1.000000
   24       -8.846689   1.000000
   25       -8.617686   1.000000
   26       -8.603886   1.000000
   27       -8.430676   1.000000
   28       -8.336878   1.000000
   29       -8.262731   1.000000
   30       -8.165712   1.000000
   31       -8.150179   1.000000
   32       -8.014712   1.000000
   33       -7.909406   1.000000
   34       -7.869164   1.000000
   35       -7.794413   1.000000
   36       -7.639008   1.000000
   37       -7.572606   1.000000
   38       -7.515299   1.000000
   39       -7.419294   1.000000
   40       -7.320038   1.000000
   41       -7.251828   1.000000
   42       -7.031132   1.000000
   43       -7.000710   1.000000
   44       -6.918783   1.000000
   45       -6.887811   1.000000
   46       -6.664798   1.000000
   47       -6.620574   1.000000
   48       -6.571869   1.000000
   49       -6.504131   1.000000
   50       -6.480641   1.000000
   51       -6.430476   1.000000
   52       -6.324815   1.000000
   53       -6.319721   1.000000
   54       -6.212177   1.000000
   55       -6.170971   1.000000
   56       -6.154842   1.000000
   57       -6.031912   1.000000
   58       -5.896005   1.000000
   59       -5.772838   1.000000
   60       -5.709198   1.000000
   61       -5.658739   1.000000
   62       -5.580718   1.000000
   63       -5.463898   1.000000
   64       -5.427860   1.000000
   65       -5.280870   1.000000
   66       -5.089392   1.000000
   67       -5.061882   1.000000
   68       -5.002104   1.000000
   69       -4.827775   1.000000
   70       -4.615271   1.000000
   71       -4.528564   1.000000
   72       -4.443355   1.000000
   73       -4.300282   1.000000
   74       -4.177342   1.000000
   75       -4.083316   1.000000
   76       -3.944843   0.999999
   77       -3.842673   0.999971
   78       -3.763290   0.999729
   79       -3.628485   0.993898
   80       -3.248121   0.427237
   81       -2.994534   0.024047
   82       -2.944819   0.009954
   83       -2.656565   0.000006
   84       -2.493174   0.000000
   85       -2.432628   0.000000
   86       -2.308067   0.000000
   87       -2.170328   0.000000
   88       -2.027110   0.000000
   89       -1.897229   0.000000
   90       -1.835252   0.000000
   91       -1.712314   0.000000
   92       -1.529740   0.000000
   93       -1.431426   0.000000
   94       -1.307034   0.000000
   95       -1.252437   0.000000
   96       -1.199667   0.000000
   97       -1.038766   0.000000
   98       -0.998321   0.000000
   99       -0.994321   0.000000
  100       -0.976012   0.000000
  101       -0.867542   0.000000
  102       -0.790716   0.000000
  103       -0.659950   0.000000
  104       -0.609277   0.000000
  105       -0.540063   0.000000
  106       -0.416451   0.000000
  107       -0.335652   0.000000
  108       -0.118089   0.000000
  109        0.077663   0.000000
  110        0.237976   0.000000
  111        0.343096   0.000000
  112        0.750247   0.000000
  113        0.802388   0.000000
  114        0.906417   0.000000
  115        1.115561   0.000000
  116        1.298144   0.000000
  117        1.616727   0.000000
  118        2.230288   0.000000
  119        2.254774   0.000000
  120        2.377272   0.000000
 
  0.0000000E+00  0.1250000E+00  0.0000000E+00  0.3125000E-01
    1      -17.798569   1.000000
    2      -16.831434   1.000000
    3      -16.699708   1.000000
    4      -16.664566   1.000000
    5      -16.527583   1.000000
    6      -16.390820   1.000000
    7      -16.331813   1.000000
    8      -16.273378   1.000000
    9      -16.237704   1.000000
   10      -16.155271   1.000000
   11      -16.008847   1.000000
   12      -15.928059   1.000000
   13      -15.856536   1.000000
   14      -15.666556   1.000000
   15      -15.634315   1.000000
   16      -15.538401   1.000000
   17      -15.329418   1.000000
   18      -15.257827   1.000000
   19       -9.257550   1.000000
   20       -9.164821   1.000000
   21       -9.009516   1.000000
   22       -8.902062   1.000000
   23       -8.855161   1.000000
   24       -8.758318   1.000000
   25       -8.672022   1.000000
   26       -8.603981   1.000000
   27       -8.526051   1.000000
   28       -8.414163   1.000000
   29       -8.310445   1.000000
   30       -8.284006   1.000000
   31       -8.260759   1.000000
   32       -8.133181   1.000000
   33       -8.074034   1.000000
   34       -8.011791   1.000000
   35       -7.776868   1.000000
   36       -7.738431   1.000000
   37       -7.652558   1.000000
   38       -7.586294   1.000000
   39       -7.485728   1.000000
   40       -7.411982   1.000000
   41       -7.272675   1.000000
   42       -7.194910   1.000000
   43       -7.114490   1.000000
   44       -7.040764   1.000000
   45       -6.953801   1.000000
   46       -6.830304   1.000000
   47       -6.760862   1.000000
   48       -6.668789   1.000000
   49       -6.613707   1.000000
   50       -6.488802   1.000000
   51       -6.401975   1.000000
   52       -6.337034   1.000000
   53       -6.246313   1.000000
   54       -6.183386   1.000000
   55       -6.100977   1.000000
   56       -6.038579   1.000000
   57       -5.959560   1.000000
   58       -5.920621   1.000000
   59       -5.698127   1.000000
   60       -5.645111   1.000000
   61       -5.555666   1.000000
   62       -5.534234   1.000000
   63       -5.456285   1.000000
   64       -5.157130   1.000000
   65       -5.091150   1.000000
   66       -4.901028   1.000000
   67       -4.876068   1.000000
   68       -4.817784   1.000000
   69       -4.790181   1.000000
   70       -4.671940   1.000000
   71       -4.609272   1.000000
   72       -4.544807   1.000000
   73       -4.426521   1.000000
   74       -4.288527   1.000000
   75       -4.186280   1.000000
   76       -4.100742   1.000000
   77       -3.808834   0.999922
   78       -3.659099   0.996762
   79       -3.523466   0.961098
   80       -3.257878   0.454452
   81       -3.129158   0.152774
   82       -2.755666   0.000123
   83       -2.682840   0.000015
   84       -2.642038   0.000004
   85       -2.469161   0.000000
   86       -2.368307   0.000000
   87       -2.179049   0.000000
   88       -2.159595   0.000000
   89       -2.048155   0.000000
   90       -1.897394   0.000000
   91       -1.742004   0.000000
   92       -1.641713   0.000000
   93       -1.367138   0.000000
   94       -1.231239   0.000000
   95       -1.193292   0.000000
   96       -1.076636   0.000000
   97       -1.026414   0.000000
   98       -0.948812   0.000000
   99       -0.827279   0.000000
  100       -0.748871   0.000000
  101       -0.715547   0.000000
  102       -0.640035   0.000000
  103       -0.548615   0.000000
  104       -0.418140   0.000000
  105       -0.371026   0.000000
  106       -0.205593   0.000000
  107       -0.030363   0.000000
  108        0.089248   0.000000
  109        0.155006   0.000000
  110        0.234702   0.000000
  111        0.388924   0.000000
  112        0.502054   0.000000
  113        0.557687   0.000000
  114        0.959522   0.000000
  115        1.081126   0.000000
  116        1.183491   0.000000
  117        1.283691   0.000000
  118        1.689286   0.000000
  119        1.879533   0.000000
  120        2.202112   0.000000
 
  0.1250000E+00  0.1250000E+00  0.0000000E+00  0.3125000E-01
    1      -17.748796   1.000000
    2      -16.909482   1.000000
    3      -16.841021   1.000000
    4      -16.660382   1.000000
    5      -16.468337   1.000000
    6      -16.401743   1.000000
    7      -16.378134   1.000000
    8      -16.286934   1.000000
    9      -16.185022   1.000000
   10      -16.055564   1.000000
   11      -15.964934   1.000000
   12      -15.905925   1.000000
   13      -15.836294   1.000000
   14      -15.664869   1.000000
   15      -15.624848   1.000000
   16      -15.560944   1.000000
   17      -15.361961   1.000000
   18      -15.255599   1.000000
   19       -9.389445   1.000000
   20       -9.274950   1.000000
   21       -9.089614   1.000000
   22       -9.057769   1.000000
   23       -8.832598   1.000000
   24       -8.746822   1.000000
   25       -8.620436   1.000000
   26       -8.590432   1.000000
   27       -8.558152   1.000000
   28       -8.404688   1.000000
   29       -8.331399   1.000000
   30       -8.249582   1.000000
   31       -8.159173   1.000000
   32       -8.118904   1.000000
   33       -7.926866   1.000000
   34       -7.833199   1.000000
   35       -7.796433   1.000000
   36       -7.713430   1.000000
   37       -7.622778   1.000000
   38       -7.512931   1.000000
   39       -7.432723   1.000000
   40       -7.384244   1.000000
   41       -7.258763   1.000000
   42       -7.238826   1.000000
   43       -7.120173   1.000000
   44       -7.024967   1.000000
   45       -6.967123   1.000000
   46       -6.844486   1.000000
   47       -6.782301   1.000000
   48       -6.690098   1.000000
   49       -6.578862   1.000000
   50       -6.458154   1.000000
   51       -6.388129   1.000000
   52       -6.336597   1.000000
   53       -6.291673   1.000000
   54       -6.166792   1.000000
   55       -6.113847   1.000000
   56       -6.047549   1.000000
   57       -5.951685   1.000000
   58       -5.890296   1.000000
   59       -5.735191   1.000000
   60       -5.628384   1.000000
   61       -5.608566   1.000000
   62       -5.499488   1.000000
   63       -5.442196   1.000000
   64       -5.295446   1.000000
   65       -5.177359   1.000000
   66       -5.081911   1.000000
   67       -4.953558   1.000000
   68       -4.848249   1.000000
   69       -4.776726   1.000000
   70       -4.627551   1.000000
   71       -4.464883   1.000000
   72       -4.413002   1.000000
   73       -4.384681   1.000000
   74       -4.273167   1.000000
   75       -4.146926   1.000000
   76       -4.074465   1.000000
   77       -3.970913   1.000000
   78       -3.728538   0.999345
   79       -3.520370   0.959218
   80       -3.323878   0.637683
   81       -3.026980   0.040309
   82       -2.746172   0.000095
   83       -2.682633   0.000014
   84       -2.592331   0.000001
   85       -2.445884   0.000000
   86       -2.342627   0.000000
   87       -2.153469   0.000000
   88       -2.119289   0.000000
   89       -1.995711   0.000000
   90       -1.899382   0.000000
   91       -1.733685   0.000000
   92       -1.628452   0.000000
   93       -1.370805   0.000000
   94       -1.259639   0.000000
   95       -1.186433   0.000000
   96       -1.087809   0.000000
   97       -1.043074   0.000000
   98       -0.965869   0.000000
   99       -0.902429   0.000000
  100       -0.813505   0.000000
  101       -0.793421   0.000000
  102       -0.748168   0.000000
  103       -0.648738   0.000000
  104       -0.469469   0.000000
  105       -0.404886   0.000000
  106       -0.197501   0.000000
  107       -0.108608   0.000000
  108        0.046881   0.000000
  109        0.172298   0.000000
  110        0.289233   0.000000
  111        0.386321   0.000000
  112        0.551571   0.000000
  113        0.668763   0.000000
  114        0.945820   0.000000
  115        1.105601   0.000000
  116        1.184011   0.000000
  117        1.239181   0.000000
  118        1.773679   0.000000
  119        1.955870   0.000000
  120        2.271993   0.000000
 
  0.2500000E+00  0.1250000E+00  0.0000000E+00  0.3125000E-01
    1      -17.651473   1.000000
    2      -17.095675   1.000000
    3      -16.915900   1.000000
    4      -16.662640   1.000000
    5      -16.480843   1.000000
    6      -16.431990   1.000000
    7      -16.350419   1.000000
    8      -16.230142   1.000000
    9      -16.139816   1.000000
   10      -16.017296   1.000000
   11      -15.935908   1.000000
   12      -15.855540   1.000000
   13      -15.809704   1.000000
   14      -15.657137   1.000000
   15      -15.623040   1.000000
   16      -15.542095   1.000000
   17      -15.420831   1.000000
   18      -15.261013   1.000000
   19       -9.611546   1.000000
   20       -9.389633   1.000000
   21       -9.232975   1.000000
   22       -9.003496   1.000000
   23       -8.870471   1.000000
   24       -8.708926   1.000000
   25       -8.639516   1.000000
   26       -8.556483   1.000000
   27       -8.439948   1.000000
   28       -8.379171   1.000000
   29       -8.342097   1.000000
   30       -8.262632   1.000000
   31       -8.140856   1.000000
   32       -8.024822   1.000000
   33       -7.971954   1.000000
   34       -7.840594   1.000000
   35       -7.781616   1.000000
   36       -7.634034   1.000000
   37       -7.566169   1.000000
   38       -7.426010   1.000000
   39       -7.374429   1.000000
   40       -7.321297   1.000000
   41       -7.303949   1.000000
   42       -7.185463   1.000000
   43       -7.104685   1.000000
   44       -7.042951   1.000000
   45       -6.868364   1.000000
   46       -6.799662   1.000000
   47       -6.736946   1.000000