       N       E                     dE             d eps       ncg     rms          rms(c)
DAV:   1     0.112452769459E+04    0.11245E+04   -0.35858E+04  8160   0.577E+02
DAV:   2    -0.591977791337E+01   -0.11304E+04   -0.10916E+04 11280   0.173E+02
DAV:   3    -0.199931308702E+03   -0.19401E+03   -0.18654E+03 10880   0.816E+01
DAV:   4    -0.208991835578E+03   -0.90605E+01   -0.87711E+01 12240   0.260E+01
DAV:   5    -0.209307063087E+03   -0.31523E+00   -0.31428E+00 11480   0.346E+00    0.275E+01
DAV:   6    -0.236736028649E+03   -0.27429E+02   -0.11030E+02 12440   0.603E+01    0.595E+01
DAV:   7    -0.196529674015E+03    0.40206E+02   -0.17817E+02 13400   0.152E+02    0.200E+01
DAV:   8    -0.189487843179E+03    0.70418E+01   -0.17484E+01 11880   0.128E+01    0.127E+01
DAV:   9    -0.188171219182E+03    0.13166E+01   -0.31155E+00 12440   0.632E+00    0.915E+00
DAV:  10    -0.187033121773E+03    0.11381E+01   -0.21406E+00 13400   0.740E+00    0.303E+00
DAV:  11    -0.186942891678E+03    0.90230E-01   -0.58950E-01 12520   0.233E+00    0.232E+00
DAV:  12    -0.187058924081E+03   -0.11603E+00   -0.66752E-01 12960   0.419E+00    0.471E+00
DAV:  13    -0.186883285975E+03    0.17564E+00   -0.50161E-01 12760   0.404E+00    0.211E+00
DAV:  14    -0.186845223087E+03    0.38063E-01   -0.10752E-01 13400   0.176E+00    0.122E+00
DAV:  15    -0.186840329298E+03    0.48938E-02   -0.62569E-02 12080   0.148E+00    0.110E+00
DAV:  16    -0.186829664140E+03    0.10665E-01   -0.19835E-02 12840   0.708E-01    0.471E-01
DAV:  17    -0.186827488300E+03    0.21758E-02   -0.91016E-03 12560   0.466E-01    0.241E-01
DAV:  18    -0.186827158394E+03    0.32991E-03   -0.21107E-03 11600   0.138E-01    0.179E-01
DAV:  19    -0.186826786650E+03    0.37174E-03   -0.95220E-04 10120   0.128E-01    0.517E-02
DAV:  20    -0.186827366507E+03   -0.57986E-03   -0.61187E-04  9280   0.584E-02    0.567E-02
DAV:  21    -0.186828025287E+03   -0.65878E-03   -0.42362E-04  9120   0.597E-02    0.436E-02
DAV:  22    -0.186829215015E+03   -0.11897E-02   -0.23136E-04  7560   0.588E-02    0.402E-02
DAV:  23    -0.186830483512E+03   -0.12685E-02   -0.15174E-04  7600   0.458E-02    0.112E-02
DAV:  24    -0.186831086596E+03   -0.60308E-03   -0.31947E-05  6640   0.141E-02    0.931E-03
DAV:  25    -0.186831471738E+03   -0.38514E-03   -0.17721E-05  5600   0.139E-02    0.564E-03
DAV:  26    -0.186831687823E+03   -0.21609E-03   -0.85679E-06  6840   0.744E-03    0.217E-03
DAV:  27    -0.186831794446E+03   -0.10662E-03   -0.39857E-06  6920   0.444E-03    0.126E-03
DAV:  28    -0.186831839402E+03   -0.44956E-04   -0.21024E-06  7280   0.346E-03
   1 F= -.18683184E+03 E0= -.18665931E+03  d E =-.186832E+03
       N       E                     dE             d eps       ncg     rms          rms(c)
DAV:   1    -0.187465832330E+03   -0.63404E+00   -0.27337E+02  8160   0.351E+01    0.461E+00
DAV:   2    -0.189254968936E+03   -0.17891E+01   -0.20083E+01 12200   0.148E+01    0.774E+00
DAV:   3    -0.189391530474E+03   -0.13656E+00   -0.37034E+00 12480   0.117E+01    0.699E+00
DAV:   4    -0.188734275524E+03    0.65725E+00   -0.66765E-01 12680   0.498E+00    0.176E+00
DAV:   5    -0.188727222823E+03    0.70527E-02   -0.29340E-01 10880   0.152E+00    0.211E+00
DAV:   6    -0.188691018696E+03    0.36204E-01   -0.29572E-01 12040   0.215E+00    0.199E+00
DAV:   7    -0.188688349638E+03    0.26691E-02   -0.17326E-01 12920   0.244E+00    0.229E+00
DAV:   8    -0.188648803046E+03    0.39547E-01   -0.92323E-02 12680   0.164E+00    0.527E-01
DAV:   9    -0.188645190113E+03    0.36129E-02   -0.77805E-03 10680   0.321E-01    0.185E-01
DAV:  10    -0.188645791115E+03   -0.60100E-03   -0.38571E-03 13440   0.306E-01    0.370E-01
DAV:  11    -0.188644867316E+03    0.92380E-03   -0.26771E-03 12320   0.305E-01    0.137E-01
DAV:  12    -0.188644936258E+03   -0.68943E-04   -0.64239E-04 11120   0.105E-01
   2 F= -.18864494E+03 E0= -.18850250E+03  d E =-.181310E+01
       N       E                     dE             d eps       ncg     rms          rms(c)
DAV:   1    -0.190565575158E+03   -0.19207E+01   -0.31203E+01  9240   0.142E+01    0.445E+00
DAV:   2    -0.190550204822E+03    0.15370E-01   -0.28434E+00 11360   0.967E+00    0.743E+00
DAV:   3    -0.190040312877E+03    0.50989E+00   -0.13565E+00 12360   0.865E+00    0.414E+00
DAV:   4    -0.189834175645E+03    0.20614E+00   -0.71117E-01 12760   0.408E+00    0.247E+00
DAV:   5    -0.189746388496E+03    0.87787E-01   -0.29144E-01 11720   0.188E+00    0.826E-01
DAV:   6    -0.189731510540E+03    0.14878E-01   -0.39384E-02 10600   0.706E-01    0.291E-01
DAV:   7    -0.189732935263E+03   -0.14247E-02   -0.87903E-03 12400   0.506E-01    0.427E-01
DAV:   8    -0.189731612824E+03    0.13224E-02   -0.30307E-03 11960   0.353E-01    0.150E-01
DAV:   9    -0.189731734724E+03   -0.12190E-03   -0.98144E-04 10440   0.119E-01    0.126E-01
DAV:  10    -0.189731730045E+03    0.46787E-05   -0.62569E-04 10040   0.117E-01
   3 F= -.18973173E+03 E0= -.18961117E+03  d E =-.108679E+01
       N       E                     dE             d eps       ncg     rms          rms(c)
DAV:   1    -0.191289460697E+03   -0.15577E+01   -0.74844E+01  8160   0.197E+01    0.462E+00
DAV:   2    -0.191184145277E+03    0.10532E+00   -0.54977E+00 13120   0.839E+00    0.526E+00
DAV:   3    -0.191199061759E+03   -0.14916E-01   -0.16395E+00 12160   0.923E+00    0.628E+00
DAV:   4    -0.190857406929E+03    0.34165E+00   -0.13159E+00 12880   0.719E+00    0.309E+00
DAV:   5    -0.190838876755E+03    0.18530E-01   -0.51246E-01 12000   0.459E+00    0.325E+00
DAV:   6    -0.190714313390E+03    0.12456E+00   -0.21688E-01 12280   0.330E+00    0.102E+00
DAV:   7    -0.190704439775E+03    0.98736E-02   -0.42490E-02 12560   0.103E+00    0.460E-01
DAV:   8    -0.190703346710E+03    0.10931E-02   -0.10490E-02 11440   0.610E-01    0.497E-01
DAV:   9    -0.190701212355E+03    0.21344E-02   -0.39980E-03 11400   0.460E-01    0.156E-01
DAV:  10    -0.190701451091E+03   -0.23874E-03   -0.11513E-03 10360   0.144E-01    0.118E-01
DAV:  11    -0.190701316000E+03    0.13509E-03   -0.84695E-04 10520   0.104E-01    0.529E-02
DAV:  12    -0.190701295893E+03    0.20107E-04   -0.15269E-04  7880   0.462E-02
   4 F= -.19070130E+03 E0= -.19059678E+03  d E =-.969566E+00
       N       E                     dE             d eps       ncg     rms          rms(c)
DAV:   1    -0.192028658476E+03   -0.13273E+01   -0.15591E+02  8160   0.279E+01    0.566E+00
DAV:   2    -0.191886687422E+03    0.14197E+00   -0.94905E+00 12240   0.932E+00    0.502E+00
DAV:   3    -0.192208623722E+03   -0.32194E+00   -0.24420E+00 11240   0.109E+01    0.935E+00
DAV:   4    -0.191584765707E+03    0.62386E+00   -0.28535E+00 12080   0.114E+01    0.406E+00
DAV:   5    -0.191521942804E+03    0.62823E-01   -0.83020E-01 12280   0.596E+00    0.374E+00
DAV:   6    -0.191334791754E+03    0.18715E+00   -0.29613E-01 12240   0.397E+00    0.937E-01
DAV:   7    -0.191328455441E+03    0.63363E-02   -0.55623E-02 12240   0.114E+00    0.570E-01
DAV:   8    -0.191326289815E+03    0.21656E-02   -0.18177E-02 11880   0.800E-01    0.595E-01
DAV:   9    -0.191323084747E+03    0.32051E-02   -0.61765E-03 11960   0.561E-01    0.183E-01
DAV:  10    -0.191323494241E+03   -0.40949E-03   -0.20520E-03 10920   0.177E-01    0.126E-01
DAV:  11    -0.191323251316E+03    0.24293E-03   -0.81273E-04 11240   0.108E-01    0.478E-02
DAV:  12    -0.191323253951E+03   -0.26355E-05   -0.11911E-04  6560   0.403E-02
   5 F= -.19132325E+03 E0= -.19122258E+03  d E =-.621958E+00
       N       E                     dE             d eps       ncg     rms          rms(c)
DAV:   1    -0.191363972193E+03   -0.40721E-01   -0.36313E+00  8160   0.401E+00    0.512E-01
DAV:   2    -0.191405593135E+03   -0.41621E-01   -0.20403E-01 12720   0.234E+00    0.183E+00
DAV:   3    -0.191375432582E+03    0.30161E-01   -0.70617E-02 12040   0.181E+00    0.446E-01
DAV:   4    -0.191375375589E+03    0.56994E-04   -0.93810E-03 11120   0.669E-01    0.454E-01
DAV:   5    -0.191373288524E+03    0.20871E-02   -0.50936E-03 10280   0.514E-01    0.194E-01
DAV:   6    -0.191373182805E+03    0.10572E-03   -0.16622E-03 10800   0.223E-01    0.165E-01
DAV:   7    -0.191373502298E+03   -0.31949E-03   -0.21393E-03 10440   0.330E-01    0.244E-01
DAV:   8    -0.191372875293E+03    0.62701E-03   -0.10225E-03  8920   0.220E-01    0.334E-02
DAV:   9    -0.191372888160E+03   -0.12867E-04   -0.91592E-05  5880   0.373E-02
   6 F= -.19137289E+03 E0= -.19127049E+03  d E =-.496342E-01
       N       E                     dE             d eps       ncg     rms          rms(c)
DAV:   1    -0.191417778643E+03   -0.44903E-01   -0.48579E+00  8160   0.463E+00    0.527E-01
DAV:   2    -0.191448679752E+03   -0.30901E-01   -0.16252E-01 12960   0.179E+00    0.163E+00
DAV:   3    -0.191426115786E+03    0.22564E-01   -0.66099E-02 12240   0.173E+00    0.548E-01
DAV:   4    -0.191424367565E+03    0.17482E-02   -0.97310E-03 11080   0.597E-01    0.400E-01
DAV:   5    -0.191423160004E+03    0.12076E-02   -0.56469E-03 10760   0.539E-01    0.273E-01
DAV:   6    -0.191422696713E+03    0.46329E-03   -0.27817E-03 10360   0.328E-01    0.196E-01
DAV:   7    -0.191422928591E+03   -0.23188E-03   -0.25417E-03 11280   0.355E-01    0.243E-01
DAV:   8    -0.191422317894E+03    0.61070E-03   -0.11630E-03  9360   0.234E-01    0.454E-02
DAV:   9    -0.191422308012E+03    0.98823E-05   -0.10090E-04  5640   0.442E-02
   7 F= -.19142231E+03 E0= -.19131866E+03  d E =-.494199E-01
       N       E                     dE             d eps       ncg     rms          rms(c)
DAV:   1    -0.191438153993E+03   -0.15836E-01   -0.44243E-01  8160   0.142E+00    0.198E-01
DAV:   2    -0.191441286635E+03   -0.31326E-02   -0.18384E-02 12160   0.670E-01    0.546E-01
DAV:   3    -0.191438569119E+03    0.27175E-02   -0.67901E-03 11520   0.579E-01    0.174E-01
DAV:   4    -0.191438663650E+03   -0.94531E-04   -0.15614E-03  9840   0.277E-01    0.204E-01
DAV:   5    -0.191438274023E+03    0.38963E-03   -0.11646E-03  9880   0.248E-01    0.994E-02
DAV:   6    -0.191438213692E+03    0.60331E-04   -0.42043E-04  7680   0.117E-01
   8 F= -.19143821E+03 E0= -.19133430E+03  d E =-.159057E-01
       N       E                     dE             d eps       ncg     rms          rms(c)
DAV:   1    -0.191453340729E+03   -0.15067E-01   -0.56357E-01  8160   0.159E+00    0.233E-01
DAV:   2    -0.191462845200E+03   -0.95045E-02   -0.35462E-02 12840   0.109E+00    0.941E-01
DAV:   3    -0.191454427176E+03    0.84180E-02   -0.17277E-02 11160   0.872E-01    0.185E-01
DAV:   4    -0.191454555240E+03   -0.12806E-03   -0.18561E-03  9800   0.298E-01    0.201E-01
DAV:   5    -0.191454126013E+03    0.42923E-03   -0.86896E-04 10080   0.207E-01    0.661E-02
DAV:   6    -0.191454164771E+03   -0.38758E-04   -0.25259E-04  6920   0.981E-02
   9 F= -.19145416E+03 E0= -.19134983E+03  d E =-.159511E-01
       N       E                     dE             d eps       ncg     rms          rms(c)
DAV:   1    -0.191496242344E+03   -0.42116E-01   -0.31668E+00  8160   0.374E+00    0.428E-01
DAV:   2    -0.191521389051E+03   -0.25147E-01   -0.10713E-01 13360   0.160E+00    0.150E+00
DAV:   3    -0.191500387875E+03    0.21001E-01   -0.42119E-02 12440   0.147E+00    0.318E-01
DAV:   4    -0.191500344929E+03    0.42947E-04   -0.42923E-03 11520   0.393E-01    0.332E-01
DAV:   5    -0.191499537302E+03    0.80763E-03   -0.37272E-03 12240   0.420E-01    0.214E-01
DAV:   6    -0.191499500901E+03    0.36401E-04   -0.20325E-03  9920   0.273E-01    0.179E-01
DAV:   7    -0.191499376081E+03    0.12482E-03   -0.14943E-03 10120   0.272E-01    0.145E-01
DAV:   8    -0.191499106011E+03    0.27007E-03   -0.41930E-04  8000   0.138E-01    0.206E-02
DAV:   9    -0.191499115120E+03   -0.91082E-05   -0.53711E-05  6280   0.268E-02
  10 F= -.19149912E+03 E0= -.19139521E+03  d E =-.449503E-01
       N       E                     dE             d eps       ncg     rms          rms(c)
DAV:   1    -0.191466433875E+03    0.32672E-01   -0.16392E+00  8160   0.271E+00    0.340E-01
DAV:   2    -0.191478023046E+03   -0.11589E-01   -0.57516E-02 13480   0.123E+00    0.103E+00
DAV:   3    -0.191468014156E+03    0.10009E-01   -0.21101E-02 12000   0.105E+00    0.279E-01
DAV:   4    -0.191468071046E+03   -0.56889E-04   -0.36229E-03 10160   0.421E-01    0.301E-01
DAV:   5    -0.191467210708E+03    0.86034E-03   -0.28227E-03 10440   0.390E-01    0.158E-01
DAV:   6    -0.191467088866E+03    0.12184E-03   -0.11406E-03 10320   0.194E-01    0.121E-01
DAV:   7    -0.191467101216E+03   -0.12350E-04   -0.90736E-04  8680   0.202E-01
  11 F= -.19146710E+03 E0= -.19136284E+03  d E =0.320139E-01
       N       E                     dE             d eps       ncg     rms          rms(c)
DAV:   1    -0.191532140749E+03   -0.65052E-01   -0.71553E+00  8160   0.566E+00    0.680E-01
DAV:   2    -0.191581700208E+03   -0.49559E-01   -0.25164E-01 13080   0.248E+00    0.217E+00
DAV:   3    -0.191541268436E+03    0.40432E-01   -0.96531E-02 12240   0.218E+00    0.569E-01
DAV:   4    -0.191541365190E+03   -0.96754E-04   -0.16003E-02 12240   0.847E-01    0.649E-01
DAV:   5    -0.191537643838E+03    0.37214E-02   -0.12309E-02 11600   0.791E-01    0.357E-01
DAV:   6    -0.191537492322E+03    0.15152E-03   -0.65085E-03 11120   0.489E-01    0.342E-01
DAV:   7    -0.191536832071E+03    0.66025E-03   -0.47980E-03 11640   0.477E-01    0.222E-01
DAV:   8    -0.191536203452E+03    0.62862E-03   -0.11221E-03  9560   0.202E-01    0.435E-02
DAV:   9    -0.191536181853E+03    0.21599E-04   -0.13230E-04  6680   0.425E-02
  12 F= -.19153618E+03 E0= -.19143279E+03  d E =-.690806E-01
       N       E                     dE             d eps       ncg     rms          rms(c)
DAV:   1    -0.191546333508E+03   -0.10130E-01   -0.14476E-01  8160   0.803E-01    0.856E-02
DAV:   2    -0.191547002039E+03   -0.66853E-03   -0.44271E-03 12200   0.272E-01    0.220E-01
DAV:   3    -0.191546590673E+03    0.41137E-03   -0.12896E-03  9920   0.249E-01    0.909E-02
DAV:   4    -0.191546556952E+03    0.33721E-04   -0.20087E-04  5680   0.947E-02
  13 F= -.19154656E+03 E0= -.19144353E+03  d E =-.103751E-01
       N       E                     dE             d eps       ncg     rms          rms(c)
DAV:   1    -0.191549097040E+03   -0.25064E-02   -0.16458E-01  8160   0.908E-01    0.231E-01
DAV:   2    -0.191553399445E+03   -0.43024E-02   -0.17626E-02 11560   0.870E-01    0.690E-01
DAV:   3    -0.191548390287E+03    0.50092E-02   -0.85346E-03 11200   0.699E-01    0.174E-01
DAV:   4    -0.191548702447E+03   -0.31216E-03   -0.22805E-03  9560   0.327E-01    0.266E-01
DAV:   5    -0.191548091837E+03    0.61061E-03   -0.18401E-03  9520   0.284E-01    0.116E-01
DAV:   6    -0.191547935466E+03    0.15637E-03   -0.56346E-04  8520   0.110E-01    0.359E-02
DAV:   7    -0.191547920184E+03    0.15282E-04   -0.10588E-04  7080   0.383E-02
  14 F= -.19154792E+03 E0= -.19144527E+03  d E =-.136323E-02
       N       E                     dE             d eps       ncg     rms          rms(c)
DAV:   1    -0.191604014302E+03   -0.56079E-01   -0.43114E+00  8160   0.443E+00    0.533E-01
DAV:   2    -0.191629426793E+03   -0.25412E-01   -0.15776E-01 12640   0.184E+00    0.146E+00
DAV:   3    -0.191611062336E+03    0.18364E-01   -0.52081E-02 12320   0.160E+00    0.500E-01
DAV:   4    -0.191610681290E+03    0.38105E-03   -0.11199E-02 11560   0.702E-01    0.498E-01
DAV:   5    -0.191608488357E+03    0.21929E-02   -0.75985E-03 11240   0.636E-01    0.298E-01
DAV:   6    -0.191608062485E+03    0.42587E-03   -0.38644E-03 10240   0.365E-01    0.226E-01
DAV:   7    -0.191608127919E+03   -0.65434E-04   -0.32191E-03 11360   0.388E-01    0.242E-01
DAV:   8    -0.191607445864E+03    0.68205E-03   -0.11787E-03  9120   0.223E-01    0.348E-02
DAV:   9    -0.191607443240E+03    0.26240E-05   -0.94109E-05  6040   0.371E-02
  15 F= -.19160744E+03 E0= -.19150629E+03  d E =-.595231E-01
       N       E                     dE             d eps       ncg     rms          rms(c)
DAV:   1    -0.191668984851E+03   -0.61539E-01   -0.51764E+00  8160   0.484E+00    0.533E-01
DAV:   2    -0.191696449329E+03   -0.27464E-01   -0.16920E-01 12320   0.181E+00    0.153E+00
DAV:   3    -0.191677239149E+03    0.19210E-01   -0.59369E-02 12240   0.161E+00    0.487E-01
DAV:   4    -0.191676232424E+03    0.10067E-02   -0.86412E-03 11480   0.586E-01    0.433E-01
DAV:   5    -0.191674821752E+03    0.14107E-02   -0.64826E-03 11320   0.581E-01    0.297E-01
DAV:   6    -0.191674441260E+03    0.38049E-03   -0.39521E-03 11120   0.370E-01    0.200E-01
DAV:   7    -0.191674327789E+03    0.11347E-03   -0.24439E-03 11480   0.334E-01    0.191E-01
DAV:   8    -0.191673880846E+03    0.44694E-03   -0.77018E-04  9280   0.196E-01    0.350E-02
DAV:   9    -0.191673871806E+03    0.90397E-05   -0.81511E-05  6080   0.380E-02
  16 F= -.19167387E+03 E0= -.19157528E+03  d E =-.664286E-01
       N       E                     dE             d eps       ncg     rms          rms(c)
DAV:   1    -0.191671614083E+03    0.22668E-02   -0.60572E-03  8160   0.166E-01    0.180E-02
DAV:   2    -0.191671630491E+03   -0.16409E-04   -0.14057E-04  7960   0.535E-02
  17 F= -.19167163E+03 E0= -.19157296E+03  d E =0.224131E-02
       N       E                     dE             d eps       ncg     rms          rms(c)
DAV:   1    -0.191762541738E+03   -0.90928E-01   -0.11701E+01  8160   0.733E+00    0.753E-01
DAV:   2    -0.191791869550E+03   -0.29328E-01   -0.30255E-01 12280   0.202E+00    0.133E+00
DAV:   3    -0.191781156278E+03    0.10713E-01   -0.71326E-02 12360   0.190E+00    0.918E-01
DAV:   4    -0.191774175116E+03    0.69812E-02   -0.20533E-02 12200   0.961E-01    0.489E-01
DAV:   5    -0.191773327972E+03    0.84714E-03   -0.13321E-02 12080   0.821E-01    0.484E-01
DAV:   6    -0.191771360884E+03    0.19671E-02   -0.75480E-03 12120   0.592E-01    0.226E-01
DAV:   7    -0.191771216777E+03    0.14411E-03   -0.32876E-03 11440   0.374E-01    0.241E-01
DAV:   8    -0.191770597311E+03    0.61947E-03   -0.15726E-03  9920   0.279E-01    0.706E-02
DAV:   9    -0.191770547350E+03    0.49961E-04   -0.21508E-04  6560   0.744E-02
  18 F= -.19177055E+03 E0= -.19167787E+03  d E =-.989169E-01
       N       E                     dE             d eps       ncg     rms          rms(c)
DAV:   1    -0.191738752829E+03    0.31844E-01   -0.20588E+00  8160   0.313E+00    0.441E-01
DAV:   2    -0.191752839275E+03   -0.14086E-01   -0.77213E-02 12320   0.148E+00    0.123E+00
DAV:   3    -0.191738300404E+03    0.14539E-01   -0.36062E-02 12200   0.130E+00    0.307E-01
DAV:   4    -0.191738337387E+03   -0.36982E-04   -0.69104E-03 12240   0.540E-01    0.378E-01
DAV:   5    -0.191737213195E+03    0.11242E-02   -0.56482E-03 11640   0.550E-01    0.258E-01
DAV:   6    -0.191736473908E+03    0.73929E-03   -0.25734E-03 11080   0.307E-01    0.127E-01
DAV:   7    -0.191736582527E+03   -0.10862E-03   -0.12244E-03 10640   0.238E-01    0.171E-01
DAV:   8    -0.191736285159E+03    0.29737E-03   -0.51424E-04  8800   0.159E-01    0.306E-02
DAV:   9    -0.191736283193E+03    0.19665E-05   -0.53501E-05  5960   0.303E-02
  19 F= -.19173628E+03 E0= -.19164072E+03  d E =0.342642E-01
       N       E                     dE             d eps       ncg     rms          rms(c)
DAV:   1    -0.191795812823E+03   -0.59528E-01   -0.41638E+00  8160   0.436E+00    0.468E-01
DAV:   2    -0.191815606040E+03   -0.19793E-01   -0.13325E-01 12120   0.152E+00    0.127E+00
DAV:   3    -0.191802541186E+03    0.13065E-01   -0.44424E-02 12240   0.138E+00    0.420E-01
DAV:   4    -0.191800752440E+03    0.17887E-02   -0.47696E-03 11440   0.383E-01    0.220E-01
DAV:   5    -0.191800839996E+03   -0.87556E-04   -0.36387E-03 12760   0.426E-01    0.273E-01
DAV:   6    -0.191800407583E+03    0.43241E-03   -0.31076E-03 11560   0.382E-01    0.166E-01
DAV:   7    -0.191800163082E+03    0.24450E-03   -0.12585E-03  9640   0.222E-01    0.121E-01
DAV:   8    -0.191800002095E+03    0.16099E-03   -0.33030E-04  8840   0.139E-01    0.361E-02
DAV:   9    -0.191799991179E+03    0.10916E-04   -0.58603E-05  6160   0.444E-02
  20 F= -.19179999E+03 E0= -.19170774E+03  d E =-.637080E-01
       N       E                     dE             d eps       ncg     rms          rms(c)
DAV:   1    -0.191802967975E+03   -0.29659E-02   -0.14979E-02  8160   0.269E-01    0.414E-02
DAV:   2    -0.191803046442E+03   -0.78467E-04   -0.75868E-04 10760   0.122E-01
  21 F= -.19180305E+03 E0= -.19171094E+03  d E =-.305526E-02
       N       E                     dE             d eps       ncg     rms          rms(c)
DAV:   1    -0.191863270225E+03   -0.60302E-01   -0.41344E+00  8160   0.436E+00    0.497E-01
DAV:   2    -0.191886525255E+03   -0.23255E-01   -0.13811E-01 12120   0.168E+00    0.142E+00
DAV:   3    -0.191869225453E+03    0.17300E-01   -0.46758E-02 12400   0.150E+00    0.396E-01
DAV:   4    -0.191868213834E+03    0.10116E-02   -0.59841E-03 11440   0.458E-01    0.324E-01
DAV:   5    -0.191867505683E+03    0.70815E-03   -0.47312E-03 12240   0.509E-01    0.249E-01
DAV:   6    -0.191867199573E+03    0.30611E-03   -0.25134E-03 11480   0.328E-01    0.163E-01
DAV:   7    -0.191867035345E+03    0.16423E-03   -0.14601E-03 10560   0.270E-01    0.141E-01
DAV:   8    -0.191866788107E+03    0.24724E-03   -0.46930E-04  9000   0.157E-01    0.294E-02
DAV:   9    -0.191866785298E+03    0.28085E-05   -0.60984E-05  5920   0.359E-02
  22 F= -.19186679E+03 E0= -.19177824E+03  d E =-.637389E-01
       N       E                     dE             d eps       ncg     rms          rms(c)
DAV:   1    -0.191961037205E+03   -0.94249E-01   -0.13317E+01  8160   0.782E+00    0.868E-01
DAV:   2    -0.192027347306E+03   -0.66310E-01   -0.42961E-01 12240   0.289E+00    0.217E+00
DAV:   3    -0.191983137288E+03    0.44210E-01   -0.11366E-01 12280   0.254E+00    0.733E-01
DAV:   4    -0.191982472307E+03    0.66498E-03   -0.22455E-02 11760   0.111E+00    0.764E-01
DAV:   5    -0.191976309329E+03    0.61630E-02   -0.16189E-02 12320   0.998E-01    0.330E-01
DAV:   6    -0.191976255816E+03    0.53513E-04   -0.62192E-03 12720   0.494E-01    0.300E-01
DAV:   7    -0.191975748906E+03    0.50691E-03   -0.46206E-03 11520   0.523E-01    0.248E-01
DAV:   8    -0.191974936335E+03    0.81257E-03   -0.14231E-03 10160   0.268E-01    0.405E-02
DAV:   9    -0.191974941229E+03   -0.48943E-05   -0.17449E-04  6360   0.496E-02
  23 F= -.19197494E+03 E0= -.19189285E+03  d E =-.108156E+00
       N       E                     dE             d eps       ncg     rms          rms(c)
DAV:   1    -0.192020553928E+03   -0.45618E-01   -0.31324E+00  8160   0.384E+00    0.476E-01
DAV:   2    -0.192030508260E+03   -0.99543E-02   -0.11464E-01 11480   0.120E+00    0.801E-01
DAV:   3    -0.192027234872E+03    0.32734E-02   -0.25580E-02 12280   0.122E+00    0.562E-01
DAV:   4    -0.192023309011E+03    0.39259E-02   -0.58783E-03 11560   0.538E-01    0.160E-01
DAV:   5    -0.192023763568E+03   -0.45456E-03   -0.30027E-03 12000   0.371E-01    0.266E-01
DAV:   6    -0.192022996056E+03    0.76751E-03   -0.20626E-03 11680   0.371E-01    0.113E-01
DAV:   7    -0.192022841509E+03    0.15455E-03   -0.45368E-04  9000   0.144E-01    0.494E-02
DAV:   8    -0.192022824583E+03    0.16926E-04   -0.13931E-04  8160   0.856E-02
  24 F= -.19202282E+03 E0= -.19194281E+03  d E =-.478834E-01
       N       E                     dE             d eps       ncg     rms          rms(c)
DAV:   1    -0.192058123599E+03   -0.35282E-01   -0.24760E+00  8160   0.334E+00    0.406E-01
DAV:   2    -0.192071294724E+03   -0.13171E-01   -0.94587E-02 11200   0.145E+00    0.884E-01
DAV:   3    -0.192062626622E+03    0.86681E-02   -0.18305E-02 12120   0.113E+00    0.296E-01
DAV:   4    -0.192062548114E+03    0.78508E-04   -0.37583E-03 11360   0.483E-01    0.330E-01
DAV:   5    -0.192061632332E+03    0.91578E-03   -0.28070E-03 11200   0.446E-01    0.174E-01
DAV:   6    -0.192061478745E+03    0.15359E-03   -0.12668E-03 10720   0.207E-01    0.109E-01
DAV:   7    -0.192061455876E+03    0.22869E-04   -0.81927E-04 10000   0.211E-01
  25 F= -.19206146E+03 E0= -.19198376E+03  d E =-.386313E-01
       N       E                     dE             d eps       ncg     rms          rms(c)
DAV:   1    -0.192082801191E+03   -0.21322E-01   -0.95825E-01  8160   0.213E+00    0.277E-01
DAV:   2    -0.192085220959E+03   -0.24198E-02   -0.37376E-02 11720   0.613E-01    0.349E-01
DAV:   3    -0.192085487952E+03   -0.26699E-03   -0.72632E-03 12240   0.685E-01    0.394E-01
DAV:   4    -0.192083672207E+03    0.18157E-02   -0.24807E-03 11280   0.400E-01    0.926E-02
DAV:   5    -0.192083749638E+03   -0.77431E-04   -0.90837E-04 10280   0.193E-01
  26 F= -.19208375E+03 E0= -.19200690E+03  d E =-.222938E-01
       N       E                     dE             d eps       ncg     rms          rms(c)
DAV:   1    -0.192111691111E+03   -0.28019E-01   -0.23716E+00  8160   0.328E+00    0.397E-01
DAV:   2    -0.192123789809E+03   -0.12099E-01   -0.88106E-02 11160   0.128E+00    0.813E-01
DAV:   3    -0.192116281616E+03    0.75082E-02   -0.16973E-02 12080   0.110E+00    0.289E-01
DAV:   4    -0.192115880918E+03    0.40070E-03   -0.27969E-03 11280   0.417E-01    0.269E-01
DAV:   5    -0.192115311318E+03    0.56960E-03   -0.18870E-03 11280   0.389E-01    0.152E-01
DAV:   6    -0.192115240477E+03    0.70840E-04   -0.98747E-04 10400   0.191E-01
  27 F= -.19211524E+03 E0= -.19203981E+03  d E =-.314908E-01
       N       E                     dE             d eps       ncg     rms          rms(c)
DAV:   1    -0.192127779252E+03   -0.12468E-01   -0.45418E-01  8160   0.148E+00    0.235E-01
DAV:   2    -0.192129768470E+03   -0.19892E-02   -0.22289E-02 12400   0.614E-01    0.399E-01
DAV:   3    -0.192128547060E+03    0.12214E-02   -0.67487E-03 12040   0.636E-01    0.254E-01
DAV:   4    -0.192127802291E+03    0.74477E-03   -0.15251E-03  9880   0.278E-01    0.107E-01
DAV:   5    -0.192127879656E+03   -0.77365E-04   -0.80307E-04 10240   0.241E-01
  28 F= -.19212788E+03 E0= -.19205298E+03  d E =-.126392E-01
       N       E                     dE             d eps       ncg     rms          rms(c)
DAV:   1    -0.192146838673E+03   -0.19036E-01   -0.15710E+00  8160   0.267E+00    0.301E-01
DAV:   2    -0.192151660667E+03   -0.48220E-02   -0.54043E-02 11160   0.804E-01    0.413E-01
DAV:   3    -0.192150581827E+03    0.10788E-02   -0.78917E-03 12040   0.730E-01    0.311E-01
DAV:   4    -0.192149540938E+03    0.10409E-02   -0.20293E-03 11560   0.367E-01    0.161E-01
DAV:   5    -0.192149556623E+03   -0.15685E-04   -0.11480E-03 11040   0.295E-01    0.166E-01
DAV:   6    -0.192149366991E+03    0.18963E-03   -0.79033E-04 10680   0.207E-01    0.754E-02
DAV:   7    -0.192149264018E+03    0.10297E-03   -0.19054E-04  6520   0.755E-02    0.270E-02
DAV:   8    -0.192149270070E+03   -0.60521E-05   -0.76125E-05  7000   0.644E-02
  29 F= -.19214927E+03 E0= -.19207524E+03  d E =-.213904E-01
       N       E                     dE             d eps       ncg     rms          rms(c)
DAV:   1    -0.192167850116E+03   -0.18586E-01   -0.19010E+00  8160   0.297E+00    0.348E-01
DAV:   2    -0.192172346679E+03   -0.44966E-02   -0.69724E-02 11360   0.694E-01    0.293E-01
DAV:   3    -0.192173441000E+03   -0.10943E-02   -0.89611E-03 12360   0.742E-01    0.447E-01
DAV:   4    -0.192170802864E+03    0.26381E-02   -0.32635E-03 11520   0.497E-01    0.961E-02
DAV:   5    -0.192170818640E+03   -0.15776E-04   -0.96230E-04 10360   0.109E-01
  30 F= -.19217082E+03 E0= -.19209741E+03  d E =-.215486E-01
       N       E                     dE             d eps       ncg     rms          rms(c)
DAV:   1    -0.192193652116E+03   -0.22849E-01   -0.11105E+01  8160   0.714E+00    0.794E-01
DAV:   2    -0.192226114833E+03   -0.32463E-01   -0.38236E-01 11800   0.196E+00    0.975E-01
DAV:   3    -0.192221619710E+03    0.44951E-02   -0.52563E-02 12280   0.189E+00    0.840E-01
DAV:   4    -0.192212879357E+03    0.87404E-02   -0.14117E-02 11960   0.979E-01    0.329E-01
DAV:   5    -0.192214028874E+03   -0.11495E-02   -0.74445E-03 12600   0.744E-01    0.478E-01
DAV:   6    -0.192212224858E+03    0.18040E-02   -0.58417E-03 12520   0.630E-01    0.210E-01
DAV:   7    -0.192211388524E+03    0.83633E-03   -0.15480E-03 11040   0.205E-01    0.445E-02
DAV:   8    -0.192211404307E+03   -0.15783E-04   -0.21736E-04  8120   0.749E-02
  31 F= -.19221140E+03 E0= -.19213962E+03  d E =-.405857E-01
       N       E                     dE             d eps       ncg     rms          rms(c)
DAV:   1    -0.192218315027E+03   -0.69265E-02   -0.42481E-01  8160   0.139E+00    0.151E-01
DAV:   2    -0.192219273726E+03   -0.95870E-03   -0.14582E-02 10640   0.340E-01    0.102E-01
DAV:   3    -0.192219495943E+03   -0.22222E-03   -0.13731E-03 12720   0.259E-01    0.179E-01
DAV:   4    -0.192219129833E+03    0.36611E-03   -0.68906E-04  9520   0.227E-01    0.652E-02
DAV:   5    -0.192219135865E+03   -0.60325E-05   -0.21614E-04  7360   0.103E-01
  32 F= -.19221914E+03 E0= -.19214759E+03  d E =-.773156E-02
       N       E                     dE             d eps       ncg     rms          rms(c)
DAV:   1    -0.192224022804E+03   -0.48930E-02   -0.17362E-01  8160   0.901E-01    0.129E-01
DAV:   2    -0.192225485775E+03   -0.14630E-02   -0.73368E-03 12480   0.468E-01    0.317E-01
DAV:   3    -0.192224220559E+03    0.12652E-02   -0.21116E-03 12120   0.406E-01    0.744E-02
DAV:   4    -0.192224290322E+03   -0.69763E-04   -0.27436E-04  8360   0.144E-01
  33 F= -.19222429E+03 E0= -.19215304E+03  d E =-.515446E-02
       N       E                     dE             d eps       ncg     rms          rms(c)
DAV:   1    -0.192229208615E+03   -0.49881E-02   -0.17613E-01  8160   0.912E-01    0.120E-01
DAV:   2    -0.192229765327E+03   -0.55671E-03   -0.57477E-03 12400   0.281E-01    0.185E-01
DAV:   3    -0.192229510408E+03    0.25492E-03   -0.10904E-03 11160   0.293E-01    0.119E-01
DAV:   4    -0.192229369485E+03    0.14092E-03   -0.26570E-04  7840   0.129E-01    0.445E-02
DAV:   5    -0.192229367828E+03    0.16566E-05   -0.14905E-04  6720   0.668E-02
  34 F= -.19222937E+03 E0= -.19215816E+03  d E =-.507751E-02
       N       E                     dE             d eps       ncg     rms          rms(c)
DAV:   1    -0.192233151492E+03   -0.37820E-02   -0.94959E-02  8160   0.669E-01    0.959E-02
DAV:   2    -0.192234006885E+03   -0.85539E-03   -0.43252E-03 10960   0.345E-01    0.247E-01
DAV:   3    -0.192233266635E+03    0.74025E-03   -0.13914E-03 10120   0.315E-01    0.564E-02
DAV:   4    -0.192233253440E+03    0.13194E-04   -0.75956E-05  5760   0.593E-02
  35 F= -.19223325E+03 E0= -.19216220E+03  d E =-.388561E-02
       N       E                     dE             d eps       ncg     rms          rms(c)
DAV:   1    -0.192232142762E+03    0.11239E-02   -0.18175E-02  8160   0.297E-01    0.538E-02
DAV:   2    -0.192232440823E+03   -0.29806E-03   -0.11642E-03 10480   0.222E-01    0.153E-01
DAV:   3    -0.192232126001E+03    0.31482E-03   -0.45435E-04  9520   0.182E-01    0.247E-02
DAV:   4    -0.192232135274E+03   -0.92733E-05   -0.36869E-05  5880   0.539E-02
  36 F= -.19223214E+03 E0= -.19216096E+03  d E =0.111817E-02
       N       E                     dE             d eps       ncg     rms          rms(c)
DAV:   1    -0.192228390647E+03    0.37354E-02   -0.12060E-01  8160   0.750E-01    0.923E-02
DAV:   2    -0.192228898269E+03   -0.50762E-03   -0.42957E-03 11320   0.282E-01    0.175E-01
DAV:   3    -0.192228605746E+03    0.29252E-03   -0.74303E-04 11120   0.244E-01    0.760E-02
DAV:   4    -0.192228546525E+03    0.59221E-04   -0.98922E-05  5880   0.875E-02
  37 F= -.19222855E+03 E0= -.19215728E+03  d E =0.358875E-02
       N       E                     dE             d eps       ncg     rms          rms(c)
DAV:   1    -0.192237562706E+03   -0.89570E-02   -0.64414E-01  8160   0.172E+00    0.199E-01
DAV:   2    -0.192239995223E+03   -0.24325E-02   -0.20780E-02 11000   0.632E-01    0.373E-01
DAV:   3    -0.192238632243E+03    0.13630E-02   -0.39008E-03 12080   0.535E-01    0.171E-01
DAV:   4    -0.192238339634E+03    0.29261E-03   -0.72381E-04  9880   0.211E-01    0.913E-02
DAV:   5    -0.192238326605E+03    0.13029E-04   -0.46349E-04  9520   0.164E-01
  38 F= -.19223833E+03 E0= -.19216722E+03  d E =-.978008E-02
       N       E                     dE             d eps       ncg     rms          rms(c)
DAV:   1    -0.192223278555E+03    0.15061E-01   -0.12926E+00  8160   0.245E+00    0.312E-01
DAV:   2    -0.192230427090E+03   -0.71485E-02   -0.46931E-02 11920   0.103E+00    0.697E-01
DAV:   3    -0.192225336673E+03    0.50904E-02   -0.12200E-02 11920   0.944E-01    0.252E-01
DAV:   4    -0.192224879605E+03    0.45707E-03   -0.21780E-03 11120   0.325E-01    0.174E-01
DAV:   5    -0.192224576662E+03    0.30294E-03   -0.13498E-03 10360   0.287E-01    0.126E-01
DAV:   6    -0.192224498037E+03    0.78626E-04   -0.69815E-04 10320   0.196E-01
  39 F= -.19222450E+03 E0= -.19215335E+03  d E =0.138286E-01
       N       E                     dE             d eps       ncg     rms          rms(c)
DAV:   1    -0.192220950465E+03    0.36262E-02   -0.15409E-01  8160   0.854E-01    0.119E-01
DAV:   2    -0.192221142185E+03   -0.19172E-03   -0.52593E-03 12560   0.251E-01    0.130E-01
DAV:   3    -0.192221138494E+03    0.36912E-05   -0.10547E-03 10960   0.259E-01    0.135E-01
DAV:   4    -0.192220917120E+03    0.22137E-03   -0.47969E-04  8160   0.177E-01    0.599E-02
DAV:   5    -0.192220907298E+03    0.98221E-05   -0.21941E-04  6560   0.106E-01
  40 F= -.19222091E+03 E0= -.19214990E+03  d E =0.359074E-02
       N       E                     dE             d eps       ncg     rms          rms(c)
DAV:   1    -0.192180528838E+03    0.40388E-01   -0.74783E+00  8160   0.588E+00    0.702E-01
DAV:   2    -0.192202099731E+03   -0.21571E-01   -0.24269E-01 11920   0.190E+00    0.103E+00
DAV:   3    -0.192196411426E+03    0.56883E-02   -0.41847E-02 12240   0.180E+00    0.767E-01
DAV:   4    -0.192189259462E+03    0.71520E-02   -0.98557E-03 11960   0.832E-01    0.271E-01
DAV:   5    -0.192190014481E+03   -0.75502E-03   -0.64990E-03 10880   0.622E-01    0.386E-01
DAV:   6    -0.192188569612E+03    0.14449E-02   -0.47137E-03 11040   0.550E-01    0.170E-01
DAV:   7    -0.192188205164E+03    0.36445E-03   -0.11648E-03 11800   0.242E-01    0.987E-02
DAV:   8    -0.192188128331E+03    0.76834E-04   -0.34936E-04  9360   0.153E-01
  41 F= -.19218813E+03 E0= -.19211708E+03  d E =0.327790E-01
       N       E                     dE             d eps       ncg     rms          rms(c)
DAV:   1    -0.192220909245E+03   -0.32704E-01   -0.16697E+01  8160   0.888E+00    0.989E-01
DAV:   2    -0.192254335683E+03   -0.33426E-01   -0.49967E-01 10880   0.216E+00    0.101E+00
DAV:   3    -0.192261263649E+03   -0.69280E-02   -0.87558E-02 11640   0.235E+00    0.129E+00
DAV:   4    -0.192239113596E+03    0.22150E-01   -0.30260E-02 11560   0.145E+00    0.303E-01
DAV:   5    -0.192239627606E+03   -0.51401E-03   -0.96983E-03 12560   0.580E-01    0.365E-01
DAV:   6    -0.192238412646E+03    0.12150E-02   -0.61996E-03 12040   0.659E-01    0.267E-01
DAV:   7    -0.192237494334E+03    0.91831E-03   -0.18037E-03 11640   0.331E-01    0.761E-02
DAV:   8    -0.192237417247E+03    0.77087E-04   -0.31393E-04  8280   0.810E-02
  42 F= -.19223742E+03 E0= -.19216670E+03  d E =-.492889E-01
       N       E                     dE             d eps       ncg     rms          rms(c)
DAV:   1    -0.192241834880E+03   -0.43405E-02   -0.20889E-01  8160   0.985E-01    0.126E-01
DAV:   2    -0.192242802888E+03   -0.96801E-03   -0.83870E-03 13040   0.350E-01    0.226E-01
DAV:   3    -0.192242329911E+03    0.47298E-03   -0.16783E-03 11360   0.349E-01    0.121E-01
DAV:   4    -0.192242188159E+03    0.14175E-03   -0.27496E-04  8120   0.130E-01    0.562E-02
DAV:   5    -0.192242201260E+03   -0.13101E-04   -0.17130E-04  7720   0.119E-01
  43 F= -.19224220E+03 E0= -.19217151E+03  d E =-.478401E-02
       N       E                     dE             d eps       ncg     rms          rms(c)
DAV:   1    -0.192245494141E+03   -0.33060E-02   -0.86221E-02  8160   0.635E-01    0.775E-02
DAV:   2    -0.192245894018E+03   -0.39988E-03   -0.30389E-03 12440   0.226E-01    0.155E-01
DAV:   3    -0.192245618967E+03    0.27505E-03   -0.73356E-04  9520   0.224E-01    0.638E-02
DAV:   4    -0.192245596057E+03    0.22910E-04   -0.98290E-05  5560   0.797E-02
  44 F= -.19224560E+03 E0= -.19217507E+03  d E =-.339480E-02
       N       E                     dE             d eps       ncg     rms          rms(c)
DAV:   1    -0.192245222777E+03    0.39619E-03   -0.58699E-03  8240   0.211E-01    0.559E-02
DAV:   2    -0.192245418631E+03   -0.19585E-03   -0.71215E-04 10520   0.197E-01    0.145E-01
DAV:   3    -0.192245163938E+03    0.25469E-03   -0.38645E-04  8480   0.182E-01    0.362E-02
DAV:   4    -0.192245163243E+03    0.69543E-06   -0.56942E-05  5560   0.512E-02
  45 F= -.19224516E+03 E0= -.19217471E+03  d E =0.432814E-03
       N       E                     dE             d eps       ncg     rms          rms(c)
DAV:   1    -0.192252032903E+03   -0.68690E-02   -0.39081E-01  8160   0.134E+00    0.164E-01
DAV:   2    -0.192253644316E+03   -0.16114E-02   -0.14332E-02 11400   0.482E-01    0.293E-01
DAV:   3    -0.192252786040E+03    0.85828E-03   -0.25445E-03 12280   0.444E-01    0.141E-01
DAV:   4    -0.192252627502E+03    0.15854E-03   -0.48022E-04  8640   0.182E-01    0.925E-02
DAV:   5    -0.192252573658E+03    0.53844E-04   -0.33126E-04  9000   0.164E-01
  46 F= -.19225257E+03 E0= -.19218246E+03  d E =-.741042E-02
       N       E                     dE             d eps       ncg     rms          rms(c)
DAV:   1    -0.192256809432E+03   -0.41819E-02   -0.14741E-01  8160   0.835E-01    0.125E-01
DAV:   2    -0.192257321600E+03   -0.51217E-03   -0.59290E-03 11480   0.323E-01    0.197E-01
DAV:   3    -0.192256972375E+03    0.34922E-03   -0.12960E-03 11080   0.317E-01    0.112E-01
DAV:   4    -0.192256875295E+03    0.97080E-04   -0.34570E-04  8360   0.155E-01
  47 F= -.19225688E+03 E0= -.19218734E+03  d E =-.430164E-02
       N       E                     dE             d eps       ncg     rms          rms(c)
DAV:   1    -0.192249017115E+03    0.79553E-02   -0.53751E-01  8160   0.160E+00    0.234E-01
DAV:   2    -0.192251304119E+03   -0.22870E-02   -0.24363E-02 12200   0.700E-01    0.398E-01
DAV:   3    -0.192249636021E+03    0.16681E-02   -0.49820E-03 11960   0.599E-01    0.176E-01
DAV:   4    -0.192249364020E+03    0.27200E-03   -0.11903E-03 10200   0.256E-01    0.150E-01
DAV:   5    -0.192249206814E+03    0.15721E-03   -0.83895E-04 11200   0.256E-01    0.115E-01
DAV:   6    -0.192249071686E+03    0.13513E-03   -0.39748E-04  8400   0.146E-01    0.423E-02
DAV:   7    -0.192249042633E+03    0.29053E-04   -0.96721E-05  6800   0.520E-02
  48 F= -.19224904E+03 E0= -.19217852E+03  d E =0.783266E-02
       N       E                     dE             d eps       ncg     rms          rms(c)
DAV:   1    -0.192255566951E+03   -0.64953E-02   -0.32245E-01  8160   0.121E+00    0.144E-01
DAV:   2    -0.192256851755E+03   -0.12848E-02   -0.10545E-02 11680   0.430E-01    0.274E-01
DAV:   3    -0.192256071457E+03    0.78030E-03   -0.22964E-03 12520   0.405E-01    0.121E-01
DAV:   4    -0.192255940393E+03    0.13106E-03   -0.34496E-04  8240   0.144E-01    0.689E-02
DAV:   5    -0.192255922172E+03    0.18221E-04   -0.27740E-04  8760   0.137E-01
  49 F= -.19225592E+03 E0= -.19218534E+03  d E =-.687954E-02
       N       E                     dE             d eps       ncg     rms          rms(c)
DAV:   1    -0.192254668738E+03    0.12717E-02   -0.10232E-02  8160   0.241E-01    0.513E-02
DAV:   2    -0.192255070905E+03   -0.40217E-03   -0.10027E-03 11320   0.234E-01    0.177E-01
DAV:   3    -0.192254659658E+03    0.41125E-03   -0.50990E-04  8600   0.209E-01    0.356E-02
DAV:   4    -0.192254651138E+03    0.85205E-05   -0.47218E-05  5600   0.416E-02
  50 F= -.19225465E+03 E0= -.19218413E+03  d E =0.127103E-02
       N       E                     dE             d eps       ncg     rms          rms(c)
DAV:   1    -0.192251733601E+03    0.29261E-02   -0.75281E-02  8160   0.604E-01    0.980E-02
DAV:   2    -0.192252215236E+03   -0.48164E-03   -0.35747E-03 10200   0.308E-01    0.209E-01
DAV:   3    -0.192251759933E+03    0.45530E-03   -0.92458E-04 10760   0.270E-01    0.716E-02
DAV:   4    -0.192251704070E+03    0.55864E-04   -0.15515E-04  6840   0.977E-02
  51 F= -.19225170E+03 E0= -.19218097E+03  d E =0.294707E-02
       N       E                     dE             d eps       ncg     rms          rms(c)
DAV:   1    -0.192261031517E+03   -0.92716E-02   -0.63628E-01  8160   0.171E+00    0.210E-01
DAV:   2    -0.192263942496E+03   -0.29110E-02   -0.22519E-02 11040   0.688E-01    0.412E-01
DAV:   3    -0.192262023302E+03    0.19192E-02   -0.45186E-03 12200   0.581E-01    0.155E-01
DAV:   4    -0.192261961204E+03    0.62099E-04   -0.87871E-04  9680   0.242E-01
  52 F= -.19226196E+03 E0= -.19219183E+03  d E =-.102571E-01
       N       E                     dE             d eps       ncg     rms          rms(c)
DAV:   1    -0.192255966455E+03    0.60568E-02   -0.20230E-01  8160   0.988E-01    0.121E-01
DAV:   2    -0.192257765519E+03   -0.17991E-02   -0.85588E-03 12080   0.494E-01    0.335E-01
DAV:   3    -0.192256275660E+03    0.14899E-02   -0.23560E-03 10600   0.416E-01    0.581E-02
DAV:   4    -0.192256321641E+03   -0.45981E-04   -0.20052E-04  7400   0.115E-01
  53 F= -.19225632E+03 E0= -.19218586E+03  d E =0.563956E-02
       N       E                     dE             d eps       ncg     rms          rms(c)
DAV:   1    -0.192253502804E+03    0.27729E-02   -0.14450E-01  8160   0.825E-01    0.119E-01
DAV:   2    -0.192253541661E+03   -0.38857E-04   -0.39188E-03 11200   0.196E-01    0.104E-01
DAV:   3    -0.192253529796E+03    0.11865E-04   -0.90735E-04 11120   0.222E-01
  54 F= -.19225353E+03 E0= -.19218304E+03  d E =0.279185E-02
       N       E                     dE             d eps       ncg     rms          rms(c)
DAV:   1    -0.192263362645E+03   -0.98210E-02   -0.78198E-01  8160   0.191E+00    0.215E-01
DAV:   2    -0.192266476426E+03   -0.31138E-02   -0.22375E-02 12160   0.681E-01    0.435E-01
DAV:   3    -0.192264262358E+03    0.22141E-02   -0.47679E-03 11920   0.605E-01    0.155E-01
DAV:   4    -0.192264242239E+03    0.20119E-04   -0.88290E-04  9720   0.245E-01
  55 F= -.19226424E+03 E0= -.19219442E+03  d E =-.107124E-01
       N       E                     dE             d eps       ncg     rms          rms(c)
DAV:   1    -0.192263619451E+03    0.64291E-03   -0.15928E-03 12360   0.241E-01    0.710E-02
DAV:   2    -0.192264398579E+03   -0.77913E-03   -0.13031E-03 10520   0.338E-01    0.254E-01
DAV:   3    -0.192263567566E+03    0.83101E-03   -0.82575E-04  9720   0.282E-01    0.300E-02
DAV:   4    -0.192263592535E+03   -0.24969E-04   -0.44250E-05  5600   0.617E-02
  56 F= -.19226359E+03 E0= -.19219359E+03  d E =0.649704E-03
       N       E                     dE             d eps       ncg     rms          rms(c)
DAV:   1    -0.192271037614E+03   -0.74700E-02   -0.40972E-01  8160   0.138E+00    0.180E-01
DAV:   2    -0.192273014637E+03   -0.19770E-02   -0.14515E-02 11080   0.546E-01    0.366E-01
DAV:   3    -0.192271595102E+03    0.14195E-02   -0.31566E-03 12240   0.500E-01    0.139E-01
DAV:   4    -0.192271444288E+03    0.15081E-03   -0.53018E-04  8920   0.172E-01    0.821E-02
DAV:   5    -0.192271414060E+03    0.30228E-04   -0.40739E-04  9480   0.161E-01
  57 F= -.19227141E+03 E0= -.19220174E+03  d E =-.782153E-02
       N       E                     dE             d eps       ncg     rms          rms(c)
DAV:   1    -0.192278050823E+03   -0.66065E-02   -0.31892E-01  8160   0.124E+00    0.170E-01
DAV:   2    -0.192279164094E+03   -0.11133E-02   -0.10829E-02 12320   0.456E-01    0.279E-01
DAV:   3    -0.192278364138E+03    0.79996E-03   -0.28637E-03 12080   0.453E-01    0.150E-01
DAV:   4    -0.192278165973E+03    0.19816E-03   -0.63470E-04  9000   0.186E-01    0.953E-02
DAV:   5    -0.192278123126E+03    0.42847E-04   -0.36706E-04  9280   0.172E-01
  58 F= -.19227812E+03 E0= -.19220860E+03  d E =-.670907E-02
       N       E                     dE             d eps       ncg     rms          rms(c)
DAV:   1    -0.192281374117E+03   -0.32081E-02   -0.90004E-02  8160   0.652E-01    0.906E-02
DAV:   2    -0.192281827405E+03   -0.45329E-03   -0.34237E-03 11560   0.266E-01    0.172E-01
DAV:   3    -0.192281467301E+03    0.36010E-03   -0.10268E-03 10880   0.255E-01    0.754E-02
DAV:   4    -0.192281435848E+03    0.31453E-04   -0.18282E-04  6960   0.109E-01
  59 F= -.19228144E+03 E0= -.19221207E+03  d E =-.331272E-02
       N       E                     dE             d eps       ncg     rms          rms(c)
DAV:   1    -0.192289007215E+03   -0.75399E-02   -0.46214E-01  8160   0.145E+00    0.184E-01
DAV:   2    -0.192290362551E+03   -0.13553E-02   -0.14033E-02 11000   0.457E-01    0.290E-01
DAV:   3    -0.192289691410E+03    0.67114E-03   -0.28255E-03 12280   0.462E-01    0.182E-01
DAV:   4    -0.192289351614E+03    0.33980E-03   -0.66044E-04  9920   0.204E-01    0.748E-02
DAV:   5    -0.192289353654E+03   -0.20395E-05   -0.38938E-04  9360   0.129E-01
  60 F= -.19228935E+03 E0= -.19222023E+03  d E =-.791781E-02
       N       E                     dE             d eps       ncg     rms          rms(c)
DAV:   1    -0.192302019565E+03   -0.12668E-01   -0.17577E+00  8160   0.283E+00    0.346E-01
DAV:   2    -0.192307643508E+03   -0.56239E-02   -0.56732E-02 11080   0.913E-01    0.550E-01
DAV:   3    -0.192305255490E+03    0.23880E-02   -0.10524E-02 12440   0.900E-01    0.331E-01
DAV:   4    -0.192303951440E+03    0.13040E-02   -0.19868E-03 11320   0.360E-01    0.136E-01
DAV:   5    -0.192304236532E+03   -0.28509E-03   -0.14703E-03 11280   0.338E-01    0.199E-01
DAV:   6    -0.192303797117E+03    0.43941E-03   -0.83876E-04 10040   0.241E-01    0.648E-02
DAV:   7    -0.192303768290E+03    0.28828E-04   -0.16986E-04  8560   0.112E-01
  61 F= -.19230377E+03 E0= -.19223525E+03  d E =-.144146E-01
       N       E                     dE             d eps       ncg     rms          rms(c)
DAV:   1    -0.192318077758E+03   -0.14281E-01   -0.69516E+00  8160   0.564E+00    0.652E-01
DAV:   2    -0.192337381974E+03   -0.19304E-01   -0.22059E-01 10880   0.165E+00    0.906E-01
DAV:   3    -0.192332879528E+03    0.45024E-02   -0.35944E-02 12520   0.165E+00    0.697E-01
DAV:   4    -0.192327106018E+03    0.57735E-02   -0.84734E-03 12120   0.795E-01    0.270E-01
DAV:   5    -0.192327427046E+03   -0.32103E-03   -0.52133E-03 11560   0.610E-01    0.337E-01
DAV:   6    -0.192326501442E+03    0.92560E-03   -0.34931E-03 11080   0.492E-01    0.180E-01
DAV:   7    -0.192326037191E+03    0.46425E-03   -0.10007E-03 10840   0.249E-01    0.898E-02
DAV:   8    -0.192325959771E+03    0.77419E-04   -0.22661E-04  8480   0.121E-01
  62 F= -.19232596E+03 E0= -.19225877E+03  d E =-.221915E-01
       N       E                     dE             d eps       ncg     rms          rms(c)
DAV:   1    -0.192330285803E+03   -0.42486E-02   -0.69684E-01  8160   0.178E+00    0.220E-01
DAV:   2    -0.192332830993E+03   -0.25452E-02   -0.28173E-02 10760   0.615E-01    0.318E-01
DAV:   3    -0.192332219338E+03    0.61165E-03   -0.43784E-03 13000   0.578E-01    0.234E-01
DAV:   4    -0.192331589360E+03    0.62998E-03   -0.94643E-04  9840   0.271E-01    0.924E-02
DAV:   5    -0.192331655903E+03   -0.66543E-04   -0.56854E-04 10240   0.212E-01
  63 F= -.19233166E+03 E0= -.19226481E+03  d E =-.569613E-02
       N       E                     dE             d eps       ncg     rms          rms(c)
DAV:   1    -0.192333965434E+03   -0.23761E-02   -0.20486E-01  8160   0.979E-01    0.132E-01
DAV:   2    -0.192334592107E+03   -0.62667E-03   -0.79046E-03 11240   0.317E-01    0.178E-01
DAV:   3    -0.192334400634E+03    0.19147E-03   -0.14918E-03 12360   0.334E-01    0.137E-01
DAV:   4    -0.192334196848E+03    0.20379E-03   -0.36831E-04  8400   0.169E-01    0.642E-02
DAV:   5    -0.192334205828E+03   -0.89800E-05   -0.20721E-04  7880   0.130E-01
  64 F= -.19233421E+03 E0= -.19226778E+03  d E =-.254993E-02
       N       E                     dE             d eps       ncg     rms          rms(c)
DAV:   1    -0.192337405173E+03   -0.32083E-02   -0.10176E+00  8160   0.216E+00    0.256E-01
DAV:   2    -0.192340860477E+03   -0.34553E-02   -0.39684E-02 10960   0.702E-01    0.347E-01
DAV:   3    -0.192340352516E+03    0.50796E-03   -0.54747E-03 12680   0.656E-01    0.286E-01
DAV:   4    -0.192339315689E+03    0.10368E-02   -0.12255E-03 10200   0.314E-01    0.870E-02
DAV:   5    -0.192339555877E+03   -0.24019E-03   -0.79780E-04 10320   0.240E-01    0.159E-01
DAV:   6    -0.192339285585E+03    0.27029E-03   -0.58430E-04 10560   0.212E-01    0.583E-02
DAV:   7    -0.192339245779E+03    0.39805E-04   -0.93826E-05  6560   0.873E-02
  65 F= -.19233925E+03 E0= -.19227337E+03  d E =-.503995E-02
       N       E                     dE             d eps       ncg     rms          rms(c)
DAV:   1    -0.192340531379E+03   -0.12458E-02   -0.11825E-01  8160   0.740E-01    0.101E-01
DAV:   2    -0.192340892856E+03   -0.36148E-03   -0.56013E-03 10680   0.262E-01    0.115E-01
DAV:   3    -0.192340891172E+03    0.16841E-05   -0.72912E-04 10960   0.235E-01
  66 F= -.19234089E+03 E0= -.19227482E+03  d E =-.164539E-02
       N       E                     dE             d eps       ncg     rms          rms(c)
DAV:   1    -0.192341208889E+03   -0.31603E-03   -0.21080E-02  8160   0.333E-01    0.476E-02
DAV:   2    -0.192341275821E+03   -0.66933E-04   -0.78092E-04 10520   0.936E-02
  67 F= -.19234128E+03 E0= -.19227531E+03  d E =-.384649E-03
       N       E                     dE             d eps       ncg     rms          rms(c)
DAV:   1    -0.192342267437E+03   -0.10585E-02   -0.96540E-02  8160   0.671E-01    0.886E-02
DAV:   2    -0.192342523913E+03   -0.25648E-03   -0.34492E-03 12200   0.197E-01    0.105E-01
DAV:   3    -0.192342504370E+03    0.19543E-04   -0.52299E-04 10200   0.209E-01
  68 F= -.19234250E+03 E0= -.19227664E+03  d E =-.122855E-02
       N       E                     dE             d eps       ncg     rms          rms(c)
DAV:   1    -0.192342739705E+03   -0.21579E-03   -0.11745E-02  8560   0.256E-01    0.500E-02
DAV:   2    -0.192342809794E+03   -0.70089E-04   -0.51999E-04 11280   0.124E-01
  69 F= -.19234281E+03 E0= -.19227705E+03  d E =-.305424E-03
