<?xml version="1.0" encoding="ISO-8859-1"?>
<modeling>
 <generator>
  <i name="program" type="string">vasp </i>
  <i name="version" type="string">5.4.1  </i>
  <i name="subversion" type="string">05Feb16 (build Jul 05 2020 17:13:04) complex                          parallel </i>
  <i name="platform" type="string">IFC91_ompi </i>
  <i name="date" type="string">2024 04 27 </i>
  <i name="time" type="string">08:29:43 </i>
 </generator>
 <incar>
  <i type="int" name="ISTART">     0</i>
  <i type="string" name="PREC">normal</i>
  <i type="string" name="ALGO"> Normal</i>
  <i type="int" name="ISPIN">     1</i>
  <i type="int" name="ICHARG">     2</i>
  <i type="int" name="IBRION">     1</i>
  <i type="int" name="NSW">   100</i>
  <i type="int" name="ISIF">     3</i>
  <i type="int" name="ISYM">     0</i>
  <i name="SYMPREC">      0.00000001</i>
  <i name="POTIM">      0.50000000</i>
  <i type="logical" name="LREAL"> F  </i>
  <i type="logical" name="LPLANE"> F  </i>
  <i type="int" name="ISMEAR">     0</i>
  <i type="logical" name="LWAVE"> F  </i>
  <i type="logical" name="LCHARG"> F  </i>
  <v type="int" name="KPOINT_BSE">    -1     0     0     0</v>
 </incar>
 <kpoints>
  <generation param="Gamma">
   <v type="int" name="divisions">       8        8        1 </v>
   <v name="usershift">      0.00000000       0.00000000       0.00000000 </v>
   <v name="genvec1">      0.12500000       0.00000000       0.00000000 </v>
   <v name="genvec2">     -0.00000000       0.12500000       0.00000000 </v>
   <v name="genvec3">      0.00000000       0.00000000       1.00000000 </v>
   <v name="shift">      0.00000000       0.00000000       0.00000000 </v>
  </generation>
  <varray name="kpointlist" >
   <v>       0.00000000       0.00000000       0.00000000 </v>
   <v>       0.12500000       0.00000000       0.00000000 </v>
   <v>       0.25000000       0.00000000       0.00000000 </v>
   <v>       0.37500000       0.00000000       0.00000000 </v>
   <v>       0.50000000       0.00000000       0.00000000 </v>
   <v>       0.00000000       0.12500000       0.00000000 </v>
   <v>       0.12500000       0.12500000       0.00000000 </v>
   <v>       0.25000000       0.12500000       0.00000000 </v>
   <v>       0.37500000       0.12500000       0.00000000 </v>
   <v>       0.50000000       0.12500000       0.00000000 </v>
   <v>      -0.37500000       0.12500000       0.00000000 </v>
   <v>      -0.25000000       0.12500000       0.00000000 </v>
   <v>      -0.12500000       0.12500000       0.00000000 </v>
   <v>       0.00000000       0.25000000       0.00000000 </v>
   <v>       0.12500000       0.25000000       0.00000000 </v>
   <v>       0.25000000       0.25000000       0.00000000 </v>
   <v>       0.37500000       0.25000000       0.00000000 </v>
   <v>       0.50000000       0.25000000       0.00000000 </v>
   <v>      -0.37500000       0.25000000       0.00000000 </v>
   <v>      -0.25000000       0.25000000       0.00000000 </v>
   <v>      -0.12500000       0.25000000       0.00000000 </v>
   <v>      -0.00000000       0.37500000       0.00000000 </v>
   <v>       0.12500000       0.37500000       0.00000000 </v>
   <v>       0.25000000       0.37500000       0.00000000 </v>
   <v>       0.37500000       0.37500000       0.00000000 </v>
   <v>       0.50000000       0.37500000       0.00000000 </v>
   <v>      -0.37500000       0.37500000       0.00000000 </v>
   <v>      -0.25000000       0.37500000       0.00000000 </v>
   <v>      -0.12500000       0.37500000       0.00000000 </v>
   <v>       0.00000000       0.50000000       0.00000000 </v>
   <v>       0.12500000       0.50000000       0.00000000 </v>
   <v>       0.25000000       0.50000000       0.00000000 </v>
   <v>       0.37500000       0.50000000       0.00000000 </v>
   <v>       0.50000000       0.50000000       0.00000000 </v>
  </varray>
  <varray name="weights" >
   <v>       0.01562500 </v>
   <v>       0.03125000 </v>
   <v>       0.03125000 </v>
   <v>       0.03125000 </v>
   <v>       0.01562500 </v>
   <v>       0.03125000 </v>
   <v>       0.03125000 </v>
   <v>       0.03125000 </v>
   <v>       0.03125000 </v>
   <v>       0.03125000 </v>
   <v>       0.03125000 </v>
   <v>       0.03125000 </v>
   <v>       0.03125000 </v>
   <v>       0.03125000 </v>
   <v>       0.03125000 </v>
   <v>       0.03125000 </v>
   <v>       0.03125000 </v>
   <v>       0.03125000 </v>
   <v>       0.03125000 </v>
   <v>       0.03125000 </v>
   <v>       0.03125000 </v>
   <v>       0.03125000 </v>
   <v>       0.03125000 </v>
   <v>       0.03125000 </v>
   <v>       0.03125000 </v>
   <v>       0.03125000 </v>
   <v>       0.03125000 </v>
   <v>       0.03125000 </v>
   <v>       0.03125000 </v>
   <v>       0.01562500 </v>
   <v>       0.03125000 </v>
   <v>       0.03125000 </v>
   <v>       0.03125000 </v>
   <v>       0.01562500 </v>
  </varray>
 </kpoints>
 <parameters>
  <separator name="general" >
   <i type="string" name="SYSTEM">unknown system</i>
   <i type="logical" name="LCOMPAT"> F  </i>
  </separator>
  <separator name="electronic" >
   <i type="string" name="PREC">normal</i>
   <i name="ENMAX">    280.00000000</i>
   <i name="ENAUG">    373.43800000</i>
   <i name="EDIFF">      0.00010000</i>
   <i type="int" name="IALGO">    38</i>
   <i type="int" name="IWAVPR">    11</i>
   <i type="int" name="NBANDS">   120</i>
   <i name="NELECT">    159.00000000</i>
   <i type="int" name="TURBO">     0</i>
   <i type="int" name="IRESTART">     0</i>
   <i type="int" name="NREBOOT">     0</i>
   <i type="int" name="NMIN">     0</i>
   <i name="EREF">      0.00000000</i>
   <separator name="electronic smearing" >
    <i type="int" name="ISMEAR">     0</i>
    <i name="SIGMA">      0.20000000</i>
    <i name="KSPACING">      0.50000000</i>
    <i type="logical" name="KGAMMA"> T  </i>
   </separator>
   <separator name="electronic projectors" >
    <i type="logical" name="LREAL"> F  </i>
    <v name="ROPT">      0.00000000      0.00000000      0.00000000      0.00000000</v>
    <i type="int" name="LMAXPAW">  -100</i>
    <i type="int" name="LMAXMIX">     2</i>
    <i type="logical" name="NLSPLINE"> F  </i>
   </separator>
   <separator name="electronic startup" >
    <i type="int" name="ISTART">     0</i>
    <i type="int" name="ICHARG">     2</i>
    <i type="int" name="INIWAV">     1</i>
   </separator>
   <separator name="electronic spin" >
    <i type="int" name="ISPIN">     1</i>
    <i type="logical" name="LNONCOLLINEAR"> F  </i>
    <v name="MAGMOM">      1.00000000      1.00000000      1.00000000      1.00000000      1.00000000      1.00000000      1.00000000      1.00000000      1.00000000      1.00000000      1.00000000      1.00000000      1.00000000      1.00000000      1.00000000      1.00000000      1.00000000      1.00000000      1.00000000      1.00000000
      1.00000000      1.00000000      1.00000000      1.00000000      1.00000000      1.00000000      1.00000000</v>
    <i name="NUPDOWN">     -1.00000000</i>
    <i type="logical" name="LSORBIT"> F  </i>
    <v name="SAXIS">      0.00000000      0.00000000      1.00000000</v>
    <i type="logical" name="LSPIRAL"> F  </i>
    <v name="QSPIRAL">      0.00000000      0.00000000      0.00000000</v>
    <i type="logical" name="LZEROZ"> F  </i>
   </separator>
   <separator name="electronic exchange-correlation" >
    <i type="logical" name="LASPH"> F  </i>
    <i type="logical" name="LMETAGGA"> F  </i>
   </separator>
   <separator name="electronic convergence" >
    <i type="int" name="NELM">    60</i>
    <i type="int" name="NELMDL">    -5</i>
    <i type="int" name="NELMIN">     2</i>
    <i name="ENINI">    280.00000000</i>
    <separator name="electronic convergence detail" >
     <i type="logical" name="LDIAG"> T  </i>
     <i type="logical" name="LSUBROT"> F  </i>
     <i name="WEIMIN">      0.00100000</i>
     <i name="EBREAK">      0.00000021</i>
     <i name="DEPER">      0.30000000</i>
     <i type="int" name="NRMM">     4</i>
     <i name="TIME">      0.40000000</i>
    </separator>
   </separator>
   <separator name="electronic mixer" >
    <i name="AMIX">      0.40000000</i>
    <i name="BMIX">      1.00000000</i>
    <i name="AMIN">      0.10000000</i>
    <i name="AMIX_MAG">      1.60000000</i>
    <i name="BMIX_MAG">      1.00000000</i>
    <separator name="electronic mixer details" >
     <i type="int" name="IMIX">     4</i>
     <i type="logical" name="MIXFIRST"> F  </i>
     <i type="int" name="MAXMIX">   -45</i>
     <i name="WC">    100.00000000</i>
     <i type="int" name="INIMIX">     1</i>
     <i type="int" name="MIXPRE">     1</i>
     <i type="int" name="MREMOVE">     5</i>
    </separator>
   </separator>
   <separator name="electronic dipolcorrection" >
    <i type="logical" name="LDIPOL"> F  </i>
    <i type="logical" name="LMONO"> F  </i>
    <i type="int" name="IDIPOL">     0</i>
    <i name="EPSILON">      1.00000000</i>
    <v name="DIPOL">   -100.00000000   -100.00000000   -100.00000000</v>
    <i name="EFIELD">      0.00000000</i>
   </separator>
  </separator>
  <separator name="grids" >
   <i type="int" name="NGX">    42</i>
   <i type="int" name="NGY">    42</i>
   <i type="int" name="NGZ">   126</i>
   <i type="int" name="NGXF">    84</i>
   <i type="int" name="NGYF">    84</i>
   <i type="int" name="NGZF">   252</i>
   <i type="logical" name="ADDGRID"> F  </i>
  </separator>
  <separator name="ionic" >
   <i type="int" name="NSW">   100</i>
   <i type="int" name="IBRION">     1</i>
   <i type="int" name="ISIF">     3</i>
   <i name="PSTRESS">      0.00000000</i>
   <i name="EDIFFG">      0.00100000</i>
   <i type="int" name="NFREE">     0</i>
   <i name="POTIM">      0.50000000</i>
   <i name="SMASS">     -3.00000000</i>
   <i name="SCALEE">      1.00000000</i>
  </separator>
  <separator name="ionic md" >
   <i name="TEBEG">      0.00010000</i>
   <i name="TEEND">      0.00010000</i>
   <i type="int" name="NBLOCK">     1</i>
   <i type="int" name="KBLOCK">   100</i>
   <i type="int" name="NPACO">   256</i>
   <i name="APACO">     16.00000000</i>
  </separator>
  <separator name="symmetry" >
   <i type="int" name="ISYM">     0</i>
   <i name="SYMPREC">      0.00000001</i>
  </separator>
  <separator name="dos" >
   <i type="logical" name="LORBIT"> F  </i>
   <v name="RWIGS">     -1.00000000     -1.00000000     -1.00000000     -1.00000000</v>
   <i type="int" name="NEDOS">   301</i>
   <i name="EMIN">     10.00000000</i>
   <i name="EMAX">    -10.00000000</i>
   <i name="EFERMI">      0.00000000</i>
  </separator>
  <separator name="writing" >
   <i type="int" name="NWRITE">     2</i>
   <i type="logical" name="LWAVE"> F  </i>
   <i type="logical" name="LCHARG"> F  </i>
   <i type="logical" name="LPARD"> F  </i>
   <i type="logical" name="LVTOT"> F  </i>
   <i type="logical" name="LVHAR"> F  </i>
   <i type="logical" name="LELF"> F  </i>
   <i type="logical" name="LOPTICS"> F  </i>
   <v name="STM">      0.00000000      0.00000000      0.00000000      0.00000000      0.00000000      0.00000000      0.00000000</v>
  </separator>
  <separator name="performance" >
   <i type="int" name="NPAR">    40</i>
   <i type="int" name="NSIM">     4</i>
   <i type="int" name="NBLK">    -1</i>
   <i type="logical" name="LPLANE"> F  </i>
   <i type="logical" name="LSCALAPACK"> T  </i>
   <i type="logical" name="LSCAAWARE"> F  </i>
   <i type="logical" name="LSCALU"> F  </i>
   <i type="logical" name="LASYNC"> F  </i>
   <i type="logical" name="LORBITALREAL"> F  </i>
  </separator>
  <separator name="miscellaneous" >
   <i type="int" name="IDIOT">     3</i>
   <i type="logical" name="LMUSIC"> F  </i>
   <v name="POMASS">     50.94100000     95.94000000    183.85000000     32.06600000</v>
   <v name="DARWINR">      0.00000000      0.00000000      0.00000000      0.00000000</v>
   <v name="DARWINV">      1.00000000      1.00000000      1.00000000      1.00000000</v>
   <i type="logical" name="LCORR"> T  </i>
  </separator>
  <i type="logical" name="GGA_COMPAT"> T  </i>
  <i type="logical" name="LBERRY"> F  </i>
  <i type="int" name="ICORELEVEL">     0</i>
  <i type="logical" name="LDAU"> F  </i>
  <i type="int" name="I_CONSTRAINED_M">     0</i>
  <separator name="electronic exchange-correlation" >
   <i type="string" name="GGA">--</i>
   <i type="int" name="VOSKOWN">     0</i>
   <i type="logical" name="LHFCALC"> F  </i>
   <i type="string" name="PRECFOCK"></i>
   <i type="logical" name="LSYMGRAD"> F  </i>
   <i type="logical" name="LHFONE"> F  </i>
   <i type="logical" name="LRHFCALC"> F  </i>
   <i type="logical" name="LTHOMAS"> F  </i>
   <i type="logical" name="LMODELHF"> F  </i>
   <i name="ENCUT4O">     -1.00000000</i>
   <i type="int" name="EXXOEP">     0</i>
   <i type="int" name="FOURORBIT">     0</i>
   <i name="AEXX">      0.00000000</i>
   <i name="HFALPHA">      0.00000000</i>
   <i name="MCALPHA">      0.00000000</i>
   <i name="ALDAX">      1.00000000</i>
   <i name="AGGAX">      1.00000000</i>
   <i name="ALDAC">      1.00000000</i>
   <i name="AGGAC">      1.00000000</i>
   <i type="int" name="NKREDX">     1</i>
   <i type="int" name="NKREDY">     1</i>
   <i type="int" name="NKREDZ">     1</i>
   <i type="logical" name="SHIFTRED"> F  </i>
   <i type="logical" name="ODDONLY"> F  </i>
   <i type="logical" name="EVENONLY"> F  </i>
   <i type="int" name="LMAXFOCK">     0</i>
   <i type="int" name="NMAXFOCKAE">     0</i>
   <i type="logical" name="LFOCKAEDFT"> F  </i>
   <i name="HFSCREEN">      0.00000000</i>
   <i name="HFSCREENC">      0.00000000</i>
   <i type="int" name="NBANDSGWLOW">     0</i>
  </separator>
  <separator name="vdW DFT" >
   <i type="logical" name="LUSE_VDW"> F  </i>
   <i name="Zab_VDW">     -0.84910000</i>
   <i name="PARAM1">      0.12340000</i>
   <i name="PARAM2">      1.00000000</i>
   <i name="PARAM3">      0.00000000</i>
  </separator>
  <separator name="model GW" >
   <i type="int" name="MODEL_GW">     0</i>
   <i name="MODEL_EPS0">     58.26239943</i>
   <i name="MODEL_ALPHA">      1.00000000</i>
  </separator>
  <separator name="linear response parameters" >
   <i type="logical" name="LEPSILON"> F  </i>
   <i type="logical" name="LRPA"> F  </i>
   <i type="logical" name="LNABLA"> F  </i>
   <i type="logical" name="LVEL"> F  </i>
   <i type="int" name="KINTER">     0</i>
   <i name="CSHIFT">      0.10000000</i>
   <i name="OMEGAMAX">     -1.00000000</i>
   <i name="DEG_THRESHOLD">      0.00200000</i>
  </separator>
  <separator name="orbital magnetization" >
   <i type="logical" name="NUCIND"> F  </i>
   <v name="MAGPOS">      0.00000000      0.00000000      0.00000000</v>
   <i type="logical" name="LNICSALL"> T  </i>
   <i type="logical" name="ORBITALMAG"> F  </i>
   <i type="logical" name="LMAGBLOCH"> F  </i>
   <i type="logical" name="LCHIMAG"> F  </i>
   <i type="logical" name="LGAUGE"> T  </i>
   <i type="int" name="MAGATOM">     0</i>
   <v name="MAGDIPOL">      0.00000000      0.00000000      0.00000000</v>
   <v name="AVECCONST">      0.00000000      0.00000000      0.00000000</v>
  </separator>
  <separator name="response functions" >
   <i type="logical" name="LADDER"> F  </i>
   <i type="logical" name="LFXC"> F  </i>
   <i type="logical" name="LHARTREE"> T  </i>
   <i type="int" name="IBSE">     0</i>
   <v type="int" name="KPOINT">    -1     0     0     0</v>
   <i type="logical" name="LTCTE"> F  </i>
   <i type="logical" name="LTETE"> F  </i>
   <i type="logical" name="LTRIPLET"> F  </i>
   <i type="logical" name="LFXCEPS"> F  </i>
   <i type="logical" name="LFXHEG"> F  </i>
   <i type="int" name="NATURALO">     0</i>
   <i type="logical" name="L2ORDER"> F  </i>
   <i type="logical" name="LUSEW"> F  </i>
   <i name="ENCUTGW">     -2.00000000</i>
   <i name="ENCUTGWSOFT">     -2.00000000</i>
   <i name="ENCUTLF">     -1.00000000</i>
   <i type="int" name="LMAXMP2">    -1</i>
   <i name="SCISSOR">      0.00000000</i>
   <i type="int" name="NOMEGA">     0</i>
   <i type="int" name="NOMEGAR">     0</i>
   <i type="int" name="NBANDSGW">    -1</i>
   <i type="int" name="NBANDSO">    -1</i>
   <i type="int" name="NBANDSV">    -1</i>
   <i type="int" name="NELM">     1</i>
   <i type="int" name="NELMHF">     1</i>
   <i type="int" name="DIM">     3</i>
   <i type="int" name="ANTIRES">     0</i>
   <i name="OMEGAMAX">    -30.00000000</i>
   <i name="OMEGAMIN">    -30.00000000</i>
   <i name="OMEGATL">   -200.00000000</i>
   <i type="int" name="OMEGAGRID">     0</i>
   <i name="CSHIFT">     -0.10000000</i>
   <i type="logical" name="SELFENERGY"> F  </i>
   <i type="logical" name="LSPECTRAL"> F  </i>
   <i type="logical" name="LSPECTRALGW"> F  </i>
   <i type="logical" name="LSINGLES"> F  </i>
   <i type="logical" name="LFERMIGW"> F  </i>
   <i type="logical" name="ODDONLYGW"> F  </i>
   <i type="logical" name="EVENONLYGW"> F  </i>
   <i type="int" name="NKREDLFX">     1</i>
   <i type="int" name="NKREDLFY">     1</i>
   <i type="int" name="NKREDLFZ">     1</i>
   <i type="int" name="MAXMEM">  1800</i>
   <i type="int" name="TELESCOPE">     0</i>
   <i type="int" name="TAUPAR">     1</i>
   <i type="int" name="OMEGAPAR">    -1</i>
   <i name="LAMBDA">      1.00000000</i>
  </separator>
  <separator name="External order field" >
   <i name="OFIELD_KAPPA">      0.00000000</i>
   <v name="OFIELD_K">      0.00000000      0.00000000      0.00000000</v>
   <i name="OFIELD_Q6_NEAR">      0.00000000</i>
   <i name="OFIELD_Q6_FAR">      0.00000000</i>
   <i name="OFIELD_A">      0.00000000</i>
  </separator>
 </parameters>
 <atominfo>
  <atoms>      27 </atoms>
  <types>       4 </types>
  <array name="atoms" >
   <dimension dim="1">ion</dimension>
   <field type="string">element</field>
   <field type="int">atomtype</field>
   <set>
    <rc><c>V </c><c>   1</c></rc>
    <rc><c>V </c><c>   1</c></rc>
    <rc><c>V </c><c>   1</c></rc>
    <rc><c>Mo</c><c>   2</c></rc>
    <rc><c>Mo</c><c>   2</c></rc>
    <rc><c>Mo</c><c>   2</c></rc>
    <rc><c>W </c><c>   3</c></rc>
    <rc><c>W </c><c>   3</c></rc>
    <rc><c>W </c><c>   3</c></rc>
    <rc><c>S </c><c>   4</c></rc>
    <rc><c>S </c><c>   4</c></rc>
    <rc><c>S </c><c>   4</c></rc>
    <rc><c>S </c><c>   4</c></rc>
    <rc><c>S </c><c>   4</c></rc>
    <rc><c>S </c><c>   4</c></rc>
    <rc><c>S </c><c>   4</c></rc>
    <rc><c>S </c><c>   4</c></rc>
    <rc><c>S </c><c>   4</c></rc>
    <rc><c>S </c><c>   4</c></rc>
    <rc><c>S </c><c>   4</c></rc>
    <rc><c>S </c><c>   4</c></rc>
    <rc><c>S </c><c>   4</c></rc>
    <rc><c>S </c><c>   4</c></rc>
    <rc><c>S </c><c>   4</c></rc>
    <rc><c>S </c><c>   4</c></rc>
    <rc><c>S </c><c>   4</c></rc>
    <rc><c>S </c><c>   4</c></rc>
   </set>
  </array>
  <array name="atomtypes" >
   <dimension dim="1">type</dimension>
   <field type="int">atomspertype</field>
   <field type="string">element</field>
   <field>mass</field>
   <field>valence</field>
   <field type="string">pseudopotential</field>
   <set>
    <rc><c>   3</c><c>V </c><c>     50.94100000</c><c>      5.00000000</c><c> PAW_PBE V 08Apr2002                    </c></rc>
    <rc><c>   3</c><c>Mo</c><c>     95.94000000</c><c>      6.00000000</c><c> PAW_PBE Mo 08Apr2002                   </c></rc>
    <rc><c>   3</c><c>W </c><c>    183.85000000</c><c>      6.00000000</c><c> PAW_PBE W 08Apr2002                    </c></rc>
    <rc><c>  18</c><c>S </c><c>     32.06600000</c><c>      6.00000000</c><c>  PAW_PBE S 17Jan2003                   </c></rc>
   </set>
  </array>
 </atominfo>
 <structure name="initialpos" >
  <crystal>
   <varray name="basis" >
    <v>       8.66999996       5.03999989       0.00000000 </v>
    <v>      -8.66999982       5.04000013       0.00000000 </v>
    <v>       0.00000000       0.00000000      30.00000000 </v>
   </varray>
   <i name="volume">   2621.80797419 </i>
   <varray name="rec_basis" >
    <v>       0.05767013       0.09920635       0.00000000 </v>
    <v>      -0.05767013       0.09920635       0.00000000 </v>
    <v>       0.00000000       0.00000000       0.03333333 </v>
   </varray>
  </crystal>
  <varray name="positions" >
   <v>       0.66666669       0.33333334       0.00000000 </v>
   <v>       0.66666669       0.00000000       0.00000000 </v>
   <v>       0.33333334       0.33333334       0.00000000 </v>
   <v>       0.33333334       0.00000000       0.00000000 </v>
   <v>       0.66666669       0.66666669       0.00000000 </v>
   <v>       0.00000000       0.00000000       0.00000000 </v>
   <v>       1.00000000       0.33333334       0.00000000 </v>
   <v>       0.00000000       0.66666669       0.00000000 </v>
   <v>       0.33333334       0.66666669       0.00000000 </v>
   <v>       0.11068511       0.22244981       0.95539999 </v>
   <v>       0.22244981       0.11068511       0.04460000 </v>
   <v>       0.11068511       0.55578315       0.95539999 </v>
   <v>       0.22244981       0.44401845       0.04460000 </v>
   <v>       0.11068511       0.88911647       0.95539999 </v>
   <v>       0.22244981       0.77735180       0.04460000 </v>
   <v>       0.44401845       0.22244981       0.95539999 </v>
   <v>       0.55578315       0.11068511       0.04460000 </v>
   <v>       0.44401845       0.55578315       0.95539999 </v>
   <v>       0.55578315       0.44401845       0.04460000 </v>
   <v>       0.44401845       0.88911647       0.95539999 </v>
   <v>       0.55578315       0.77735180       0.04460000 </v>
   <v>       0.77735180       0.22244981       0.95539999 </v>
   <v>       0.88911647       0.11068511       0.04460000 </v>
   <v>       0.77735180       0.55578315       0.95539999 </v>
   <v>       0.88911647       0.44401845       0.04460000 </v>
   <v>       0.77735180       0.88911647       0.95539999 </v>
   <v>       0.88911647       0.77735180       0.04460000 </v>
  </varray>
 </structure>
 <calculation>
  <scstep>
   <time name="dav">   21.53   21.59</time>
   <time name="total">   21.58   21.64</time>
   <energy>
    <i name="alphaZ">     81.65567618 </i>
    <i name="ewald">  41890.25210944 </i>
    <i name="hartreedc"> -47722.89525158 </i>
    <i name="XCdc">   -242.92704951 </i>
    <i name="pawpsdc">   3467.42045192 </i>
    <i name="pawaedc">  -2871.19716117 </i>
    <i name="eentropy">     -0.53073324 </i>
    <i name="bandstr">   -238.69287171 </i>
    <i name="atom">   6761.44252427 </i>
    <i name="e_fr_energy">   1124.52769459 </i>
    <i name="e_wo_entrp">   1125.05842783 </i>
    <i name="e_0_energy">   1124.79306121 </i>
   </energy>
  </scstep>
  <scstep>
   <time name="dav">   28.19   28.26</time>
   <time name="total">   28.20   28.27</time>
   <energy>
    <i name="e_fr_energy">     -5.91977791 </i>
    <i name="e_wo_entrp">     -5.73372518 </i>
    <i name="e_0_energy">     -5.82675155 </i>
   </energy>
  </scstep>
  <scstep>
   <time name="dav">   27.28   27.35</time>
   <time name="total">   27.28   27.36</time>
   <energy>
    <i name="e_fr_energy">   -199.93130870 </i>
    <i name="e_wo_entrp">   -199.65647839 </i>
    <i name="e_0_energy">   -199.79389355 </i>
   </energy>
  </scstep>
  <scstep>
   <time name="dav">   30.07   30.14</time>
   <time name="total">   30.07   30.15</time>
   <energy>
    <i name="e_fr_energy">   -208.99183558 </i>
    <i name="e_wo_entrp">   -208.68207728 </i>
    <i name="e_0_energy">   -208.83695643 </i>
   </energy>
  </scstep>
  <scstep>
   <time name="dav">   28.44   28.51</time>
   <time name="total">   28.91   28.98</time>
   <energy>
    <i name="e_fr_energy">   -209.30706309 </i>
    <i name="e_wo_entrp">   -209.00033936 </i>
    <i name="e_0_energy">   -209.15370123 </i>
   </energy>
  </scstep>
  <scstep>
   <time name="dav">   30.40   30.47</time>
   <time name="total">   30.90   30.98</time>
   <energy>
    <i name="e_fr_energy">   -236.73602865 </i>
    <i name="e_wo_entrp">   -236.45389496 </i>
    <i name="e_0_energy">   -236.59496181 </i>
   </energy>
  </scstep>
  <scstep>
   <time name="dav">   32.43   32.51</time>
   <time name="total">   32.94   33.02</time>
   <energy>
    <i name="e_fr_energy">   -196.52967401 </i>
    <i name="e_wo_entrp">   -196.21601640 </i>
    <i name="e_0_energy">   -196.37284521 </i>
   </energy>
  </scstep>
  <scstep>
   <time name="dav">   29.29   29.37</time>
   <time name="total">   29.81   29.89</time>
   <energy>
    <i name="e_fr_energy">   -189.48784318 </i>
    <i name="e_wo_entrp">   -189.19802346 </i>
    <i name="e_0_energy">   -189.34293332 </i>
   </energy>
  </scstep>
  <scstep>
   <time name="dav">   30.47   30.54</time>
   <time name="total">   30.99   31.07</time>
   <energy>
    <i name="e_fr_energy">   -188.17121918 </i>
    <i name="e_wo_entrp">   -187.83143613 </i>
    <i name="e_0_energy">   -188.00132765 </i>
   </energy>
  </scstep>
  <scstep>
   <time name="dav">   32.48   32.55</time>
   <time name="total">   33.01   33.10</time>
   <energy>
    <i name="e_fr_energy">   -187.03312177 </i>
    <i name="e_wo_entrp">   -186.68710516 </i>
    <i name="e_0_energy">   -186.86011347 </i>
   </energy>
  </scstep>
  <scstep>
   <time name="dav">   30.65   30.73</time>
   <time name="total">   31.19   31.27</time>
   <energy>
    <i name="e_fr_energy">   -186.94289168 </i>
    <i name="e_wo_entrp">   -186.59220390 </i>
    <i name="e_0_energy">   -186.76754779 </i>
   </energy>
  </scstep>
  <scstep>
   <time name="dav">   31.53   31.61</time>
   <time name="total">   32.07   32.15</time>
   <energy>
    <i name="e_fr_energy">   -187.05892408 </i>
    <i name="e_wo_entrp">   -186.72173644 </i>
    <i name="e_0_energy">   -186.89033026 </i>
   </energy>
  </scstep>
  <scstep>
   <time name="dav">   31.12   31.20</time>
   <time name="total">   31.66   31.74</time>
   <energy>
    <i name="e_fr_energy">   -186.88328597 </i>
    <i name="e_wo_entrp">   -186.54544627 </i>
    <i name="e_0_energy">   -186.71436612 </i>
   </energy>
  </scstep>
  <scstep>
   <time name="dav">   32.50   32.57</time>
   <time name="total">   33.04   33.12</time>
   <energy>
    <i name="e_fr_energy">   -186.84522309 </i>
    <i name="e_wo_entrp">   -186.50046226 </i>
    <i name="e_0_energy">   -186.67284267 </i>
   </energy>
  </scstep>
  <scstep>
   <time name="dav">   29.73   29.81</time>
   <time name="total">   30.27   30.35</time>
   <energy>
    <i name="e_fr_energy">   -186.84032930 </i>
    <i name="e_wo_entrp">   -186.49384951 </i>
    <i name="e_0_energy">   -186.66708940 </i>
   </energy>
  </scstep>
  <scstep>
   <time name="dav">   31.24   31.32</time>
   <time name="total">   31.78   31.86</time>
   <energy>
    <i name="e_fr_energy">   -186.82966414 </i>
    <i name="e_wo_entrp">   -186.48286941 </i>
    <i name="e_0_energy">   -186.65626678 </i>
   </energy>
  </scstep>
  <scstep>
   <time name="dav">   30.62   30.70</time>
   <time name="total">   31.16   31.24</time>
   <energy>
    <i name="e_fr_energy">   -186.82748830 </i>
    <i name="e_wo_entrp">   -186.48265366 </i>
    <i name="e_0_energy">   -186.65507098 </i>
   </energy>
  </scstep>
  <scstep>
   <time name="dav">   28.67   28.74</time>
   <time name="total">   29.21   29.29</time>
   <energy>
    <i name="e_fr_energy">   -186.82715839 </i>
    <i name="e_wo_entrp">   -186.48225268 </i>
    <i name="e_0_energy">   -186.65470554 </i>
   </energy>
  </scstep>
  <scstep>
   <time name="dav">   25.66   25.72</time>
   <time name="total">   26.20   26.27</time>
   <energy>
    <i name="e_fr_energy">   -186.82678665 </i>
    <i name="e_wo_entrp">   -186.48148469 </i>
    <i name="e_0_energy">   -186.65413567 </i>
   </energy>
  </scstep>
  <scstep>
   <time name="dav">   23.83   23.89</time>
   <time name="total">   24.37   24.44</time>
   <energy>
    <i name="e_fr_energy">   -186.82736651 </i>
    <i name="e_wo_entrp">   -186.48208312 </i>
    <i name="e_0_energy">   -186.65472481 </i>
   </energy>
  </scstep>
  <scstep>
   <time name="dav">   23.50   23.55</time>
   <time name="total">   24.03   24.10</time>
   <energy>
    <i name="e_fr_energy">   -186.82802529 </i>
    <i name="e_wo_entrp">   -186.48303745 </i>
    <i name="e_0_energy">   -186.65553137 </i>
   </energy>
  </scstep>
  <scstep>
   <time name="dav">   20.40   20.45</time>
   <time name="total">   20.94   21.00</time>
   <energy>
    <i name="e_fr_energy">   -186.82921501 </i>
    <i name="e_wo_entrp">   -186.48407677 </i>
    <i name="e_0_energy">   -186.65664589 </i>
   </energy>
  </scstep>
  <scstep>
   <time name="dav">   20.43   20.48</time>
   <time name="total">   20.97   21.03</time>
   <energy>
    <i name="e_fr_energy">   -186.83048351 </i>
    <i name="e_wo_entrp">   -186.48545116 </i>
    <i name="e_0_energy">   -186.65796734 </i>
   </energy>
  </scstep>
  <scstep>
   <time name="dav">   18.58   18.63</time>
   <time name="total">   19.12   19.18</time>
   <energy>
    <i name="e_fr_energy">   -186.83108660 </i>
    <i name="e_wo_entrp">   -186.48604527 </i>
    <i name="e_0_energy">   -186.65856593 </i>
   </energy>
  </scstep>
  <scstep>
   <time name="dav">   16.43   16.46</time>
   <time name="total">   16.97   17.01</time>
   <energy>
    <i name="e_fr_energy">   -186.83147174 </i>
    <i name="e_wo_entrp">   -186.48638327 </i>
    <i name="e_0_energy">   -186.65892750 </i>
   </energy>
  </scstep>
  <scstep>
   <time name="dav">   18.99   19.04</time>
   <time name="total">   19.53   19.59</time>
   <energy>
    <i name="e_fr_energy">   -186.83168782 </i>
    <i name="e_wo_entrp">   -186.48661449 </i>
    <i name="e_0_energy">   -186.65915116 </i>
   </energy>
  </scstep>
  <scstep>
   <time name="dav">   19.15   19.19</time>
   <time name="total">   19.69   19.74</time>
   <energy>
    <i name="e_fr_energy">   -186.83179445 </i>
    <i name="e_wo_entrp">   -186.48672486 </i>
    <i name="e_0_energy">   -186.65925966 </i>
   </energy>
  </scstep>
  <scstep>
   <time name="dav">   19.96   20.01</time>
   <time name="total">   20.00   20.05</time>
   <energy>
    <i name="alphaZ">     81.65567618 </i>
    <i name="ewald">  41890.25210944 </i>
    <i name="hartreedc"> -47832.90235216 </i>
    <i name="XCdc">   -231.61179533 </i>
    <i name="pawpsdc">   4192.03080098 </i>
    <i name="pawaedc">  -3610.03285311 </i>
    <i name="eentropy">     -0.34506802 </i>
    <i name="bandstr">  -1437.32088166 </i>
    <i name="atom">   6761.44252427 </i>
    <i name="e_fr_energy">   -186.83183940 </i>
    <i name="e_wo_entrp">   -186.48677138 </i>
    <i name="e_0_energy">   -186.65930539 </i>
   </energy>
  </scstep>
  <structure>
   <crystal>
    <varray name="basis" >
     <v>       8.66999996       5.03999989       0.00000000 </v>
     <v>      -8.66999982       5.04000013       0.00000000 </v>
     <v>       0.00000000       0.00000000      30.00000000 </v>
    </varray>
    <i name="volume">   2621.80797419 </i>
    <varray name="rec_basis" >
     <v>       0.05767013       0.09920635       0.00000000 </v>
     <v>      -0.05767013       0.09920635       0.00000000 </v>
     <v>       0.00000000       0.00000000       0.03333333 </v>
    </varray>
   </crystal>
   <varray name="positions" >
    <v>       0.66666669       0.33333334       0.00000000 </v>
    <v>       0.66666669       0.00000000       0.00000000 </v>
    <v>       0.33333334       0.33333334       0.00000000 </v>
    <v>       0.33333334       0.00000000       0.00000000 </v>
    <v>       0.66666669       0.66666669       0.00000000 </v>
    <v>       0.00000000       0.00000000       0.00000000 </v>
    <v>       1.00000000       0.33333334       0.00000000 </v>
    <v>       0.00000000       0.66666669       0.00000000 </v>
    <v>       0.33333334       0.66666669       0.00000000 </v>
    <v>       0.11068511       0.22244981       0.95539999 </v>
    <v>       0.22244981       0.11068511       0.04460000 </v>
    <v>       0.11068511       0.55578315       0.95539999 </v>
    <v>       0.22244981       0.44401845       0.04460000 </v>
    <v>       0.11068511       0.88911647       0.95539999 </v>
    <v>       0.22244981       0.77735180       0.04460000 </v>
    <v>       0.44401845       0.22244981       0.95539999 </v>
    <v>       0.55578315       0.11068511       0.04460000 </v>
    <v>       0.44401845       0.55578315       0.95539999 </v>
    <v>       0.55578315       0.44401845       0.04460000 </v>
    <v>       0.44401845       0.88911647       0.95539999 </v>
    <v>       0.55578315       0.77735180       0.04460000 </v>
    <v>       0.77735180       0.22244981       0.95539999 </v>
    <v>       0.88911647       0.11068511       0.04460000 </v>
    <v>       0.77735180       0.55578315       0.95539999 </v>
    <v>       0.88911647       0.44401845       0.04460000 </v>
    <v>       0.77735180       0.88911647       0.95539999 </v>
    <v>       0.88911647       0.77735180       0.04460000 </v>
   </varray>
  </structure>
  <varray name="forces" >
   <v>      -0.21670249      -0.20569909       0.03982883 </v>
   <v>       0.13693482      -0.07646493      -0.08052622 </v>
   <v>       0.28041965      -0.07999406       0.09569813 </v>
   <v>      -0.25091670      -0.08475154       0.06829562 </v>
   <v>       0.01358012       0.26221001      -0.01928354 </v>
   <v>       0.25662713      -0.14047594      -0.11533305 </v>
   <v>       0.28224812      -0.23632217      -0.03991630 </v>
   <v>      -0.60439058       0.27685060      -0.01209513 </v>
   <v>       0.05465758       0.34631614       0.07472207 </v>
   <v>       0.35824334       0.68384499      -2.15092497 </v>
   <v>      -0.52406771       0.72720728       2.15788287 </v>
   <v>       0.11398893      -0.01402349      -2.86428054 </v>
   <v>       0.61840276       0.00837930       2.15570594 </v>
   <v>       0.19492858      -0.16126584      -2.95397010 </v>
   <v>      -0.02461281      -0.16156123       2.90935324 </v>
   <v>      -0.31881257       0.66749529      -1.43848879 </v>
   <v>       0.31410921       0.66294187       1.38982911 </v>
   <v>       0.37580360      -0.70193409      -2.12002908 </v>
   <v>       0.31802257      -0.69103698       1.42810529 </v>
   <v>       0.61991551       0.57653784      -2.17349157 </v>
   <v>      -0.61561010       0.52915590       2.16788629 </v>
   <v>      -0.22085936      -0.53630498      -1.43599987 </v>
   <v>      -0.62552235      -0.54805649       2.13262312 </v>
   <v>       0.62815135      -0.54399719      -2.14857143 </v>
   <v>      -0.45756502      -0.55039829       2.12526142 </v>
   <v>      -0.76611479       0.00943127      -2.12990280 </v>
   <v>       0.05914120      -0.01808418       2.93762146 </v>
  </varray>
  <varray name="stress" >
   <v>       7.29427436      -0.03892033      -1.56927547 </v>
   <v>      -0.03892023       4.44748662      -0.01734193 </v>
   <v>      -1.56927550      -0.01734187      30.32387469 </v>
  </varray>
  <energy>
   <i name="e_fr_energy">   -186.83183940 </i>
   <i name="e_wo_entrp">   -186.65930539 </i>
   <i name="e_0_energy">     -0.34506802 </i>
  </energy>
  <time name="totalsc">  797.97  800.11</time>
 </calculation>
 <calculation>
  <scstep>
   <time name="dav">   21.51   21.57</time>
   <time name="total">   22.06   22.11</time>
   <energy>
    <i name="alphaZ">     78.92421310 </i>
    <i name="ewald">  39380.77114737 </i>
    <i name="hartreedc"> -45338.21383021 </i>
    <i name="XCdc">   -239.07069006 </i>
    <i name="pawpsdc">   4192.03198752 </i>
    <i name="pawaedc">  -3610.03402206 </i>
    <i name="eentropy">     -0.28796765 </i>
    <i name="bandstr">  -1413.02919461 </i>
    <i name="atom">   6761.44252427 </i>
    <i name="e_fr_energy">   -187.46583233 </i>
    <i name="e_wo_entrp">   -187.17786468 </i>
    <i name="e_0_energy">   -187.32184851 </i>
   </energy>
  </scstep>
  <scstep>
   <time name="dav">   30.00   30.07</time>
   <time name="total">   30.54   30.62</time>
   <energy>
    <i name="e_fr_energy">   -189.25496894 </i>
    <i name="e_wo_entrp">   -188.94054646 </i>
    <i name="e_0_energy">   -189.09775770 </i>
   </energy>
  </scstep>
  <scstep>
   <time name="dav">   30.42   30.49</time>
   <time name="total">   30.97   31.05</time>
   <energy>
    <i name="e_fr_energy">   -189.39153047 </i>
    <i name="e_wo_entrp">   -189.10900505 </i>
    <i name="e_0_energy">   -189.25026776 </i>
   </energy>
  </scstep>
  <scstep>
   <time name="dav">   30.86   30.94</time>
   <time name="total">   31.40   31.49</time>
   <energy>
    <i name="e_fr_energy">   -188.73427552 </i>
    <i name="e_wo_entrp">   -188.44846952 </i>
    <i name="e_0_energy">   -188.59137252 </i>
   </energy>
  </scstep>
  <scstep>
   <time name="dav">   27.22   27.29</time>
   <time name="total">   27.78   27.97</time>
   <energy>
    <i name="e_fr_energy">   -188.72722282 </i>
    <i name="e_wo_entrp">   -188.43792332 </i>
    <i name="e_0_energy">   -188.58257307 </i>
   </energy>
  </scstep>
  <scstep>
   <time name="dav">   29.66   29.73</time>
   <time name="total">   30.21   30.29</time>
   <energy>
    <i name="e_fr_energy">   -188.69101870 </i>
    <i name="e_wo_entrp">   -188.40277401 </i>
    <i name="e_0_energy">   -188.54689635 </i>
   </energy>
  </scstep>
  <scstep>
   <time name="dav">   31.48   31.55</time>
   <time name="total">   32.03   32.11</time>
   <energy>
    <i name="e_fr_energy">   -188.68834964 </i>
    <i name="e_wo_entrp">   -188.40230379 </i>
    <i name="e_0_energy">   -188.54532672 </i>
   </energy>
  </scstep>
  <scstep>
   <time name="dav">   31.00   31.07</time>
   <time name="total">   31.55   31.63</time>
   <energy>
    <i name="e_fr_energy">   -188.64880305 </i>
    <i name="e_wo_entrp">   -188.36345296 </i>
    <i name="e_0_energy">   -188.50612800 </i>
   </energy>
  </scstep>
  <scstep>
   <time name="dav">   26.82   26.88</time>
   <time name="total">   27.37   27.44</time>
   <energy>
    <i name="e_fr_energy">   -188.64519011 </i>
    <i name="e_wo_entrp">   -188.35956812 </i>
    <i name="e_0_energy">   -188.50237911 </i>
   </energy>
  </scstep>
  <scstep>
   <time name="dav">   32.61   32.69</time>
   <time name="total">   33.16   33.25</time>
   <energy>
    <i name="e_fr_energy">   -188.64579111 </i>
    <i name="e_wo_entrp">   -188.36121374 </i>
    <i name="e_0_energy">   -188.50350243 </i>
   </energy>
  </scstep>
  <scstep>
   <time name="dav">   30.21   30.29</time>
   <time name="total">   30.77   30.84</time>
   <energy>
    <i name="e_fr_energy">   -188.64486732 </i>
    <i name="e_wo_entrp">   -188.36001605 </i>
    <i name="e_0_energy">   -188.50244168 </i>
   </energy>
  </scstep>
  <scstep>
   <time name="dav">   27.84   27.91</time>
   <time name="total">   27.88   27.95</time>
   <energy>
    <i name="alphaZ">     78.92421310 </i>
    <i name="ewald">  39380.77114737 </i>
    <i name="hartreedc"> -45349.17456411 </i>
    <i name="XCdc">   -237.97630105 </i>
    <i name="pawpsdc">   3951.65035202 </i>
    <i name="pawaedc">  -3366.16861613 </i>
    <i name="eentropy">     -0.28488216 </i>
    <i name="bandstr">  -1407.82880957 </i>
    <i name="atom">   6761.44252427 </i>
    <i name="e_fr_energy">   -188.64493626 </i>
    <i name="e_wo_entrp">   -188.36005410 </i>
    <i name="e_0_energy">   -188.50249518 </i>
   </energy>
  </scstep>
  <structure>
   <crystal>
    <varray name="basis" >
     <v>       8.85433579       5.10455273       0.00000000 </v>
     <v>      -8.85548273       5.10652623       0.00000000 </v>
     <v>       0.00000000       0.00000000      30.00000000 </v>
    </varray>
    <i name="volume">   2712.54529531 </i>
    <varray name="rec_basis" >
     <v>       0.05647677       0.09793919       0.00000000 </v>
     <v>      -0.05645494       0.09792650       0.00000000 </v>
     <v>       0.00000000       0.00000000       0.03333333 </v>
    </varray>
   </crystal>
   <varray name="positions" >
    <v>       0.66507931       0.33295177       0.00006405 </v>
    <v>       0.66668170      -0.00074693      -0.00012949 </v>
    <v>       0.33373067       0.33217032       0.00015389 </v>
    <v>       0.33222963       0.00029247       0.00010983 </v>
    <v>       0.66795940       0.66788384      -0.00003101 </v>
    <v>       0.00004166      -0.00138629      -0.00018547 </v>
    <v>       0.99965423       0.33141705      -0.00006419 </v>
    <v>      -0.00035651       0.66967320      -0.00001945 </v>
    <v>       0.33514287       0.66817208       0.00012016 </v>
    <v>       0.11495467       0.22472599       0.95194111 </v>
    <v>       0.22447217       0.11562355       0.04807007 </v>
    <v>       0.11093513       0.55539890       0.95079397 </v>
    <v>       0.22421041       0.44233806       0.04806656 </v>
    <v>       0.11045562       0.88780233       0.95064974 </v>
    <v>       0.22160810       0.77664704       0.04927850 </v>
    <v>       0.44632608       0.22653141       0.95308677 </v>
    <v>       0.55982988       0.11298403       0.04683497 </v>
    <v>       0.44170456       0.55137817       0.95199080 </v>
    <v>       0.55336065       0.43982638       0.04689652 </v>
    <v>       0.44850245       0.89015106       0.95190482 </v>
    <v>       0.55660296       0.78159705       0.04808615 </v>
    <v>       0.77417059       0.22049753       0.95309078 </v>
    <v>       0.88475318       0.10980243       0.04802945 </v>
    <v>       0.77649586       0.55143198       0.95194490 </v>
    <v>       0.88520925       0.44265728       0.04801761 </v>
    <v>       0.77526548       0.89129306       0.95197492 </v>
    <v>       0.88919446       0.77710071       0.04932395 </v>
   </varray>
  </structure>
  <varray name="forces" >
   <v>      -0.14465160      -0.13573157       0.10310188 </v>
   <v>       0.12634527      -0.08825091      -0.02449182 </v>
   <v>       0.14783574      -0.08676140       0.04138083 </v>
   <v>      -0.18805353      -0.42421992       0.09138615 </v>
   <v>       0.04203197       0.37699673      -0.08775240 </v>
   <v>       0.41875255      -0.23977744      -0.03407104 </v>
   <v>       0.24923895      -0.08925767       0.00065204 </v>
   <v>      -0.59025726       0.41339211      -0.00497603 </v>
   <v>      -0.02582382       0.21383736      -0.07361382 </v>
   <v>      -0.10208900       0.05093039       0.01733770 </v>
   <v>      -0.03687437       0.07238149       0.09023460 </v>
   <v>      -0.02891976      -0.00060355       0.25746010 </v>
   <v>      -0.06695371       0.00079698      -0.07998491 </v>
   <v>       0.04111796      -0.09951715      -0.28585385 </v>
   <v>       0.07644841      -0.12595839       0.03508283 </v>
   <v>      -0.00272279       0.04048482       0.00426567 </v>
   <v>      -0.00215774       0.04125338      -0.15172764 </v>
   <v>      -0.10387147      -0.05551059       0.14862278 </v>
   <v>       0.00955553      -0.04475520      -0.04667646 </v>
   <v>       0.07534941      -0.02846793       0.02610508 </v>
   <v>      -0.08813591      -0.03404816       0.06013644 </v>
   <v>       0.06668986       0.05529601       0.10219743 </v>
   <v>      -0.07998251       0.05374128      -0.05743734 </v>
   <v>       0.08233423       0.04490191       0.02657656 </v>
   <v>       0.06363734       0.07020357      -0.25886987 </v>
   <v>      -0.06398426       0.00760327      -0.13612531 </v>
   <v>       0.12514051       0.01104060       0.23704041 </v>
  </varray>
  <varray name="stress" >
   <v>     -19.91173656       0.00807803       0.03377027 </v>
   <v>       0.00807803     -19.50440467       0.02823689 </v>
   <v>       0.03377018       0.02823678      -1.77071091 </v>
  </varray>
  <energy>
   <i name="e_fr_energy">   -188.64493626 </i>
   <i name="e_wo_entrp">   -188.50249518 </i>
   <i name="e_0_energy">     -0.28488216 </i>
  </energy>
  <time name="totalsc">  397.92  399.08</time>
 </calculation>
 <calculation>
  <scstep>
   <time name="dav">   23.79   23.85</time>
   <time name="total">   24.33   24.39</time>
   <energy>
    <i name="alphaZ">     82.35034649 </i>
    <i name="ewald">  41304.91978948 </i>
    <i name="hartreedc"> -47303.94250403 </i>
    <i name="XCdc">   -233.85300169 </i>
    <i name="pawpsdc">   3950.46066998 </i>
    <i name="pawaedc">  -3364.96550780 </i>
    <i name="eentropy">     -0.23765317 </i>
    <i name="bandstr">  -1386.74023869 </i>
    <i name="atom">   6761.44252427 </i>
    <i name="e_fr_energy">   -190.56557516 </i>
    <i name="e_wo_entrp">   -190.32792199 </i>
    <i name="e_0_energy">   -190.44674857 </i>
   </energy>
  </scstep>
  <scstep>
   <time name="dav">   28.19   28.26</time>
   <time name="total">   28.72   28.80</time>
   <energy>
    <i name="e_fr_energy">   -190.55020482 </i>
    <i name="e_wo_entrp">   -190.30745841 </i>
    <i name="e_0_energy">   -190.42883161 </i>
   </energy>
  </scstep>
  <scstep>
   <time name="dav">   30.25   30.32</time>
   <time name="total">   30.78   30.86</time>
   <energy>
    <i name="e_fr_energy">   -190.04031288 </i>
    <i name="e_wo_entrp">   -189.79149157 </i>
    <i name="e_0_energy">   -189.91590222 </i>
   </energy>
  </scstep>
  <scstep>
   <time name="dav">   31.11   31.19</time>
   <time name="total">   31.66   31.74</time>
   <energy>
    <i name="e_fr_energy">   -189.83417565 </i>
    <i name="e_wo_entrp">   -189.59408750 </i>
    <i name="e_0_energy">   -189.71413157 </i>
   </energy>
  </scstep>
  <scstep>
   <time name="dav">   28.92   28.99</time>
   <time name="total">   29.46   29.54</time>
   <energy>
    <i name="e_fr_energy">   -189.74638850 </i>
    <i name="e_wo_entrp">   -189.50432039 </i>
    <i name="e_0_energy">   -189.62535444 </i>
   </energy>
  </scstep>
  <scstep>
   <time name="dav">   26.67   26.74</time>
   <time name="total">   27.21   27.29</time>
   <energy>
    <i name="e_fr_energy">   -189.73151054 </i>
    <i name="e_wo_entrp">   -189.49038103 </i>
    <i name="e_0_energy">   -189.61094578 </i>
   </energy>
  </scstep>
  <scstep>
   <time name="dav">   30.32   30.39</time>
   <time name="total">   30.86   30.94</time>
   <energy>
    <i name="e_fr_energy">   -189.73293526 </i>
    <i name="e_wo_entrp">   -189.49150697 </i>
    <i name="e_0_energy">   -189.61222112 </i>
   </energy>
  </scstep>
  <scstep>
   <time name="dav">   29.48   29.55</time>
   <time name="total">   30.02   30.10</time>
   <energy>
    <i name="e_fr_energy">   -189.73161282 </i>
    <i name="e_wo_entrp">   -189.49049880 </i>
    <i name="e_0_energy">   -189.61105581 </i>
   </energy>
  </scstep>
  <scstep>
   <time name="dav">   26.30   26.36</time>
   <time name="total">   26.84   26.91</time>
   <energy>
    <i name="e_fr_energy">   -189.73173472 </i>
    <i name="e_wo_entrp">   -189.49046748 </i>
    <i name="e_0_energy">   -189.61110110 </i>
   </energy>
  </scstep>
  <scstep>
   <time name="dav">   25.44   25.50</time>
   <time name="total">   25.48   25.55</time>
   <energy>
    <i name="alphaZ">     82.35034649 </i>
    <i name="ewald">  41304.91978948 </i>
    <i name="hartreedc"> -47276.92089037 </i>
    <i name="XCdc">   -235.24348859 </i>
    <i name="pawpsdc">   4037.21268667 </i>
    <i name="pawaedc">  -3452.90252513 </i>
    <i name="eentropy">     -0.24112431 </i>
    <i name="bandstr">  -1410.34904856 </i>
    <i name="atom">   6761.44252427 </i>
    <i name="e_fr_energy">   -189.73173005 </i>
    <i name="e_wo_entrp">   -189.49060574 </i>
    <i name="e_0_energy">   -189.61116789 </i>
   </energy>
  </scstep>
  <structure>
   <crystal>
    <varray name="basis" >
     <v>       8.66631016       4.99842429       0.00000000 </v>
     <v>      -8.66734475       5.00020412       0.00000000 </v>
     <v>       0.00000000       0.00000000      30.00000000 </v>
    </varray>
    <i name="volume">   2599.69158683 </i>
    <varray name="rec_basis" >
     <v>       0.05770151       0.10001969       0.00000000 </v>
     <v>      -0.05768097       0.10000775       0.00000000 </v>
     <v>       0.00000000       0.00000000       0.03333333 </v>
    </varray>
   </crystal>
   <varray name="positions" >
    <v>       0.66471419       0.33286458       0.00012251 </v>
    <v>       0.66665605      -0.00101529      -0.00014338 </v>
    <v>       0.33372815       0.33188380       0.00017736 </v>
    <v>       0.33134215      -0.00023363       0.00016165 </v>
    <v>       0.66862791       0.66847151      -0.00008077 </v>
    <v>       0.00004449      -0.00218791      -0.00020479 </v>
    <v>       0.99974497       0.33102899      -0.00006382 </v>
    <v>      -0.00023485       0.67092876      -0.00002227 </v>
    <v>       0.33547434       0.66855312       0.00007842 </v>
    <v>       0.11494144       0.22490888       0.95195094 </v>
    <v>       0.22455734       0.11577954       0.04812123 </v>
    <v>       0.11090634       0.55542567       0.95093997 </v>
    <v>       0.22414741       0.44240369       0.04802121 </v>
    <v>       0.11032931       0.88759705       0.95048765 </v>
    <v>       0.22147169       0.77636379       0.04929839 </v>
    <v>       0.44639092       0.22660147       0.95308919 </v>
    <v>       0.55989654       0.11305483       0.04674893 </v>
    <v>       0.44151227       0.55138545       0.95207507 </v>
    <v>       0.55329527       0.43974264       0.04687005 </v>
    <v>       0.44852742       0.89003127       0.95191963 </v>
    <v>       0.55646155       0.78162498       0.04812025 </v>
    <v>       0.77432679       0.22052560       0.95314873 </v>
    <v>       0.88476587       0.10996877       0.04799687 </v>
    <v>       0.77664977       0.55142771       0.95195997 </v>
    <v>       0.88538736       0.44271311       0.04787081 </v>
    <v>       0.77521667       0.89136717       0.95189773 </v>
    <v>       0.88933308       0.77699891       0.04945837 </v>
   </varray>
  </structure>
  <varray name="forces" >
   <v>      -0.11958910      -0.09737277       0.09355096 </v>
   <v>       0.15294578      -0.10928173      -0.00334721 </v>
   <v>       0.07002882      -0.09566045       0.01997411 </v>
   <v>      -0.16507862      -0.52479384       0.06849748 </v>
   <v>       0.02993073       0.41082231      -0.07667277 </v>
   <v>       0.45638344      -0.26993484      -0.00523846 </v>
   <v>       0.25025675      -0.04073816       0.01378198 </v>
   <v>      -0.57427211       0.45420498      -0.00213753 </v>
   <v>      -0.04527207       0.16964833      -0.08747574 </v>
   <v>       0.04167708       0.10502471      -0.48650041 </v>
   <v>      -0.08779316       0.12032741       0.58462671 </v>
   <v>      -0.04289964       0.00124057      -0.26875535 </v>
   <v>       0.08088655       0.01680942       0.42844691 </v>
   <v>      -0.00367892      -0.01648732      -0.87691191 </v>
   <v>       0.04317805      -0.07262177       0.60072983 </v>
   <v>      -0.03498050       0.09034906      -0.43878456 </v>
   <v>       0.04043268       0.09254237       0.28306934 </v>
   <v>       0.02353983      -0.11020670      -0.33380697 </v>
   <v>       0.02884618      -0.08834563       0.39490838 </v>
   <v>       0.05535316       0.11148462      -0.47143516 </v>
   <v>      -0.07712287       0.10817711       0.56537385 </v>
   <v>      -0.01889552      -0.08585380      -0.36062617 </v>
   <v>      -0.05477414      -0.08624523       0.43535365 </v>
   <v>       0.08161478      -0.08437836      -0.46911310 </v>
   <v>      -0.01654544      -0.03302206       0.21838743 </v>
   <v>      -0.13857960       0.02109499      -0.63854529 </v>
   <v>       0.02440786       0.01321680       0.81265001 </v>
  </varray>
  <varray name="stress" >
   <v>     -10.15131884       0.00411781       0.01395535 </v>
   <v>       0.00411789      -9.82747304       0.03053559 </v>
   <v>       0.01395524       0.03053563       6.57861512 </v>
  </varray>
  <energy>
   <i name="e_fr_energy">   -189.73173005 </i>
   <i name="e_wo_entrp">   -189.61116789 </i>
   <i name="e_0_energy">     -0.24112431 </i>
  </energy>
  <time name="totalsc">  327.52  328.38</time>
 </calculation>
 <calculation>
  <scstep>
   <time name="dav">   21.55   21.60</time>
   <time name="total">   22.07   22.13</time>
   <energy>
    <i name="alphaZ">     85.82299103 </i>
    <i name="ewald">  42833.05433433 </i>
    <i name="hartreedc"> -48849.43731839 </i>
    <i name="XCdc">   -232.96399266 </i>
    <i name="pawpsdc">   4037.95318326 </i>
    <i name="pawaedc">  -3453.64922962 </i>
    <i name="eentropy">     -0.20245974 </i>
    <i name="bandstr">  -1373.30949318 </i>
    <i name="atom">   6761.44252427 </i>
    <i name="e_fr_energy">   -191.28946070 </i>
    <i name="e_wo_entrp">   -191.08700096 </i>
    <i name="e_0_energy">   -191.18823083 </i>
   </energy>
  </scstep>
  <scstep>
   <time name="dav">   31.94   32.01</time>
   <time name="total">   32.45   32.54</time>
   <energy>
    <i name="e_fr_energy">   -191.18414528 </i>
    <i name="e_wo_entrp">   -190.97380555 </i>
    <i name="e_0_energy">   -191.07897541 </i>
   </energy>
  </scstep>
  <scstep>
   <time name="dav">   29.80   29.87</time>
   <time name="total">   30.32   30.40</time>
   <energy>
    <i name="e_fr_energy">   -191.19906176 </i>
    <i name="e_wo_entrp">   -190.98134855 </i>
    <i name="e_0_energy">   -191.09020515 </i>
   </energy>
  </scstep>
  <scstep>
   <time name="dav">   31.41   31.49</time>
   <time name="total">   31.94   32.02</time>
   <energy>
    <i name="e_fr_energy">   -190.85740693 </i>
    <i name="e_wo_entrp">   -190.64616967 </i>
    <i name="e_0_energy">   -190.75178830 </i>
   </energy>
  </scstep>
  <scstep>
   <time name="dav">   29.45   29.52</time>
   <time name="total">   29.97   30.05</time>
   <energy>
    <i name="e_fr_energy">   -190.83887676 </i>
    <i name="e_wo_entrp">   -190.63368717 </i>
    <i name="e_0_energy">   -190.73628196 </i>
   </energy>
  </scstep>
  <scstep>
   <time name="dav">   30.09   30.17</time>
   <time name="total">   30.62   30.70</time>
   <energy>
    <i name="e_fr_energy">   -190.71431339 </i>
    <i name="e_wo_entrp">   -190.50355192 </i>
    <i name="e_0_energy">   -190.60893265 </i>
   </energy>
  </scstep>
  <scstep>
   <time name="dav">   30.65   30.72</time>
   <time name="total">   31.17   31.25</time>
   <energy>
    <i name="e_fr_energy">   -190.70443978 </i>
    <i name="e_wo_entrp">   -190.49556452 </i>
    <i name="e_0_energy">   -190.60000215 </i>
   </energy>
  </scstep>
  <scstep>
   <time name="dav">   28.37   28.44</time>
   <time name="total">   28.89   28.97</time>
   <energy>
    <i name="e_fr_energy">   -190.70334671 </i>
    <i name="e_wo_entrp">   -190.49433584 </i>
    <i name="e_0_energy">   -190.59884127 </i>
   </energy>
  </scstep>
  <scstep>
   <time name="dav">   28.30   28.36</time>
   <time name="total">   28.82   28.90</time>
   <energy>
    <i name="e_fr_energy">   -190.70121235 </i>
    <i name="e_wo_entrp">   -190.49216736 </i>
    <i name="e_0_energy">   -190.59668986 </i>
   </energy>
  </scstep>
  <scstep>
   <time name="dav">   26.17   26.23</time>
   <time name="total">   26.69   26.76</time>
   <energy>
    <i name="e_fr_energy">   -190.70145109 </i>
    <i name="e_wo_entrp">   -190.49230042 </i>
    <i name="e_0_energy">   -190.59687576 </i>
   </energy>
  </scstep>
  <scstep>
   <time name="dav">   26.48   26.55</time>
   <time name="total">   27.01   27.08</time>
   <energy>
    <i name="e_fr_energy">   -190.70131600 </i>
    <i name="e_wo_entrp">   -190.49231103 </i>
    <i name="e_0_energy">   -190.59681351 </i>
   </energy>
  </scstep>
  <scstep>
   <time name="dav">   21.30   21.36</time>
   <time name="total">   21.34   21.40</time>
   <energy>
    <i name="alphaZ">     85.82299103 </i>
    <i name="ewald">  42833.05433433 </i>
    <i name="hartreedc"> -48821.23420079 </i>
    <i name="XCdc">   -234.29153738 </i>
    <i name="pawpsdc">   4063.61588009 </i>
    <i name="pawaedc">  -3479.49633145 </i>
    <i name="eentropy">     -0.20903671 </i>
    <i name="bandstr">  -1399.40591929 </i>
    <i name="atom">   6761.44252427 </i>
    <i name="e_fr_energy">   -190.70129589 </i>
    <i name="e_wo_entrp">   -190.49225918 </i>
    <i name="e_0_energy">   -190.59677754 </i>
   </energy>
  </scstep>
  <structure>
   <crystal>
    <varray name="basis" >
     <v>       8.48476560       4.89889012       0.00000000 </v>
     <v>      -8.48569633       4.90049203       0.00000000 </v>
     <v>       0.00000000       0.00000000      30.00000000 </v>
    </varray>
    <i name="volume">   2494.50060360 </i>
    <varray name="rec_basis" >
     <v>       0.05893555       0.10205285       0.00000000 </v>
     <v>      -0.05891628       0.10204165       0.00000000 </v>
     <v>       0.00000000       0.00000000       0.03333333 </v>
    </varray>
   </crystal>
   <varray name="positions" >
    <v>       0.66380359       0.33274635       0.00030806 </v>
    <v>       0.66651013      -0.00234293      -0.00013238 </v>
    <v>       0.33324810       0.33112121       0.00020055 </v>
    <v>       0.32724071      -0.00320758       0.00028403 </v>
    <v>       0.67137632       0.67103806      -0.00023008 </v>
    <v>      -0.00001793      -0.00565665      -0.00019118 </v>
    <v>       1.00051662       0.32998904      -0.00002416 </v>
    <v>       0.00065930       0.67592710      -0.00002429 </v>
    <v>       0.33623536       0.66969709      -0.00011440 </v>
    <v>       0.11609122       0.22534438       0.95051675 </v>
    <v>       0.22504004       0.11704292       0.04975054 </v>
    <v>       0.11074357       0.55561311       0.94993751 </v>
    <v>       0.22479731       0.44204432       0.04933914 </v>
    <v>       0.11035523       0.88777822       0.94817138 </v>
    <v>       0.22125793       0.77593357       0.05102144 </v>
    <v>       0.44690831       0.22746426       0.95180530 </v>
    <v>       0.56081130       0.11355495       0.04770350 </v>
    <v>       0.44095380       0.55029096       0.95097509 </v>
    <v>       0.55276526       0.43894882       0.04806188 </v>
    <v>       0.44974573       0.89090683       0.95052195 </v>
    <v>       0.55723054       0.78291960       0.04971890 </v>
    <v>       0.77324615       0.21982747       0.95200985 </v>
    <v>       0.88371516       0.10924162       0.04931584 </v>
    <v>       0.77609312       0.55028337       0.95056867 </v>
    <v>       0.88474838       0.44242409       0.04872750 </v>
    <v>       0.77477440       0.89214071       0.95015001 </v>
    <v>       0.88936481       0.77714357       0.05162853 </v>
   </varray>
  </structure>
  <varray name="forces" >
   <v>      -0.08054346      -0.08196983       0.04855590 </v>
   <v>       0.13664505      -0.10030621       0.03547266 </v>
   <v>      -0.01476202      -0.09779026      -0.03255295 </v>
   <v>      -0.15622233      -0.57129913       0.01141812 </v>
   <v>       0.04686930       0.40937124      -0.03826036 </v>
   <v>       0.48091366      -0.25723852       0.02486680 </v>
   <v>       0.29193933      -0.07770151       0.01708321 </v>
   <v>      -0.56912299       0.47406816      -0.00380590 </v>
   <v>      -0.05816647       0.15733759      -0.06514451 </v>
   <v>       0.09365859      -0.00967408      -0.32302441 </v>
   <v>      -0.02067199      -0.01239629       0.42254141 </v>
   <v>      -0.09072214      -0.00147996      -0.09198345 </v>
   <v>       0.06674550       0.04816503       0.30003769 </v>
   <v>      -0.03837550       0.02293861      -0.71446864 </v>
   <v>      -0.01279373      -0.05055745       0.44593780 </v>
   <v>       0.01386218      -0.02685844      -0.27567294 </v>
   <v>      -0.02605112      -0.04911815       0.18366909 </v>
   <v>       0.06197145       0.01620038      -0.18692699 </v>
   <v>      -0.03291296       0.01953386       0.29196315 </v>
   <v>      -0.04267191       0.07437204      -0.32065403 </v>
   <v>      -0.00958663       0.06559500       0.36636994 </v>
   <v>      -0.00614972      -0.04668043      -0.25684760 </v>
   <v>       0.05380524      -0.04464536       0.26821974 </v>
   <v>       0.01768492       0.01129516      -0.29326929 </v>
   <v>      -0.05039181       0.05748383       0.05832390 </v>
   <v>      -0.01753915       0.05698716      -0.49599737 </v>
   <v>      -0.03741128       0.01436759       0.62414904 </v>
  </varray>
  <varray name="stress" >
   <v>      -5.73335071      -0.07404655      -0.05706635 </v>
   <v>      -0.07404657      -5.70968731      -0.05427154 </v>
   <v>      -0.05706632      -0.05427179       4.47908475 </v>
  </varray>
  <energy>
   <i name="e_fr_energy">   -190.70129589 </i>
   <i name="e_wo_entrp">   -190.59677754 </i>
   <i name="e_0_energy">     -0.20903671 </i>
  </energy>
  <time name="totalsc">  383.43  384.44</time>
 </calculation>
 <calculation>
  <scstep>
   <time name="dav">   21.59   21.65</time>
   <time name="total">   22.11   22.16</time>
   <energy>
    <i name="alphaZ">     90.13392885 </i>
    <i name="ewald">  44646.55381504 </i>
    <i name="hartreedc"> -50689.55548129 </i>
    <i name="XCdc">   -231.86119496 </i>
    <i name="pawpsdc">   4063.55602789 </i>
    <i name="pawaedc">  -3479.43105681 </i>
    <i name="eentropy">     -0.19285145 </i>
    <i name="bandstr">  -1352.67437003 </i>
    <i name="atom">   6761.44252427 </i>
    <i name="e_fr_energy">   -192.02865848 </i>
    <i name="e_wo_entrp">   -191.83580703 </i>
    <i name="e_0_energy">   -191.93223275 </i>
   </energy>
  </scstep>
  <scstep>
   <time name="dav">   30.02   30.09</time>
   <time name="total">   30.53   30.61</time>
   <energy>
    <i name="e_fr_energy">   -191.88668742 </i>
    <i name="e_wo_entrp">   -191.68173312 </i>
    <i name="e_0_energy">   -191.78421027 </i>
   </energy>
  </scstep>
  <scstep>
   <time name="dav">   27.91   27.98</time>
   <time name="total">   28.41   28.49</time>
   <energy>
    <i name="e_fr_energy">   -192.20862372 </i>
    <i name="e_wo_entrp">   -192.00116138 </i>
    <i name="e_0_energy">   -192.10489255 </i>
   </energy>
  </scstep>
  <scstep>
   <time name="dav">   29.68   29.75</time>
   <time name="total">   30.19   30.27</time>
   <energy>
    <i name="e_fr_energy">   -191.58476571 </i>
    <i name="e_wo_entrp">   -191.38043220 </i>
    <i name="e_0_energy">   -191.48259896 </i>
   </energy>
  </scstep>
  <scstep>
   <time name="dav">   30.07   30.14</time>
   <time name="total">   30.58   30.66</time>
   <energy>
    <i name="e_fr_energy">   -191.52194280 </i>
    <i name="e_wo_entrp">   -191.32622835 </i>
    <i name="e_0_energy">   -191.42408558 </i>
   </energy>
  </scstep>
  <scstep>
   <time name="dav">   30.03   30.10</time>
   <time name="total">   30.54   30.62</time>
   <energy>
    <i name="e_fr_energy">   -191.33479175 </i>
    <i name="e_wo_entrp">   -191.13245621 </i>
    <i name="e_0_energy">   -191.23362398 </i>
   </energy>
  </scstep>
  <scstep>
   <time name="dav">   29.95   30.03</time>
   <time name="total">   30.47   30.55</time>
   <energy>
    <i name="e_fr_energy">   -191.32845544 </i>
    <i name="e_wo_entrp">   -191.12709159 </i>
    <i name="e_0_energy">   -191.22777352 </i>
   </energy>
  </scstep>
  <scstep>
   <time name="dav">   29.32   29.39</time>
   <time name="total">   29.85   30.04</time>
   <energy>
    <i name="e_fr_energy">   -191.32628981 </i>
    <i name="e_wo_entrp">   -191.12521181 </i>
    <i name="e_0_energy">   -191.22575081 </i>
   </energy>
  </scstep>
  <scstep>
   <time name="dav">   29.45   29.52</time>
   <time name="total">   29.96   30.04</time>
   <energy>
    <i name="e_fr_energy">   -191.32308475 </i>
    <i name="e_wo_entrp">   -191.12165247 </i>
    <i name="e_0_energy">   -191.22236861 </i>
   </energy>
  </scstep>
  <scstep>
   <time name="dav">   27.29   27.36</time>
   <time name="total">   27.81   27.88</time>
   <energy>
    <i name="e_fr_energy">   -191.32349424 </i>
    <i name="e_wo_entrp">   -191.12221664 </i>
    <i name="e_0_energy">   -191.22285544 </i>
   </energy>
  </scstep>
  <scstep>
   <time name="dav">   27.99   28.06</time>
   <time name="total">   28.50   28.58</time>
   <energy>
    <i name="e_fr_energy">   -191.32325132 </i>
    <i name="e_wo_entrp">   -191.12195219 </i>
    <i name="e_0_energy">   -191.22260175 </i>
   </energy>
  </scstep>
  <scstep>
   <time name="dav">   18.53   18.57</time>
   <time name="total">   18.57   18.62</time>
   <energy>
    <i name="alphaZ">     90.13392885 </i>
    <i name="ewald">  44646.55381504 </i>
    <i name="hartreedc"> -50656.15625101 </i>
    <i name="XCdc">   -233.36940907 </i>
    <i name="pawpsdc">   4084.98831139 </i>
    <i name="pawaedc">  -3500.95654484 </i>
    <i name="eentropy">     -0.20133950 </i>
    <i name="bandstr">  -1383.75828908 </i>
    <i name="atom">   6761.44252427 </i>
    <i name="e_fr_energy">   -191.32325395 </i>
    <i name="e_wo_entrp">   -191.12191445 </i>
    <i name="e_0_energy">   -191.22258420 </i>
   </energy>
  </scstep>
  <structure>
   <crystal>
    <varray name="basis" >
     <v>       8.27619791       4.77708006       0.00000000 </v>
     <v>      -8.28148663       4.78622979       0.00000000 </v>
     <v>       0.00000000       0.00000000      30.00000000 </v>
    </varray>
    <i name="volume">   2375.19328914 </i>
    <varray name="rec_basis" >
     <v>       0.06045272       0.10459974       0.00000000 </v>
     <v>      -0.06033715       0.10453294       0.00000000 </v>
     <v>       0.00000000       0.00000000       0.03333333 </v>
    </varray>
   </crystal>
   <varray name="positions" >
    <v>       0.66232058       0.33239280       0.00051615 </v>
    <v>       0.66623287      -0.00466882       0.00000900 </v>
    <v>       0.33187837       0.33005505       0.00007783 </v>
    <v>       0.31896850      -0.00933149       0.00033752 </v>
    <v>       0.67677729       0.67584875      -0.00039216 </v>
    <v>       0.00016395      -0.01234399      -0.00007997 </v>
    <v>       1.00179005       0.32721549       0.00005496 </v>
    <v>       0.00254320       0.68580549      -0.00003581 </v>
    <v>       0.33762299       0.67194561      -0.00039939 </v>
    <v>       0.11716634       0.22472152       0.94865193 </v>
    <v>       0.22495088       0.11754175       0.05200205 </v>
    <v>       0.11011703       0.55622278       0.94896469 </v>
    <v>       0.22610925       0.44189875       0.05109821 </v>
    <v>       0.11049635       0.88854289       0.94466204 </v>
    <v>       0.22066387       0.77552324       0.05343172 </v>
    <v>       0.44691426       0.22747403       0.95018860 </v>
    <v>       0.56054110       0.11338535       0.04891168 </v>
    <v>       0.44139782       0.54951268       0.94968235 </v>
    <v>       0.55255946       0.43902641       0.04971016 </v>
    <v>       0.45087625       0.89251885       0.94867945 </v>
    <v>       0.55839615       0.78431297       0.05177668 </v>
    <v>       0.77200980       0.21898479       0.95048040 </v>
    <v>       0.88301786       0.10790849       0.05095341 </v>
    <v>       0.77588797       0.54970890       0.94882382 </v>
    <v>       0.88455060       0.44313798       0.04950963 </v>
    <v>       0.77508825       0.89317923       0.94760828 </v>
    <v>       0.88917339       0.77769494       0.05477667 </v>
   </varray>
  </structure>
  <varray name="forces" >
   <v>      -0.06436051      -0.10284266       0.03302362 </v>
   <v>       0.10442273      -0.05258655      -0.03960884 </v>
   <v>      -0.06541171      -0.08208596       0.00626602 </v>
   <v>      -0.02818072      -0.22614804      -0.05046088 </v>
   <v>      -0.02266808       0.20025070       0.01900264 </v>
   <v>       0.03816873       0.01574197      -0.04174305 </v>
   <v>       0.33578402      -0.18930100       0.00351543 </v>
   <v>      -0.17825259       0.14756858       0.04430129 </v>
   <v>      -0.07575420       0.17511013       0.00754834 </v>
   <v>       0.11296085      -0.11855051      -0.06822894 </v>
   <v>       0.07707122      -0.15241764       0.06901218 </v>
   <v>      -0.16819463      -0.02488497       0.21960766 </v>
   <v>       0.02434556       0.07472057      -0.00127888 </v>
   <v>      -0.07124092       0.02951524      -0.34381694 </v>
   <v>      -0.03668943      -0.09419563       0.13293923 </v>
   <v>       0.03392825      -0.13017873       0.00776616 </v>
   <v>      -0.08410862      -0.23214993      -0.05536590 </v>
   <v>       0.04482821       0.16966717       0.06012016 </v>
   <v>      -0.09290865       0.08984605      -0.02208818 </v>
   <v>      -0.11286120       0.00324257      -0.02844330 </v>
   <v>       0.03639865       0.00448212       0.06295019 </v>
   <v>       0.03956195      -0.00204867       0.01796177 </v>
   <v>       0.17063034      -0.00228906       0.05060299 </v>
   <v>      -0.02556003       0.17109445      -0.00297474 </v>
   <v>      -0.04492456       0.23268742      -0.24484430 </v>
   <v>       0.09369435       0.09588175      -0.11382915 </v>
   <v>      -0.04067901      -0.00012937       0.27806539 </v>
  </varray>
  <varray name="stress" >
   <v>      -0.00030024      -0.21607824       0.07576754 </v>
   <v>      -0.21607822       0.25551773      -0.30712573 </v>
   <v>       0.07576761      -0.30712575      -0.55530781 </v>
  </varray>
  <energy>
   <i name="e_fr_energy">   -191.32325395 </i>
   <i name="e_wo_entrp">   -191.22258420 </i>
   <i name="e_0_energy">     -0.20133950 </i>
  </energy>
  <time name="totalsc">  379.53  380.66</time>
 </calculation>
 <calculation>
  <scstep>
   <time name="dav">   21.57   21.62</time>
   <time name="total">   22.08   22.14</time>
   <energy>
    <i name="alphaZ">     90.06463937 </i>
    <i name="ewald">  44595.50931432 </i>
    <i name="hartreedc"> -50605.15304959 </i>
    <i name="XCdc">   -233.49687511 </i>
    <i name="pawpsdc">   4084.90463581 </i>
    <i name="pawaedc">  -3500.86898975 </i>
    <i name="eentropy">     -0.20430918 </i>
    <i name="bandstr">  -1383.56186234 </i>
    <i name="atom">   6761.44252427 </i>
    <i name="e_fr_energy">   -191.36397219 </i>
    <i name="e_wo_entrp">   -191.15966301 </i>
    <i name="e_0_energy">   -191.26181760 </i>
   </energy>
  </scstep>
  <scstep>
   <time name="dav">   31.09   31.16</time>
   <time name="total">   31.60   31.68</time>
   <energy>
    <i name="e_fr_energy">   -191.40559313 </i>
    <i name="e_wo_entrp">   -191.19842353 </i>
    <i name="e_0_energy">   -191.30200833 </i>
   </energy>
  </scstep>
  <scstep>
   <time name="dav">   29.57   29.64</time>
   <time name="total">   30.08   30.16</time>
   <energy>
    <i name="e_fr_energy">   -191.37543258 </i>
    <i name="e_wo_entrp">   -191.17147638 </i>
    <i name="e_0_energy">   -191.27345448 </i>
   </energy>
  </scstep>
  <scstep>
   <time name="dav">   27.67   27.73</time>
   <time name="total">   28.18   28.25</time>
   <energy>
    <i name="e_fr_energy">   -191.37537559 </i>
    <i name="e_wo_entrp">   -191.17036416 </i>
    <i name="e_0_energy">   -191.27286988 </i>
   </energy>
  </scstep>
  <scstep>
   <time name="dav">   25.98   26.05</time>
   <time name="total">   26.49   26.57</time>
   <energy>
    <i name="e_fr_energy">   -191.37328852 </i>
    <i name="e_wo_entrp">   -191.16854873 </i>
    <i name="e_0_energy">   -191.27091863 </i>
   </energy>
  </scstep>
  <scstep>
   <time name="dav">   27.05   27.11</time>
   <time name="total">   27.56   27.64</time>
   <energy>
    <i name="e_fr_energy">   -191.37318280 </i>
    <i name="e_wo_entrp">   -191.16835603 </i>
    <i name="e_0_energy">   -191.27076942 </i>
   </energy>
  </scstep>
  <scstep>
   <time name="dav">   26.28   26.35</time>
   <time name="total">   26.80   26.87</time>
   <energy>
    <i name="e_fr_energy">   -191.37350230 </i>
    <i name="e_wo_entrp">   -191.16882433 </i>
    <i name="e_0_energy">   -191.27116331 </i>
   </energy>
  </scstep>
  <scstep>
   <time name="dav">   23.20   23.25</time>
   <time name="total">   23.71   23.77</time>
   <energy>
    <i name="e_fr_energy">   -191.37287529 </i>
    <i name="e_wo_entrp">   -191.16812108 </i>
    <i name="e_0_energy">   -191.27049819 </i>
   </energy>
  </scstep>
  <scstep>
   <time name="dav">   17.07   17.11</time>
   <time name="total">   17.11   17.15</time>
   <energy>
    <i name="alphaZ">     90.06463937 </i>
    <i name="ewald">  44595.50931432 </i>
    <i name="hartreedc"> -50606.63146142 </i>
    <i name="XCdc">   -233.45554725 </i>
    <i name="pawpsdc">   4081.29718628 </i>
    <i name="pawaedc">  -3497.21276020 </i>
    <i name="eentropy">     -0.20480017 </i>
    <i name="bandstr">  -1382.18198337 </i>
    <i name="atom">   6761.44252427 </i>
    <i name="e_fr_energy">   -191.37288816 </i>
    <i name="e_wo_entrp">   -191.16808799 </i>
    <i name="e_0_energy">   -191.27048808 </i>
   </energy>
  </scstep>
  <structure>
   <crystal>
    <varray name="basis" >
     <v>       8.27388716       4.77582733       0.00000000 </v>
     <v>      -8.28460460       4.79438238       0.00000000 </v>
     <v>       0.00000000       0.00000000      30.00000000 </v>
    </varray>
    <i name="volume">   2377.02059791 </i>
    <varray name="rec_basis" >
     <v>       0.06050914       0.10455868       0.00000000 </v>
     <v>      -0.06027496       0.10442342       0.00000000 </v>
     <v>       0.00000000       0.00000000       0.03333333 </v>
    </varray>
   </crystal>
   <varray name="positions" >
    <v>       0.66162284       0.33206444       0.00056820 </v>
    <v>       0.66627281      -0.00522642      -0.00005482 </v>
    <v>       0.33128171       0.32983637       0.00008825 </v>
    <v>       0.31778092      -0.01036230       0.00025664 </v>
    <v>       0.67769760       0.67690161      -0.00036120 </v>
    <v>       0.00035315      -0.01235227      -0.00014712 </v>
    <v>       1.00180921       0.32530348       0.00006029 </v>
    <v>       0.00276001       0.68702729       0.00003505 </v>
    <v>       0.33827743       0.67303535      -0.00038629 </v>
    <v>       0.11689418       0.22380196       0.94855056 </v>
    <v>       0.22440947       0.11655159       0.05210337 </v>
    <v>       0.10950654       0.55658273       0.94932054 </v>
    <v>       0.22654965       0.44220405       0.05108884 </v>
    <v>       0.11043707       0.88889395       0.94412586 </v>
    <v>       0.22008665       0.77515826       0.05363456 </v>
    <v>       0.44635894       0.22672208       0.95020775 </v>
    <v>       0.55913221       0.11246478       0.04881792 </v>
    <v>       0.44237798       0.55023757       0.94978417 </v>
    <v>       0.55274203       0.43974643       0.04966809 </v>
    <v>       0.45056018       0.89285529       0.94864158 </v>
    <v>       0.55851920       0.78422412       0.05186891 </v>
    <v>       0.77211991       0.21886364       0.95051552 </v>
    <v>       0.88350476       0.10740870       0.05102740 </v>
    <v>       0.77667406       0.55064408       0.94882637 </v>
    <v>       0.88558972       0.44443305       0.04911421 </v>
    <v>       0.77584051       0.89338476       0.94743628 </v>
    <v>       0.88905568       0.77780987       0.05520896 </v>
   </varray>
  </structure>
  <varray name="forces" >
   <v>      -0.09646975      -0.11527470       0.04059842 </v>
   <v>       0.11149836      -0.03390683      -0.03551292 </v>
   <v>      -0.02714273      -0.10303467       0.02517333 </v>
   <v>      -0.02654323      -0.25922302      -0.03516378 </v>
   <v>       0.00325731       0.22036925       0.01653900 </v>
   <v>       0.05412545      -0.00863993       0.00206732 </v>
   <v>       0.37688607      -0.24821247       0.01539098 </v>
   <v>      -0.29602219       0.22212114      -0.00184999 </v>
   <v>      -0.09039312       0.20955083      -0.00721460 </v>
   <v>       0.08516259      -0.04378346      -0.10755692 </v>
   <v>       0.05265351      -0.08050598       0.02768737 </v>
   <v>      -0.08102294      -0.04102196       0.25500315 </v>
   <v>       0.01587204       0.04964122      -0.04203041 </v>
   <v>      -0.04097909      -0.01205892      -0.18344585 </v>
   <v>      -0.01222223      -0.05348246       0.08058616 </v>
   <v>       0.01334351      -0.07526348       0.01961597 </v>
   <v>      -0.04951524      -0.14675123      -0.08770622 </v>
   <v>       0.01711428       0.10894795       0.09272512 </v>
   <v>      -0.07302735       0.05590664      -0.05375714 </v>
   <v>      -0.06023361       0.01132404      -0.02691629 </v>
   <v>       0.00399682       0.02165709       0.05376850 </v>
   <v>       0.03877905      -0.00712609       0.03885911 </v>
   <v>       0.09135088      -0.01539506       0.07205900 </v>
   <v>      -0.02018919       0.10427279       0.03139090 </v>
   <v>       0.00362628       0.15391396      -0.24814171 </v>
   <v>       0.04373498       0.05292707      -0.08812911 </v>
   <v>      -0.03764047       0.03304829       0.14596059 </v>
  </varray>
  <varray name="stress" >
   <v>      -0.20574051       0.02701212       0.00221014 </v>
   <v>       0.02701219      -0.13224286      -0.08834922 </v>
   <v>       0.00221006      -0.08834911      -1.30485811 </v>
  </varray>
  <energy>
   <i name="e_fr_energy">   -191.37288816 </i>
   <i name="e_wo_entrp">   -191.27048808 </i>
   <i name="e_0_energy">     -0.20480017 </i>
  </energy>
  <time name="totalsc">  275.46  276.20</time>
 </calculation>
 <calculation>
  <scstep>
   <time name="dav">   21.58   21.63</time>
   <time name="total">   22.09   22.15</time>
   <energy>
    <i name="alphaZ">     90.19552204 </i>
    <i name="ewald">  44655.34613422 </i>
    <i name="hartreedc"> -50667.89727615 </i>
    <i name="XCdc">   -233.36589085 </i>
    <i name="pawpsdc">   4081.16116266 </i>
    <i name="pawaedc">  -3497.07491214 </i>
    <i name="eentropy">     -0.20644113 </i>
    <i name="bandstr">  -1381.01860156 </i>
    <i name="atom">   6761.44252427 </i>
    <i name="e_fr_energy">   -191.41777864 </i>
    <i name="e_wo_entrp">   -191.21133751 </i>
    <i name="e_0_energy">   -191.31455808 </i>
   </energy>
  </scstep>
  <scstep>
   <time name="dav">   31.59   31.66</time>
   <time name="total">   32.10   32.18</time>
   <energy>
    <i name="e_fr_energy">   -191.44867975 </i>
    <i name="e_wo_entrp">   -191.23868032 </i>
    <i name="e_0_energy">   -191.34368004 </i>
   </energy>
  </scstep>
  <scstep>
   <time name="dav">   30.01   30.08</time>
   <time name="total">   30.52   30.60</time>
   <energy>
    <i name="e_fr_energy">   -191.42611579 </i>
    <i name="e_wo_entrp">   -191.21996008 </i>
    <i name="e_0_energy">   -191.32303793 </i>
   </energy>
  </scstep>
  <scstep>
   <time name="dav">   27.60   27.66</time>
   <time name="total">   28.11   28.18</time>
   <energy>
    <i name="e_fr_energy">   -191.42436757 </i>
    <i name="e_wo_entrp">   -191.21745348 </i>
    <i name="e_0_energy">   -191.32091052 </i>
   </energy>
  </scstep>
  <scstep>
   <time name="dav">   26.99   27.06</time>
   <time name="total">   27.50   27.58</time>
   <energy>
    <i name="e_fr_energy">   -191.42316000 </i>
    <i name="e_wo_entrp">   -191.21593203 </i>
    <i name="e_0_energy">   -191.31954602 </i>
   </energy>
  </scstep>
  <scstep>
   <time name="dav">   26.10   26.16</time>
   <time name="total">   26.61   26.68</time>
   <energy>
    <i name="e_fr_energy">   -191.42269671 </i>
    <i name="e_wo_entrp">   -191.21542671 </i>
    <i name="e_0_energy">   -191.31906171 </i>
   </energy>
  </scstep>
  <scstep>
   <time name="dav">   28.05   28.12</time>
   <time name="total">   28.56   28.64</time>
   <energy>
    <i name="e_fr_energy">   -191.42292859 </i>
    <i name="e_wo_entrp">   -191.21581162 </i>
    <i name="e_0_energy">   -191.31937010 </i>
   </energy>
  </scstep>
  <scstep>
   <time name="dav">   24.09   24.15</time>
   <time name="total">   24.60   24.67</time>
   <energy>
    <i name="e_fr_energy">   -191.42231789 </i>
    <i name="e_wo_entrp">   -191.21505183 </i>
    <i name="e_0_energy">   -191.31868486 </i>
   </energy>
  </scstep>
  <scstep>
   <time name="dav">   16.57   16.61</time>
   <time name="total">   16.61   16.66</time>
   <energy>
    <i name="alphaZ">     90.19552204 </i>
    <i name="ewald">  44655.34613422 </i>
    <i name="hartreedc"> -50667.39734376 </i>
    <i name="XCdc">   -233.39140377 </i>
[...]
      <set comment="kpoint 31">
       <r>  -17.5243    1.0000 </r>
       <r>  -17.2934    1.0000 </r>
       <r>  -16.9338    1.0000 </r>
       <r>  -16.6917    1.0000 </r>
       <r>  -16.4928    1.0000 </r>
       <r>  -16.3957    1.0000 </r>
       <r>  -16.3238    1.0000 </r>
       <r>  -16.2074    1.0000 </r>
       <r>  -16.0730    1.0000 </r>
       <r>  -16.0185    1.0000 </r>
       <r>  -15.9181    1.0000 </r>
       <r>  -15.8693    1.0000 </r>
       <r>  -15.7778    1.0000 </r>
       <r>  -15.7038    1.0000 </r>
       <r>  -15.6227    1.0000 </r>
       <r>  -15.5654    1.0000 </r>
       <r>  -15.3871    1.0000 </r>
       <r>  -15.2622    1.0000 </r>
       <r>   -9.7821    1.0000 </r>
       <r>   -9.4662    1.0000 </r>
       <r>   -9.2699    1.0000 </r>
       <r>   -8.9968    1.0000 </r>
       <r>   -8.8851    1.0000 </r>
       <r>   -8.7327    1.0000 </r>
       <r>   -8.5441    1.0000 </r>
       <r>   -8.4853    1.0000 </r>
       <r>   -8.4058    1.0000 </r>
       <r>   -8.3308    1.0000 </r>
       <r>   -8.2901    1.0000 </r>
       <r>   -8.2620    1.0000 </r>
       <r>   -8.2108    1.0000 </r>
       <r>   -8.0936    1.0000 </r>
       <r>   -7.9454    1.0000 </r>
       <r>   -7.8533    1.0000 </r>
       <r>   -7.7748    1.0000 </r>
       <r>   -7.6771    1.0000 </r>
       <r>   -7.5973    1.0000 </r>
       <r>   -7.4165    1.0000 </r>
       <r>   -7.3582    1.0000 </r>
       <r>   -7.2836    1.0000 </r>
       <r>   -7.1712    1.0000 </r>
       <r>   -7.1186    1.0000 </r>
       <r>   -7.0783    1.0000 </r>
       <r>   -6.8795    1.0000 </r>
       <r>   -6.8136    1.0000 </r>
       <r>   -6.7184    1.0000 </r>
       <r>   -6.6706    1.0000 </r>
       <r>   -6.5897    1.0000 </r>
       <r>   -6.5299    1.0000 </r>
       <r>   -6.4703    1.0000 </r>
       <r>   -6.3910    1.0000 </r>
       <r>   -6.3512    1.0000 </r>
       <r>   -6.2912    1.0000 </r>
       <r>   -6.1982    1.0000 </r>
       <r>   -6.0972    1.0000 </r>
       <r>   -6.0661    1.0000 </r>
       <r>   -5.9913    1.0000 </r>
       <r>   -5.9065    1.0000 </r>
       <r>   -5.8587    1.0000 </r>
       <r>   -5.8061    1.0000 </r>
       <r>   -5.6752    1.0000 </r>
       <r>   -5.6276    1.0000 </r>
       <r>   -5.5282    1.0000 </r>
       <r>   -5.4333    1.0000 </r>
       <r>   -5.3280    1.0000 </r>
       <r>   -5.1618    1.0000 </r>
       <r>   -5.1025    1.0000 </r>
       <r>   -4.8359    1.0000 </r>
       <r>   -4.8107    1.0000 </r>
       <r>   -4.5985    1.0000 </r>
       <r>   -4.5360    1.0000 </r>
       <r>   -4.4646    1.0000 </r>
       <r>   -4.3356    1.0000 </r>
       <r>   -4.1922    1.0000 </r>
       <r>   -4.1366    1.0000 </r>
       <r>   -4.0644    1.0000 </r>
       <r>   -3.9579    1.0000 </r>
       <r>   -3.8143    0.9999 </r>
       <r>   -3.5221    0.9603 </r>
       <r>   -3.1191    0.1366 </r>
       <r>   -3.0170    0.0346 </r>
       <r>   -2.6797    0.0000 </r>
       <r>   -2.6563    0.0000 </r>
       <r>   -2.5307    0.0000 </r>
       <r>   -2.3849    0.0000 </r>
       <r>   -2.2335    0.0000 </r>
       <r>   -2.0407    0.0000 </r>
       <r>   -1.9451    0.0000 </r>
       <r>   -1.8728    0.0000 </r>
       <r>   -1.7941    0.0000 </r>
       <r>   -1.6969    0.0000 </r>
       <r>   -1.5725    0.0000 </r>
       <r>   -1.5506    0.0000 </r>
       <r>   -1.3871    0.0000 </r>
       <r>   -1.2899    0.0000 </r>
       <r>   -1.2523    0.0000 </r>
       <r>   -1.1053    0.0000 </r>
       <r>   -1.0656    0.0000 </r>
       <r>   -1.0154    0.0000 </r>
       <r>   -0.9479    0.0000 </r>
       <r>   -0.9126    0.0000 </r>
       <r>   -0.8097    0.0000 </r>
       <r>   -0.7824    0.0000 </r>
       <r>   -0.5979    0.0000 </r>
       <r>   -0.4280    0.0000 </r>
       <r>   -0.2901    0.0000 </r>
       <r>   -0.1286    0.0000 </r>
       <r>    0.0236    0.0000 </r>
       <r>    0.0998    0.0000 </r>
       <r>    0.3378    0.0000 </r>
       <r>    0.5016    0.0000 </r>
       <r>    0.6007    0.0000 </r>
       <r>    0.7629    0.0000 </r>
       <r>    0.9371    0.0000 </r>
       <r>    1.0383    0.0000 </r>
       <r>    1.1226    0.0000 </r>
       <r>    1.2463    0.0000 </r>
       <r>    2.1256    0.0000 </r>
       <r>    2.3079    0.0000 </r>
       <r>    2.3963    0.0000 </r>
      </set>
      <set comment="kpoint 32">
       <r>  -17.5370    1.0000 </r>
       <r>  -17.2037    1.0000 </r>
       <r>  -17.0648    1.0000 </r>
       <r>  -16.6732    1.0000 </r>
       <r>  -16.4696    1.0000 </r>
       <r>  -16.3317    1.0000 </r>
       <r>  -16.3174    1.0000 </r>
       <r>  -16.2307    1.0000 </r>
       <r>  -16.1013    1.0000 </r>
       <r>  -16.0235    1.0000 </r>
       <r>  -15.9397    1.0000 </r>
       <r>  -15.8780    1.0000 </r>
       <r>  -15.7808    1.0000 </r>
       <r>  -15.7033    1.0000 </r>
       <r>  -15.6011    1.0000 </r>
       <r>  -15.5168    1.0000 </r>
       <r>  -15.4267    1.0000 </r>
       <r>  -15.2605    1.0000 </r>
       <r>   -9.7305    1.0000 </r>
       <r>   -9.5381    1.0000 </r>
       <r>   -9.3824    1.0000 </r>
       <r>   -8.9060    1.0000 </r>
       <r>   -8.7750    1.0000 </r>
       <r>   -8.6077    1.0000 </r>
       <r>   -8.5366    1.0000 </r>
       <r>   -8.4551    1.0000 </r>
       <r>   -8.4318    1.0000 </r>
       <r>   -8.3905    1.0000 </r>
       <r>   -8.3384    1.0000 </r>
       <r>   -8.2959    1.0000 </r>
       <r>   -8.1921    1.0000 </r>
       <r>   -8.0961    1.0000 </r>
       <r>   -7.9598    1.0000 </r>
       <r>   -7.9074    1.0000 </r>
       <r>   -7.8039    1.0000 </r>
       <r>   -7.7201    1.0000 </r>
       <r>   -7.5152    1.0000 </r>
       <r>   -7.4917    1.0000 </r>
       <r>   -7.3670    1.0000 </r>
       <r>   -7.3044    1.0000 </r>
       <r>   -7.1721    1.0000 </r>
       <r>   -7.1414    1.0000 </r>
       <r>   -7.0509    1.0000 </r>
       <r>   -7.0263    1.0000 </r>
       <r>   -6.8126    1.0000 </r>
       <r>   -6.7681    1.0000 </r>
       <r>   -6.6278    1.0000 </r>
       <r>   -6.5649    1.0000 </r>
       <r>   -6.5017    1.0000 </r>
       <r>   -6.4346    1.0000 </r>
       <r>   -6.3782    1.0000 </r>
       <r>   -6.3500    1.0000 </r>
       <r>   -6.2475    1.0000 </r>
       <r>   -6.1850    1.0000 </r>
       <r>   -6.1293    1.0000 </r>
       <r>   -6.0050    1.0000 </r>
       <r>   -5.9649    1.0000 </r>
       <r>   -5.8927    1.0000 </r>
       <r>   -5.8474    1.0000 </r>
       <r>   -5.7070    1.0000 </r>
       <r>   -5.6361    1.0000 </r>
       <r>   -5.5566    1.0000 </r>
       <r>   -5.5256    1.0000 </r>
       <r>   -5.4460    1.0000 </r>
       <r>   -5.3701    1.0000 </r>
       <r>   -5.2436    1.0000 </r>
       <r>   -5.1658    1.0000 </r>
       <r>   -4.8824    1.0000 </r>
       <r>   -4.6973    1.0000 </r>
       <r>   -4.6690    1.0000 </r>
       <r>   -4.5368    1.0000 </r>
       <r>   -4.4410    1.0000 </r>
       <r>   -4.3774    1.0000 </r>
       <r>   -4.2272    1.0000 </r>
       <r>   -4.1415    1.0000 </r>
       <r>   -3.9991    1.0000 </r>
       <r>   -3.9011    1.0000 </r>
       <r>   -3.7627    0.9997 </r>
       <r>   -3.5228    0.9607 </r>
       <r>   -3.2203    0.3520 </r>
       <r>   -2.9308    0.0076 </r>
       <r>   -2.7420    0.0001 </r>
       <r>   -2.7029    0.0000 </r>
       <r>   -2.5600    0.0000 </r>
       <r>   -2.3833    0.0000 </r>
       <r>   -2.2789    0.0000 </r>
       <r>   -2.0709    0.0000 </r>
       <r>   -1.9876    0.0000 </r>
       <r>   -1.8647    0.0000 </r>
       <r>   -1.8168    0.0000 </r>
       <r>   -1.7234    0.0000 </r>
       <r>   -1.5907    0.0000 </r>
       <r>   -1.5055    0.0000 </r>
       <r>   -1.3639    0.0000 </r>
       <r>   -1.2611    0.0000 </r>
       <r>   -1.2038    0.0000 </r>
       <r>   -1.0587    0.0000 </r>
       <r>   -1.0438    0.0000 </r>
       <r>   -0.9681    0.0000 </r>
       <r>   -0.9238    0.0000 </r>
       <r>   -0.8977    0.0000 </r>
       <r>   -0.8062    0.0000 </r>
       <r>   -0.7364    0.0000 </r>
       <r>   -0.6119    0.0000 </r>
       <r>   -0.4790    0.0000 </r>
       <r>   -0.3200    0.0000 </r>
       <r>   -0.1882    0.0000 </r>
       <r>   -0.0880    0.0000 </r>
       <r>    0.1070    0.0000 </r>
       <r>    0.2999    0.0000 </r>
       <r>    0.4494    0.0000 </r>
       <r>    0.5479    0.0000 </r>
       <r>    0.8030    0.0000 </r>
       <r>    0.9381    0.0000 </r>
       <r>    1.0399    0.0000 </r>
       <r>    1.2220    0.0000 </r>
       <r>    1.3670    0.0000 </r>
       <r>    2.1052    0.0000 </r>
       <r>    2.2727    0.0000 </r>
       <r>    2.5780    0.0000 </r>
      </set>
      <set comment="kpoint 33">
       <r>  -17.5141    1.0000 </r>
       <r>  -17.2974    1.0000 </r>
       <r>  -16.9411    1.0000 </r>
       <r>  -16.6550    1.0000 </r>
       <r>  -16.5353    1.0000 </r>
       <r>  -16.4621    1.0000 </r>
       <r>  -16.2892    1.0000 </r>
       <r>  -16.1733    1.0000 </r>
       <r>  -16.0915    1.0000 </r>
       <r>  -16.0349    1.0000 </r>
       <r>  -15.9121    1.0000 </r>
       <r>  -15.8480    1.0000 </r>
       <r>  -15.7759    1.0000 </r>
       <r>  -15.7107    1.0000 </r>
       <r>  -15.5891    1.0000 </r>
       <r>  -15.5022    1.0000 </r>
       <r>  -15.4387    1.0000 </r>
       <r>  -15.2893    1.0000 </r>
       <r>   -9.7667    1.0000 </r>
       <r>   -9.4602    1.0000 </r>
       <r>   -9.3301    1.0000 </r>
       <r>   -8.8906    1.0000 </r>
       <r>   -8.8135    1.0000 </r>
       <r>   -8.7350    1.0000 </r>
       <r>   -8.6015    1.0000 </r>
       <r>   -8.5391    1.0000 </r>
       <r>   -8.4448    1.0000 </r>
       <r>   -8.3717    1.0000 </r>
       <r>   -8.3137    1.0000 </r>
       <r>   -8.1820    1.0000 </r>
       <r>   -8.1312    1.0000 </r>
       <r>   -8.0722    1.0000 </r>
       <r>   -7.9594    1.0000 </r>
       <r>   -7.8820    1.0000 </r>
       <r>   -7.7958    1.0000 </r>
       <r>   -7.7422    1.0000 </r>
       <r>   -7.6185    1.0000 </r>
       <r>   -7.4477    1.0000 </r>
       <r>   -7.3515    1.0000 </r>
       <r>   -7.3054    1.0000 </r>
       <r>   -7.1957    1.0000 </r>
       <r>   -7.1463    1.0000 </r>
       <r>   -7.0323    1.0000 </r>
       <r>   -6.9870    1.0000 </r>
       <r>   -6.8392    1.0000 </r>
       <r>   -6.7330    1.0000 </r>
       <r>   -6.6904    1.0000 </r>
       <r>   -6.5873    1.0000 </r>
       <r>   -6.4933    1.0000 </r>
       <r>   -6.4429    1.0000 </r>
       <r>   -6.3654    1.0000 </r>
       <r>   -6.3427    1.0000 </r>
       <r>   -6.2621    1.0000 </r>
       <r>   -6.1649    1.0000 </r>
       <r>   -6.0961    1.0000 </r>
       <r>   -6.0407    1.0000 </r>
       <r>   -6.0047    1.0000 </r>
       <r>   -5.9276    1.0000 </r>
       <r>   -5.8783    1.0000 </r>
       <r>   -5.7200    1.0000 </r>
       <r>   -5.6146    1.0000 </r>
       <r>   -5.5545    1.0000 </r>
       <r>   -5.4867    1.0000 </r>
       <r>   -5.4036    1.0000 </r>
       <r>   -5.3215    1.0000 </r>
       <r>   -5.2707    1.0000 </r>
       <r>   -4.9885    1.0000 </r>
       <r>   -4.9076    1.0000 </r>
       <r>   -4.7961    1.0000 </r>
       <r>   -4.6865    1.0000 </r>
       <r>   -4.5594    1.0000 </r>
       <r>   -4.4868    1.0000 </r>
       <r>   -4.3113    1.0000 </r>
       <r>   -4.1871    1.0000 </r>
       <r>   -4.1250    1.0000 </r>
       <r>   -3.9349    1.0000 </r>
       <r>   -3.8407    1.0000 </r>
       <r>   -3.7446    0.9996 </r>
       <r>   -3.5936    0.9881 </r>
       <r>   -3.2876    0.5380 </r>
       <r>   -2.8944    0.0036 </r>
       <r>   -2.7994    0.0004 </r>
       <r>   -2.7580    0.0001 </r>
       <r>   -2.5919    0.0000 </r>
       <r>   -2.3790    0.0000 </r>
       <r>   -2.3008    0.0000 </r>
       <r>   -2.1139    0.0000 </r>
       <r>   -2.0325    0.0000 </r>
       <r>   -1.8572    0.0000 </r>
       <r>   -1.8068    0.0000 </r>
       <r>   -1.7414    0.0000 </r>
       <r>   -1.5955    0.0000 </r>
       <r>   -1.4517    0.0000 </r>
       <r>   -1.3474    0.0000 </r>
       <r>   -1.2156    0.0000 </r>
       <r>   -1.1574    0.0000 </r>
       <r>   -1.0581    0.0000 </r>
       <r>   -1.0117    0.0000 </r>
       <r>   -0.9489    0.0000 </r>
       <r>   -0.9068    0.0000 </r>
       <r>   -0.8509    0.0000 </r>
       <r>   -0.7889    0.0000 </r>
       <r>   -0.7067    0.0000 </r>
       <r>   -0.6336    0.0000 </r>
       <r>   -0.5284    0.0000 </r>
       <r>   -0.3972    0.0000 </r>
       <r>   -0.2906    0.0000 </r>
       <r>   -0.1378    0.0000 </r>
       <r>    0.1018    0.0000 </r>
       <r>    0.2567    0.0000 </r>
       <r>    0.3400    0.0000 </r>
       <r>    0.5841    0.0000 </r>
       <r>    0.8429    0.0000 </r>
       <r>    0.9422    0.0000 </r>
       <r>    1.0601    0.0000 </r>
       <r>    1.3255    0.0000 </r>
       <r>    1.5356    0.0000 </r>
       <r>    2.1440    0.0000 </r>
       <r>    2.3006    0.0000 </r>
       <r>    2.4086    0.0000 </r>
      </set>
      <set comment="kpoint 34">
       <r>  -17.4808    1.0000 </r>
       <r>  -17.3697    1.0000 </r>
       <r>  -16.7883    1.0000 </r>
       <r>  -16.6937    1.0000 </r>
       <r>  -16.6145    1.0000 </r>
       <r>  -16.5182    1.0000 </r>
       <r>  -16.2739    1.0000 </r>
       <r>  -16.1595    1.0000 </r>
       <r>  -16.0839    1.0000 </r>
       <r>  -16.0448    1.0000 </r>
       <r>  -15.8636    1.0000 </r>
       <r>  -15.8486    1.0000 </r>
       <r>  -15.7662    1.0000 </r>
       <r>  -15.7195    1.0000 </r>
       <r>  -15.5754    1.0000 </r>
       <r>  -15.5184    1.0000 </r>
       <r>  -15.4275    1.0000 </r>
       <r>  -15.3135    1.0000 </r>
       <r>   -9.7968    1.0000 </r>
       <r>   -9.3691    1.0000 </r>
       <r>   -9.2525    1.0000 </r>
       <r>   -8.9591    1.0000 </r>
       <r>   -8.9032    1.0000 </r>
       <r>   -8.7705    1.0000 </r>
       <r>   -8.6708    1.0000 </r>
       <r>   -8.5700    1.0000 </r>
       <r>   -8.4478    1.0000 </r>
       <r>   -8.3458    1.0000 </r>
       <r>   -8.2780    1.0000 </r>
       <r>   -8.1824    1.0000 </r>
       <r>   -8.1016    1.0000 </r>
       <r>   -8.0300    1.0000 </r>
       <r>   -7.8807    1.0000 </r>
       <r>   -7.8688    1.0000 </r>
       <r>   -7.8198    1.0000 </r>
       <r>   -7.6902    1.0000 </r>
       <r>   -7.6187    1.0000 </r>
       <r>   -7.5579    1.0000 </r>
       <r>   -7.4136    1.0000 </r>
       <r>   -7.3041    1.0000 </r>
       <r>   -7.1816    1.0000 </r>
       <r>   -7.0941    1.0000 </r>
       <r>   -7.0143    1.0000 </r>
       <r>   -6.9114    1.0000 </r>
       <r>   -6.8683    1.0000 </r>
       <r>   -6.7330    1.0000 </r>
       <r>   -6.5987    1.0000 </r>
       <r>   -6.5632    1.0000 </r>
       <r>   -6.5405    1.0000 </r>
       <r>   -6.4573    1.0000 </r>
       <r>   -6.4201    1.0000 </r>
       <r>   -6.3578    1.0000 </r>
       <r>   -6.3007    1.0000 </r>
       <r>   -6.2328    1.0000 </r>
       <r>   -6.1094    1.0000 </r>
       <r>   -6.0826    1.0000 </r>
       <r>   -6.0512    1.0000 </r>
       <r>   -5.8558    1.0000 </r>
       <r>   -5.8398    1.0000 </r>
       <r>   -5.7293    1.0000 </r>
       <r>   -5.6716    1.0000 </r>
       <r>   -5.5232    1.0000 </r>
       <r>   -5.4881    1.0000 </r>
       <r>   -5.4113    1.0000 </r>
       <r>   -5.2666    1.0000 </r>
       <r>   -5.1267    1.0000 </r>
       <r>   -5.0209    1.0000 </r>
       <r>   -4.9893    1.0000 </r>
       <r>   -4.8019    1.0000 </r>
       <r>   -4.6316    1.0000 </r>
       <r>   -4.5821    1.0000 </r>
       <r>   -4.4785    1.0000 </r>
       <r>   -4.2905    1.0000 </r>
       <r>   -4.1887    1.0000 </r>
       <r>   -4.1078    1.0000 </r>
       <r>   -3.9087    1.0000 </r>
       <r>   -3.8265    1.0000 </r>
       <r>   -3.7242    0.9993 </r>
       <r>   -3.6465    0.9958 </r>
       <r>   -3.3103    0.6010 </r>
       <r>   -2.8892    0.0033 </r>
       <r>   -2.8406    0.0011 </r>
       <r>   -2.7665    0.0002 </r>
       <r>   -2.6046    0.0000 </r>
       <r>   -2.3751    0.0000 </r>
       <r>   -2.3040    0.0000 </r>
       <r>   -2.1414    0.0000 </r>
       <r>   -2.0455    0.0000 </r>
       <r>   -1.8658    0.0000 </r>
       <r>   -1.7774    0.0000 </r>
       <r>   -1.7503    0.0000 </r>
       <r>   -1.5960    0.0000 </r>
       <r>   -1.4300    0.0000 </r>
       <r>   -1.3342    0.0000 </r>
       <r>   -1.1875    0.0000 </r>
       <r>   -1.1465    0.0000 </r>
       <r>   -1.0732    0.0000 </r>
       <r>   -1.0090    0.0000 </r>
       <r>   -0.9359    0.0000 </r>
       <r>   -0.9100    0.0000 </r>
       <r>   -0.8197    0.0000 </r>
       <r>   -0.7320    0.0000 </r>
       <r>   -0.7096    0.0000 </r>
       <r>   -0.6595    0.0000 </r>
       <r>   -0.5757    0.0000 </r>
       <r>   -0.4506    0.0000 </r>
       <r>   -0.3007    0.0000 </r>
       <r>   -0.1609    0.0000 </r>
       <r>    0.0870    0.0000 </r>
       <r>    0.2505    0.0000 </r>
       <r>    0.2874    0.0000 </r>
       <r>    0.6057    0.0000 </r>
       <r>    0.8571    0.0000 </r>
       <r>    0.9563    0.0000 </r>
       <r>    1.0721    0.0000 </r>
       <r>    1.3709    0.0000 </r>
       <r>    1.6144    0.0000 </r>
       <r>    2.2348    0.0000 </r>
       <r>    2.2556    0.0000 </r>
       <r>    2.3769    0.0000 </r>
      </set>
     </set>
    </set>
   </array>
  </eigenvalues>
  <separator name="orbital magnetization" >
   <v name="MAGDIPOLOUT">      0.00000000      0.00000000      0.00000000</v>
  </separator>
 </calculation>
 <structure name="finalpos" >
  <crystal>
   <varray name="basis" >
    <v>       8.31891204       4.80429901       0.00000000 </v>
    <v>      -8.33123638       4.82564951       0.00000000 </v>
    <v>       0.00000000       0.00000000      30.00000000 </v>
   </varray>
   <i name="volume">   2405.09713476 </i>
   <varray name="rec_basis" >
    <v>       0.06019278       0.10391975       0.00000000 </v>
    <v>      -0.05992647       0.10376602       0.00000000 </v>
    <v>       0.00000000       0.00000000       0.03333333 </v>
   </varray>
  </crystal>
  <varray name="positions" >
   <v>       0.64053349       0.29454543      -0.00152711 </v>
   <v>       0.67882923      -0.00501185      -0.00049088 </v>
   <v>       0.31564764       0.29631484      -0.00148164 </v>
   <v>       0.31293717      -0.00554623      -0.00028822 </v>
   <v>       0.68732066       0.70502247       0.00216301 </v>
   <v>       0.00173992      -0.00501067      -0.00034128 </v>
   <v>       0.98506672       0.29587747      -0.00134425 </v>
   <v>       0.00533223       0.70206193       0.00098932 </v>
   <v>       0.36742771       0.70760675       0.00206166 </v>
   <v>       0.11598793       0.22179873       0.94505835 </v>
   <v>       0.22127447       0.11220263       0.05410727 </v>
   <v>       0.11452271       0.55836218       0.95786780 </v>
   <v>       0.22693173       0.44339154       0.04428803 </v>
   <v>       0.10853021       0.89111918       0.94289221 </v>
   <v>       0.21996945       0.77658669       0.05463395 </v>
   <v>       0.44055385       0.22107048       0.94628952 </v>
   <v>       0.55256982       0.10391775       0.04945004 </v>
   <v>       0.44445242       0.55341214       0.95625304 </v>
   <v>       0.55271841       0.44072969       0.04282106 </v>
   <v>       0.45609937       0.90249965       0.94805033 </v>
   <v>       0.56591899       0.79222299       0.05705063 </v>
   <v>       0.77185140       0.21636364       0.94715879 </v>
   <v>       0.88219302       0.10253898       0.05403087 </v>
   <v>       0.77401932       0.55269774       0.95456631 </v>
   <v>       0.88251166       0.44193032       0.04269012 </v>
   <v>       0.78103351       0.89876665       0.94535971 </v>
   <v>       0.89224142       0.78274332       0.05769127 </v>
  </varray>
 </structure>
</modeling>
