unknown system                          
           1
     8.854336    5.104553    0.000000
    -8.855483    5.106526    0.000000
     0.000000    0.000000   30.000000
   V    Mo   W    S 
   3   3   3  18
Direct configuration=     1
   0.66666669  0.33333334  0.00000000
   0.66666669  0.00000000  0.00000000
   0.33333334  0.33333334  0.00000000
   0.33333334  0.00000000  0.00000000
   0.66666669  0.66666669  0.00000000
   0.00000000  0.00000000  0.00000000
   1.00000000  0.33333334  0.00000000
   0.00000000  0.66666669  0.00000000
   0.33333334  0.66666669  0.00000000
   0.11068511  0.22244981  0.95539999
   0.22244981  0.11068511  0.04460000
   0.11068511  0.55578315  0.95539999
   0.22244981  0.44401845  0.04460000
   0.11068511  0.88911647  0.95539999
   0.22244981  0.77735180  0.04460000
   0.44401845  0.22244981  0.95539999
   0.55578315  0.11068511  0.04460000
   0.44401845  0.55578315  0.95539999
   0.55578315  0.44401845  0.04460000
   0.44401845  0.88911647  0.95539999
   0.55578315  0.77735180  0.04460000
   0.77735180  0.22244981  0.95539999
   0.88911647  0.11068511  0.04460000
   0.77735180  0.55578315  0.95539999
   0.88911647  0.44401845  0.04460000
   0.77735180  0.88911647  0.95539999
   0.88911647  0.77735180  0.04460000
unknown system                          
           1
     8.666310    4.998424    0.000000
    -8.667345    5.000204    0.000000
     0.000000    0.000000   30.000000
   V    Mo   W    S 
   3   3   3  18
Direct configuration=     2
   0.66507931  0.33295177  0.00006405
   0.66668170 -0.00074693 -0.00012949
   0.33373067  0.33217032  0.00015389
   0.33222963  0.00029247  0.00010983
   0.66795940  0.66788384 -0.00003101
   0.00004166 -0.00138629 -0.00018547
   0.99965423  0.33141705 -0.00006419
  -0.00035651  0.66967320 -0.00001945
   0.33514287  0.66817208  0.00012016
   0.11495467  0.22472599  0.95194111
   0.22447217  0.11562355  0.04807007
   0.11093513  0.55539890  0.95079397
   0.22421041  0.44233806  0.04806656
   0.11045562  0.88780233  0.95064974
   0.22160810  0.77664704  0.04927850
   0.44632608  0.22653141  0.95308677
   0.55982988  0.11298403  0.04683497
   0.44170456  0.55137817  0.95199080
   0.55336065  0.43982638  0.04689652
   0.44850245  0.89015106  0.95190482
   0.55660296  0.78159705  0.04808615
   0.77417059  0.22049753  0.95309078
   0.88475318  0.10980243  0.04802945
   0.77649586  0.55143198  0.95194490
   0.88520925  0.44265728  0.04801761
   0.77526548  0.89129306  0.95197492
   0.88919446  0.77710071  0.04932395
unknown system                          
           1
     8.484766    4.898890    0.000000
    -8.485696    4.900492    0.000000
     0.000000    0.000000   30.000000
   V    Mo   W    S 
   3   3   3  18
Direct configuration=     3
   0.66471419  0.33286458  0.00012251
   0.66665605 -0.00101529 -0.00014338
   0.33372815  0.33188380  0.00017736
   0.33134215 -0.00023363  0.00016165
   0.66862791  0.66847151 -0.00008077
   0.00004449 -0.00218791 -0.00020479
   0.99974497  0.33102899 -0.00006382
  -0.00023485  0.67092876 -0.00002227
   0.33547434  0.66855312  0.00007842
   0.11494144  0.22490888  0.95195094
   0.22455734  0.11577954  0.04812123
   0.11090634  0.55542567  0.95093997
   0.22414741  0.44240369  0.04802121
   0.11032931  0.88759705  0.95048765
   0.22147169  0.77636379  0.04929839
   0.44639092  0.22660147  0.95308919
   0.55989654  0.11305483  0.04674893
   0.44151227  0.55138545  0.95207507
   0.55329527  0.43974264  0.04687005
   0.44852742  0.89003127  0.95191963
   0.55646155  0.78162498  0.04812025
   0.77432679  0.22052560  0.95314873
   0.88476587  0.10996877  0.04799687
   0.77664977  0.55142771  0.95195997
   0.88538736  0.44271311  0.04787081
   0.77521667  0.89136717  0.95189773
   0.88933308  0.77699891  0.04945837
unknown system                          
           1
     8.276198    4.777080    0.000000
    -8.281487    4.786230    0.000000
     0.000000    0.000000   30.000000
   V    Mo   W    S 
   3   3   3  18
Direct configuration=     4
   0.66380359  0.33274635  0.00030806
   0.66651013 -0.00234293 -0.00013238
   0.33324810  0.33112121  0.00020055
   0.32724071 -0.00320758  0.00028403
   0.67137632  0.67103806 -0.00023008
  -0.00001793 -0.00565665 -0.00019118
   1.00051662  0.32998904 -0.00002416
   0.00065930  0.67592710 -0.00002429
   0.33623536  0.66969709 -0.00011440
   0.11609122  0.22534438  0.95051675
   0.22504004  0.11704292  0.04975054
   0.11074357  0.55561311  0.94993751
   0.22479731  0.44204432  0.04933914
   0.11035523  0.88777822  0.94817138
   0.22125793  0.77593357  0.05102144
   0.44690831  0.22746426  0.95180530
   0.56081130  0.11355495  0.04770350
   0.44095380  0.55029096  0.95097509
   0.55276526  0.43894882  0.04806188
   0.44974573  0.89090683  0.95052195
   0.55723054  0.78291960  0.04971890
   0.77324615  0.21982747  0.95200985
   0.88371516  0.10924162  0.04931584
   0.77609312  0.55028337  0.95056867
   0.88474838  0.44242409  0.04872750
   0.77477440  0.89214071  0.95015001
   0.88936481  0.77714357  0.05162853
unknown system                          
           1
     8.273887    4.775827    0.000000
    -8.284605    4.794382    0.000000
     0.000000    0.000000   30.000000
   V    Mo   W    S 
   3   3   3  18
Direct configuration=     5
   0.66232058  0.33239280  0.00051615
   0.66623287 -0.00466882  0.00000900
   0.33187837  0.33005505  0.00007783
   0.31896850 -0.00933149  0.00033752
   0.67677729  0.67584875 -0.00039216
   0.00016395 -0.01234399 -0.00007997
   1.00179005  0.32721549  0.00005496
   0.00254320  0.68580549 -0.00003581
   0.33762299  0.67194561 -0.00039939
   0.11716634  0.22472152  0.94865193
   0.22495088  0.11754175  0.05200205
   0.11011703  0.55622278  0.94896469
   0.22610925  0.44189875  0.05109821
   0.11049635  0.88854289  0.94466204
   0.22066387  0.77552324  0.05343172
   0.44691426  0.22747403  0.95018860
   0.56054110  0.11338535  0.04891168
   0.44139782  0.54951268  0.94968235
   0.55255946  0.43902641  0.04971016
   0.45087625  0.89251885  0.94867945
   0.55839615  0.78431297  0.05177668
   0.77200980  0.21898479  0.95048040
   0.88301786  0.10790849  0.05095341
   0.77588797  0.54970890  0.94882382
   0.88455060  0.44313798  0.04950963
   0.77508825  0.89317923  0.94760828
   0.88917339  0.77769494  0.05477667
unknown system                          
           1
     8.267162    4.773281    0.000000
    -8.277433    4.791068    0.000000
     0.000000    0.000000   30.000000
   V    Mo   W    S 
   3   3   3  18
Direct configuration=     6
   0.66162284  0.33206444  0.00056820
   0.66627281 -0.00522642 -0.00005482
   0.33128171  0.32983637  0.00008825
   0.31778092 -0.01036230  0.00025664
   0.67769760  0.67690161 -0.00036120
   0.00035315 -0.01235227 -0.00014712
   1.00180921  0.32530348  0.00006029
   0.00276001  0.68702729  0.00003505
   0.33827743  0.67303535 -0.00038629
   0.11689418  0.22380196  0.94855056
   0.22440947  0.11655159  0.05210337
   0.10950654  0.55658273  0.94932054
   0.22654965  0.44220405  0.05108884
   0.11043707  0.88889395  0.94412586
   0.22008665  0.77515826  0.05363456
   0.44635894  0.22672208  0.95020775
   0.55913221  0.11246478  0.04881792
   0.44237798  0.55023757  0.94978417
   0.55274203  0.43974643  0.04966809
   0.45056018  0.89285529  0.94864158
   0.55851920  0.78422412  0.05186891
   0.77211991  0.21886364  0.95051552
   0.88350476  0.10740870  0.05102740
   0.77667406  0.55064408  0.94882637
   0.88558972  0.44443305  0.04911421
   0.77584051  0.89338476  0.94743628
   0.88905568  0.77780987  0.05520896
unknown system                          
           1
     8.271265    4.775890    0.000000
    -8.282095    4.794646    0.000000
     0.000000    0.000000   30.000000
   V    Mo   W    S 
   3   3   3  18
Direct configuration=     7
   0.66069143  0.33174151  0.00064081
   0.66642591 -0.00579759 -0.00011237
   0.33062310  0.32935954  0.00012754
   0.31616283 -0.01177396  0.00019746
   0.67897918  0.67815603 -0.00033639
   0.00047878 -0.01269191 -0.00014359
   1.00168241  0.32279577  0.00008741
   0.00306730  0.68928316  0.00003419
   0.33913371  0.67445935 -0.00040366
   0.11694186  0.22328378  0.94832620
   0.22413518  0.11596571  0.05220429
   0.10902214  0.55663610  0.94972311
   0.22689620  0.44241571  0.05106196
   0.11025566  0.88898316  0.94372896
   0.21974580  0.77490110  0.05382960
   0.44599640  0.22627697  0.95020162
   0.55818480  0.11182717  0.04870128
   0.44302804  0.55074789  0.94990667
   0.55281136  0.44027031  0.04961765
   0.45045804  0.89314053  0.94855217
   0.55867543  0.78435518  0.05200886
   0.77216953  0.21868712  0.95054337
   0.88369272  0.10701032  0.05118802
   0.77716605  0.55125135  0.94883568
   0.88641543  0.44526542  0.04871705
   0.77627063  0.89355727  0.94722821
   0.88910455  0.77810747  0.05553378
unknown system                          
           1
     8.272201    4.776707    0.000000
    -8.283955    4.797063    0.000000
     0.000000    0.000000   30.000000
   V    Mo   W    S 
   3   3   3  18
Direct configuration=     8
   0.66033722  0.33163526  0.00066957
   0.66652811 -0.00589515 -0.00013656
   0.33042198  0.32913661  0.00013607
   0.31594763 -0.01201749  0.00017899
   0.67923992  0.67843864 -0.00033427
   0.00051474 -0.01247253 -0.00015821
   1.00151079  0.32182563  0.00009185
   0.00306753  0.68967455  0.00005089
   0.33949275  0.67500137 -0.00040607
   0.11700481  0.22321384  0.94827652
   0.22410299  0.11583123  0.05218701
   0.10888466  0.55657122  0.94990876
   0.22692810  0.44245837  0.05099518
   0.11020281  0.88903076  0.94368606
   0.21964913  0.77481715  0.05382681
   0.44592296  0.22619779  0.95023385
   0.55796754  0.11166835  0.04862283
   0.44317140  0.55089813  0.94999613
   0.55281489  0.44040507  0.04956080
   0.45045307  0.89322307  0.94855647
   0.55869671  0.78438937  0.05201122
   0.77221848  0.21865134  0.95059180
   0.88367702  0.10688407  0.05123741
   0.77729520  0.55141371  0.94888418
   0.88666972  0.44544051  0.04854404
   0.77635763  0.89358842  0.94722394
   0.88913664  0.77820516  0.05556464
unknown system                          
           1
     8.272968    4.777715    0.000000
    -8.285571    4.799545    0.000000
     0.000000    0.000000   30.000000
   V    Mo   W    S 
   3   3   3  18
Direct configuration=     9
   0.65999952  0.33150474  0.00069827
   0.66657485 -0.00607721 -0.00015851
   0.33017654  0.32900079  0.00013547
   0.31541464 -0.01246486  0.00016040
   0.67965086  0.67886096 -0.00033395
   0.00060175 -0.01251920 -0.00017401
   1.00154805  0.32102343  0.00009807
   0.00317439  0.69033094  0.00007576
   0.33973993  0.67541767 -0.00041714
   0.11706251  0.22305685  0.94818006
   0.22402121  0.11566006  0.05225924
   0.10871286  0.55660202  0.95000965
   0.22706409  0.44250723  0.05102508
   0.11017137  0.88912869  0.94348065
   0.21950391  0.77471004  0.05393124
   0.44579905  0.22606558  0.95020858
   0.55764062  0.11144386  0.04860750
   0.44337446  0.55102958  0.95001515
   0.55280844  0.44054600  0.04957519
   0.45043635  0.89334815  0.94849441
   0.55875413  0.78444475  0.05209634
   0.77221916  0.21858770  0.95057365
   0.88372109  0.10672650  0.05132445
   0.77745347  0.55159328  0.94884703
   0.88693854  0.44572235  0.04843150
   0.77651065  0.89367571  0.94711769
   0.88914201  0.77828886  0.05573813
unknown system                          
           1
     8.267408    4.774375    0.000000
    -8.279258    4.794899    0.000000
     0.000000    0.000000   30.000000
   V    Mo   W    S 
   3   3   3  18
Direct configuration=    10
   0.65899816  0.33126978  0.00078031
   0.66687902 -0.00635612 -0.00021019
   0.32962930  0.32826283  0.00016550
   0.31474390 -0.01316679  0.00011642
   0.68043225  0.67964391 -0.00033172
   0.00066949 -0.01209132 -0.00019189
   1.00100000  0.31836744  0.00011510
   0.00317034  0.69157177  0.00009261
   0.34081180  0.67699103 -0.00042567
   0.11728568  0.22293612  0.94799576
   0.22398697  0.11539610  0.05225082
   0.10837628  0.55637506  0.95049680
   0.22710274  0.44258558  0.05085646
   0.11002217  0.88921321  0.94335941
   0.21929764  0.77452338  0.05394896
   0.44567710  0.22593478  0.95024784
   0.55721295  0.11112809  0.04842843
   0.44369438  0.55136966  0.95022880
   0.55281630  0.44087919  0.04945746
   0.45048699  0.89359274  0.94846780
   0.55883868  0.78457707  0.05213047
   0.77232881  0.21849219  0.95067132
   0.88358976  0.10637235  0.05150069
   0.77773508  0.55195609  0.94895883
   0.88752643  0.44607257  0.04798962
   0.77667168  0.89373393  0.94706554
   0.88923052  0.77858382  0.05583441
unknown system                          
           1
     8.277412    4.780556    0.000000
    -8.290739    4.803641    0.000000
     0.000000    0.000000   30.000000
   V    Mo   W    S 
   3   3   3  18
Direct configuration=    11
   0.65966446  0.33140996  0.00072334
   0.66658729 -0.00619147 -0.00018115
   0.33004291  0.32903233  0.00014849
   0.31500092 -0.01284282  0.00015135
   0.67995322  0.67908488 -0.00033151
   0.00065256 -0.01254673 -0.00016939
   1.00166754  0.32033270  0.00011596
   0.00322291  0.69092434  0.00007619
   0.33985051  0.67563232 -0.00042704
   0.11709787  0.22297475  0.94815145
   0.22394733  0.11549427  0.05223636
   0.10856554  0.55661718  0.95015734
   0.22716841  0.44255337  0.05099741
   0.11009048  0.88911899  0.94342416
   0.21940445  0.77462670  0.05393393
   0.44570088  0.22596699  0.95026268
   0.55734367  0.11126304  0.04853527
   0.44356317  0.55119531  0.95008638
   0.55282793  0.44066255  0.04950946
   0.45033480  0.89333354  0.94851759
   0.55875324  0.78445192  0.05208591
   0.77229758  0.21857567  0.95062951
   0.88384067  0.10671441  0.05132395
   0.77762448  0.55181301  0.94890462
   0.88720586  0.44596245  0.04826809
   0.77663023  0.89369075  0.94710277
   0.88917554  0.77836403  0.05576677
unknown system                          
           1
     8.277154    4.780536    0.000000
    -8.290696    4.803994    0.000000
     0.000000    0.000000   30.000000
   V    Mo   W    S 
   3   3   3  18
Direct configuration=    12
   0.65814220  0.33102536  0.00084411
   0.66714605 -0.00654804 -0.00025216
   0.32915848  0.32763650  0.00018217
   0.31417274 -0.01371724  0.00007266
   0.68111132  0.68033158 -0.00032708
   0.00076389 -0.01173426 -0.00021657
   1.00058565  0.31630148  0.00012651
   0.00321652  0.69254008  0.00011618
   0.34163739  0.67824373 -0.00042517
   0.11750217  0.22282112  0.94781137
   0.22396645  0.11519751  0.05228538
   0.10807703  0.55617057  0.95085462
   0.22714562  0.44264139  0.05076361
   0.10992870  0.88933215  0.94320430
   0.21911515  0.77436362  0.05400888
   0.44558838  0.22582987  0.95024592
   0.55687028  0.11087483  0.04831101
   0.44394400  0.55160393  0.95036425
   0.55280444  0.44112978  0.04940572
   0.45055379  0.89384060  0.94840940
   0.55891920  0.78470024  0.05219442
   0.77239878  0.21841839  0.95072335
   0.88344279  0.10602477  0.05168089
   0.77794466  0.55219318  0.94900468
   0.88798451  0.44634310  0.04765127
   0.77680555  0.89381473  0.94698507
   0.88928875  0.77883547  0.05597510
unknown system                          
           1
     8.269962    4.775483    0.000000
    -8.284107    4.799980    0.000000
     0.000000    0.000000   30.000000
   V    Mo   W    S 
   3   3   3  18
Direct configuration=    13
   0.65787205  0.33094352  0.00086413
   0.66723534 -0.00659353 -0.00026225
   0.32900984  0.32741493  0.00018597
   0.31403115 -0.01383806  0.00005952
   0.68130535  0.68052382 -0.00032679
   0.00079418 -0.01163237 -0.00022213
   1.00047011  0.31577345  0.00012850
   0.00323075  0.69278513  0.00012314
   0.34187031  0.67860395 -0.00042469
   0.11756441  0.22279413  0.94776524
   0.22396488  0.11514408  0.05229127
   0.10800599  0.55610241  0.95095973
   0.22714015  0.44264800  0.05072919
   0.10990411  0.88936402  0.94317062
   0.21907019  0.77432706  0.05401974
   0.44556894  0.22580607  0.95024402
   0.55678437  0.11081396  0.04827594
   0.44400439  0.55167120  0.95041040
   0.55279772  0.44119575  0.04938929
   0.45057283  0.89391236  0.94839468
   0.55893824  0.78473176  0.05220901
   0.77242913  0.21840675  0.95074073
   0.88339419  0.10591771  0.05172849
   0.77800199  0.55225834  0.94902359
   0.88810019  0.44639427  0.04755093
   0.77684239  0.89383621  0.94696673
   0.88931128  0.77890954  0.05600490
unknown system                          
           1
     8.277114    4.781578    0.000000
    -8.291693    4.806836    0.000000
     0.000000    0.000000   30.000000
   V    Mo   W    S 
   3   3   3  18
Direct configuration=    14
   0.65803025  0.33111340  0.00086879
   0.66724261 -0.00679480 -0.00026602
   0.32901270  0.32745190  0.00019982
   0.31405530 -0.01378185  0.00007687
   0.68127523  0.68061055 -0.00033368
   0.00065433 -0.01162920 -0.00021603
   1.00030798  0.31532860  0.00012230
   0.00300403  0.69280957  0.00012302
   0.34218058  0.67869415 -0.00044442
   0.11759161  0.22287920  0.94779454
   0.22401393  0.11522244  0.05223677
   0.10807145  0.55614101  0.95100122
   0.22709822  0.44262405  0.05067635
   0.10992477  0.88934314  0.94321548
   0.21906982  0.77430965  0.05396721
   0.44551985  0.22580690  0.95027086
   0.55686531  0.11081438  0.04824713
   0.44395823  0.55164110  0.95043016
   0.55276113  0.44118915  0.04936533
   0.45061425  0.89389607  0.94843293
   0.55894163  0.78477390  0.05218562
   0.77239956  0.21833870  0.95075667
   0.88335992  0.10598420  0.05171839
   0.77800003  0.55228872  0.94902272
   0.88815313  0.44641728  0.04758030
   0.77677292  0.89383084  0.94700502
   0.88933568  0.77891141  0.05596258
unknown system                          
           1
     8.281672    4.784626    0.000000
    -8.297467    4.811992    0.000000
     0.000000    0.000000   30.000000
   V    Mo   W    S 
   3   3   3  18
Direct configuration=    15
   0.65653960  0.33068038  0.00097744
   0.66778201 -0.00690086 -0.00031262
   0.32809485  0.32588772  0.00021106
   0.31343265 -0.01437947 -0.00000404
   0.68217456  0.68148259 -0.00032809
   0.00100287 -0.01084588 -0.00024950
   0.99951865  0.31254987  0.00012689
   0.00320913  0.69399736  0.00014709
   0.34350550  0.68092671 -0.00042949
   0.11791024  0.22271336  0.94750828
   0.22402144  0.11494926  0.05232156
   0.10769520  0.55569304  0.95157024
   0.22703505  0.44266680  0.05046337
   0.10977258  0.88951150  0.94304382
   0.21888354  0.77416905  0.05405132
   0.44547797  0.22574029  0.95021041
   0.55645712  0.11054261  0.04810084
   0.44423622  0.55197951  0.95069281
   0.55272863  0.44158189  0.04929240
   0.45078400  0.89436514  0.94829694
   0.55907458  0.78491376  0.05230842
   0.77253969  0.21829084  0.95080434
   0.88302018  0.10530826  0.05203468
   0.77824585  0.55259353  0.94912062
   0.88868246  0.44658974  0.04704202
   0.77697076  0.89390669  0.94687146
   0.88941914  0.77930077  0.05612762
unknown system                          
           1
     8.281818    4.784679    0.000000
    -8.297590    4.812006    0.000000
     0.000000    0.000000   30.000000
   V    Mo   W    S 
   3   3   3  18
Direct configuration=    16
   0.65510269  0.33038233  0.00110044
   0.66847189 -0.00723249 -0.00035013
   0.32693961  0.32375184  0.00022255
   0.31302097 -0.01459566 -0.00009097
   0.68305748  0.68253800 -0.00032368
   0.00120637 -0.00993160 -0.00027176
   0.99840266  0.30944874  0.00011435
   0.00314998  0.69500073  0.00017937
   0.34533597  0.68351902 -0.00041021
   0.11829538  0.22260566  0.94722678
   0.22411034  0.11478489  0.05239873
   0.10747724  0.55522674  0.95219525
   0.22686997  0.44267046  0.05014842
   0.10967346  0.88967803  0.94290810
   0.21873424  0.77405167  0.05410065
   0.44540463  0.22570862  0.95012783
   0.55619986  0.11031904  0.04793255
   0.44439989  0.55224173  0.95101013
   0.55257605  0.44196273  0.04920716
   0.45111268  0.89497875  0.94814750
   0.55924847  0.78512238  0.05244688
   0.77262082  0.21817050  0.95084791
   0.88254162  0.10455151  0.05237194
   0.77846555  0.55289740  0.94920876
   0.88915229  0.44665800  0.04653886
   0.77711843  0.89400005  0.94676181
   0.88952592  0.77970539  0.05625068
unknown system                          
           1
     8.271539    4.781499    0.000000
    -8.287391    4.808977    0.000000
     0.000000    0.000000   30.000000
   V    Mo   W    S 
   3   3   3  18
Direct configuration=    17
   0.65516063  0.33040035  0.00109639
   0.66844849 -0.00722741 -0.00034883
   0.32698027  0.32382544  0.00022250
   0.31303969 -0.01458171 -0.00008758
   0.68302062  0.68250052 -0.00032348
   0.00119643 -0.00996022 -0.00027116
   0.99843500  0.30955150  0.00011375
   0.00314283  0.69495819  0.00017775
   0.34528420  0.68342970 -0.00041108
   0.11828357  0.22260943  0.94723544
   0.22410863  0.11479368  0.05239642
   0.10748558  0.55524286  0.95217417
   0.22687457  0.44267006  0.05015924
   0.10967752  0.88967295  0.94291251
   0.21873949  0.77405474  0.05409848
   0.44540653  0.22571039  0.95013025
   0.55621205  0.11032754  0.04793843
   0.44439354  0.55223031  0.95099759
   0.55258020  0.44194969  0.04921072
   0.45110477  0.89496077  0.94815177
   0.55924434  0.78511703  0.05244419
   0.77261525  0.21817232  0.95084557
   0.88255437  0.10457495  0.05236263
   0.77845644  0.55288642  0.94920385
   0.88913664  0.44665497  0.04655848
   0.77711186  0.89399790  0.94676412
   0.88952097  0.77969207  0.05624778
unknown system                          
           1
     8.283313    4.786250    0.000000
    -8.299932    4.815045    0.000000
     0.000000    0.000000   30.000000
   V    Mo   W    S 
   3   3   3  18
Direct configuration=    18
   0.65219290  0.32995759  0.00134725
   0.66990765 -0.00749692 -0.00041049
   0.32481765  0.31914760  0.00019969
   0.31263249 -0.01426889 -0.00026388
   0.68459152  0.68380329 -0.00030860
   0.00165953 -0.00840034 -0.00032265
   0.99714460  0.30553301  0.00005586
   0.00305665  0.69636631  0.00021080
   0.34769369  0.68741030 -0.00034817
   0.11878381  0.22249332  0.94685920
   0.22418132  0.11462350  0.05257896
   0.10751348  0.55475241  0.95300974
   0.22664166  0.44277854  0.04969768
   0.10959398  0.88979447  0.94275493
   0.21865178  0.77393680  0.05413380
   0.44545280  0.22579461  0.94993043
   0.55600943  0.11033850  0.04778896
   0.44441670  0.55251993  0.95148711
   0.55236422  0.44233733  0.04911637
   0.45139214  0.89570258  0.94789380
   0.55938854  0.78518560  0.05267503
   0.77277495  0.21837080  0.95083510
   0.88203266  0.10352218  0.05286168
   0.77878561  0.55323307  0.94931738
   0.88944700  0.44659445  0.04592297
   0.77744097  0.89406183  0.94657432
   0.88964671  0.78012258  0.05640267
unknown system                          
           1
     8.285351    4.788265    0.000000
    -8.302850    4.818588    0.000000
     0.000000    0.000000   30.000000
   V    Mo   W    S 
   3   3   3  18
Direct configuration=    19
   0.65387750  0.33010020  0.00122208
   0.66914508 -0.00758395 -0.00037454
   0.32574000  0.32136068  0.00022478
   0.31275641 -0.01455950 -0.00017444
   0.68381234  0.68354655 -0.00031637
   0.00138323 -0.00914007 -0.00029317
   0.99729487  0.30691100  0.00007660
   0.00310350  0.69581333  0.00019379
   0.34710670  0.68599823 -0.00038456
   0.11857844  0.22247823  0.94700116
   0.22418204  0.11462855  0.05248624
   0.10740293  0.55480486  0.95277860
   0.22667848  0.44267563  0.04979901
   0.10957288  0.88979935  0.94283391
   0.21866088  0.77402356  0.05411675
   0.44534942  0.22570860  0.95002955
   0.55604552  0.11015986  0.04776803
   0.44446199  0.55244951  0.95134550
   0.55238353  0.44229310  0.04910943
   0.45148866  0.89561916  0.94800827
   0.55943719  0.78532450  0.05258829
   0.77267790  0.21804091  0.95088788
   0.88206913  0.10381390  0.05266015
   0.77864008  0.55318589  0.94930794
   0.88946046  0.44660314  0.04610394
   0.77727965  0.89410875  0.94666958
   0.88962565  0.78005046  0.05633147
unknown system                          
           1
     8.286619    4.788899    0.000000
    -8.303961    4.818950    0.000000
     0.000000    0.000000   30.000000
   V    Mo   W    S 
   3   3   3  18
Direct configuration=    20
   0.65272400  0.32977081  0.00134983
   0.66985994 -0.00794448 -0.00038782
   0.32446606  0.31858378  0.00021187
   0.31260005 -0.01427111 -0.00027008
   0.68450660  0.68457599 -0.00029479
   0.00155166 -0.00841091 -0.00030550
   0.99613038  0.30463593  0.00002286
   0.00307327  0.69651790  0.00021313
   0.34890128  0.68851267 -0.00032946
   0.11880171  0.22231789  0.94679485
   0.22420878  0.11445850  0.05260755
   0.10745168  0.55442288  0.95334839
   0.22649960  0.44272483  0.04940459
   0.10948675  0.88992243  0.94276037
   0.21864154  0.77405370  0.05412652
   0.44531170  0.22574388  0.94990602
   0.55595493  0.11003855  0.04761737
   0.44441871  0.55258500  0.95170788
   0.55213321  0.44257685  0.04899435
   0.45191931  0.89634063  0.94784533
   0.55965096  0.78552259  0.05276094
   0.77268401  0.21790318  0.95089657
   0.88159659  0.10306035  0.05292658
   0.77878866  0.55347402  0.94940970
   0.88965158  0.44648993  0.04571614
   0.77748718  0.89426059  0.94656316
   0.88971435  0.78034810  0.05640357
unknown system                          
           1
     8.289629    4.791278    0.000000
    -8.307578    4.822385    0.000000
     0.000000    0.000000   30.000000
   V    Mo   W    S 
   3   3   3  18
Direct configuration=    21
   0.65257469  0.32975332  0.00135914
   0.66993031 -0.00793381 -0.00038961
   0.32438268  0.31839100  0.00020976
   0.31263233 -0.01421490 -0.00027474
   0.68457208  0.68458857 -0.00029770
   0.00154502 -0.00835409 -0.00030668
   0.99614279  0.30458373  0.00002751
   0.00308017  0.69652787  0.00021506
   0.34890966  0.68860845 -0.00032708
   0.11883423  0.22231309  0.94676934
   0.22420559  0.11445712  0.05262700
   0.10745513  0.55441276  0.95335575
   0.22650554  0.44272479  0.04940051
   0.10949305  0.88992932  0.94274555
   0.21863722  0.77405777  0.05413673
   0.44531337  0.22574718  0.94988235
   0.55595806  0.11005142  0.04762354
   0.44441093  0.55257840  0.95172254
   0.55210508  0.44258287  0.04900835
   0.45192758  0.89636343  0.94783037
   0.55965692  0.78551519  0.05276640
   0.77269739  0.21793920  0.95089524
   0.88158886  0.10303263  0.05294584
   0.77879988  0.55346267  0.94940369
   0.88963833  0.44647833  0.04570239
   0.77749939  0.89425492  0.94655214
   0.88971815  0.78036322  0.05641649
unknown system                          
           1
     8.287152    4.791308    0.000000
    -8.306003    4.823985    0.000000
     0.000000    0.000000   30.000000
   V    Mo   W    S 
   3   3   3  18
Direct configuration=    22
   0.65149104  0.32934171  0.00149457
   0.67071673 -0.00828269 -0.00040458
   0.32304879  0.31531881  0.00017963
   0.31260683 -0.01364007 -0.00037367
   0.68519605  0.68565562 -0.00027907
   0.00163187 -0.00771905 -0.00031499
   0.99495425  0.30254405 -0.00004181
   0.00305462  0.69712449  0.00022744
   0.35072513  0.69110412 -0.00024974
   0.11900640  0.22212109  0.94657653
   0.22416817  0.11425768  0.05278877
   0.10762775  0.55410333  0.95389271
   0.22637496  0.44280471  0.04896590
   0.10942021  0.89003429  0.94267717
   0.21867729  0.77418425  0.05414168
   0.44527987  0.22580379  0.94972128
   0.55592208  0.10994860  0.04748870
   0.44425278  0.55260539  0.95211459
   0.55175730  0.44280711  0.04888348
   0.45238434  0.89712009  0.94766204
   0.55990135  0.78572215  0.05297126
   0.77265179  0.21779271  0.95087353
   0.88115675  0.10232369  0.05319026
   0.77893596  0.55376356  0.94950848
   0.88972179  0.44633377  0.04537520
   0.77774918  0.89443240  0.94643787
   0.88980116  0.78060885  0.05649268
unknown system                          
           1
     8.298480    4.797436    0.000000
    -8.317211    4.829903    0.000000
     0.000000    0.000000   30.000000
   V    Mo   W    S 
   3   3   3  18
Direct configuration=    23
   0.64956159  0.32836277  0.00174570
   0.67223091 -0.00883333 -0.00043958
   0.32061920  0.30952771  0.00009339
   0.31270273 -0.01215752 -0.00054421
   0.68619389  0.68758035 -0.00021784
   0.00174964 -0.00678575 -0.00031706
   0.99287595  0.29928483 -0.00021151
   0.00308361  0.69813473  0.00025214
   0.35394259  0.69545663 -0.00005359
   0.11920077  0.22170983  0.94626039
   0.22392194  0.11378534  0.05313295
   0.10813668  0.55367413  0.95482406
   0.22625769  0.44300325  0.04809226
   0.10931040  0.89022436  0.94257132
   0.21885908  0.77460047  0.05412253
   0.44522036  0.22594256  0.94937306
   0.55592835  0.10977897  0.04728192
   0.44373294  0.55241599  0.95289261
   0.55092287  0.44307368  0.04861893
   0.45323793  0.89854434  0.94736170
   0.56042602  0.78609947  0.05337744
   0.77255061  0.21757496  0.95079058
   0.88046708  0.10113107  0.05359764
   0.77915754  0.55433775  0.94971762
   0.88971404  0.44602173  0.04485986
   0.77829179  0.89479417  0.94620187
   0.88991826  0.78093198  0.05661572
unknown system                          
           1
     8.294527    4.795187    0.000000
    -8.312948    4.827118    0.000000
     0.000000    0.000000   30.000000
   V    Mo   W    S 
   3   3   3  18
Direct configuration=    24
   0.64833416  0.32752890  0.00186662
   0.67311964 -0.00906587 -0.00046684
   0.31967982  0.30701678  0.00000044
   0.31297595 -0.01123065 -0.00062898
   0.68669672  0.68858563 -0.00017197
   0.00138002 -0.00680526 -0.00031376
   0.99184119  0.29806841 -0.00031496
   0.00326919  0.69863070  0.00027047
   0.35530338  0.69739666  0.00009023
   0.11916247  0.22140459  0.94609025
   0.22356204  0.11329557  0.05337778
   0.10852887  0.55359017  0.95522147
   0.22638716  0.44322508  0.04762632
   0.10929015  0.89034548  0.94253565
   0.21902774  0.77499890  0.05411526
   0.44530462  0.22602319  0.94912546
   0.55607270  0.10971608  0.04721951
   0.44333659  0.55215496  0.95332661
   0.55037369  0.44305728  0.04848054
   0.45375780  0.89932515  0.94724813