   27   27  100    1
  0.9710400E+02  0.1002848E-08  0.1002848E-08  0.3000000E-08  0.5000000E-15
  1.000000000000000E-004
  CAR 
 unknown system                          
    159     34    120
 
  0.0000000E+00  0.0000000E+00  0.0000000E+00  0.1562500E-01
    1      -17.797052   1.000000
    2      -16.749570   1.000000
    3      -16.654087   1.000000
    4      -16.570136   1.000000
    5      -16.511088   1.000000
    6      -16.461771   1.000000
    7      -16.392263   1.000000
    8      -16.311442   1.000000
    9      -16.216334   1.000000
   10      -16.160803   1.000000
   11      -16.063849   1.000000
   12      -16.014138   1.000000
   13      -15.869252   1.000000
   14      -15.603739   1.000000
   15      -15.565703   1.000000
   16      -15.457949   1.000000
   17      -15.371549   1.000000
   18      -15.240757   1.000000
   19       -9.305140   1.000000
   20       -9.081537   1.000000
   21       -8.961321   1.000000
   22       -8.900321   1.000000
   23       -8.813633   1.000000
   24       -8.739186   1.000000
   25       -8.625550   1.000000
   26       -8.601898   1.000000
   27       -8.506598   1.000000
   28       -8.403210   1.000000
   29       -8.338019   1.000000
   30       -8.290577   1.000000
   31       -8.234330   1.000000
   32       -8.113090   1.000000
   33       -8.022043   1.000000
   34       -7.944032   1.000000
   35       -7.903637   1.000000
   36       -7.803733   1.000000
   37       -7.678126   1.000000
   38       -7.516328   1.000000
   39       -7.482663   1.000000
   40       -7.448405   1.000000
   41       -7.279450   1.000000
   42       -7.166243   1.000000
   43       -7.131246   1.000000
   44       -6.997907   1.000000
   45       -6.839377   1.000000
   46       -6.809069   1.000000
   47       -6.643741   1.000000
   48       -6.609235   1.000000
   49       -6.570135   1.000000
   50       -6.536482   1.000000
   51       -6.493447   1.000000
   52       -6.413035   1.000000
   53       -6.316481   1.000000
   54       -6.253873   1.000000
   55       -6.199524   1.000000
   56       -6.192625   1.000000
   57       -6.077208   1.000000
   58       -5.920136   1.000000
   59       -5.721816   1.000000
   60       -5.558967   1.000000
   61       -5.522863   1.000000
   62       -5.435257   1.000000
   63       -5.214573   1.000000
   64       -5.118445   1.000000
   65       -5.038920   1.000000
   66       -4.979170   1.000000
   67       -4.884317   1.000000
   68       -4.861927   1.000000
   69       -4.813582   1.000000
   70       -4.736097   1.000000
   71       -4.644313   1.000000
   72       -4.603813   1.000000
   73       -4.505079   1.000000
   74       -4.337536   1.000000
   75       -4.285040   1.000000
   76       -4.117150   1.000000
   77       -3.803244   0.999368
   78       -3.587577   0.955334
   79       -3.514335   0.881205
   80       -3.396926   0.637141
   81       -3.293148   0.350860
   82       -2.858837   0.000276
   83       -2.728984   0.000006
   84       -2.617315   0.000000
   85       -2.515061   0.000000
   86       -2.477866   0.000000
   87       -2.358912   0.000000
   88       -2.260244   0.000000
   89       -2.216524   0.000000
   90       -2.069527   0.000000
   91       -2.043247   0.000000
   92       -1.395908   0.000000
   93       -1.335539   0.000000
   94       -1.266541   0.000000
   95       -1.105557   0.000000
   96       -1.068667   0.000000
   97       -0.991107   0.000000
   98       -0.857782   0.000000
   99       -0.712259   0.000000
  100       -0.697893   0.000000
  101       -0.623666   0.000000
  102       -0.518194   0.000000
  103       -0.486948   0.000000
  104       -0.336543   0.000000
  105       -0.210155   0.000000
  106       -0.119817   0.000000
  107       -0.072029   0.000000
  108       -0.001187   0.000000
  109        0.076233   0.000000
  110        0.279057   0.000000
  111        0.328447   0.000000
  112        0.601446   0.000000
  113        0.756546   0.000000
  114        0.782297   0.000000
  115        0.841320   0.000000
  116        1.038313   0.000000
  117        1.115509   0.000000
  118        1.640497   0.000000
  119        1.837677   0.000000
  120        2.147742   0.000000
 
  0.1250000E+00  0.2775558E-16  0.0000000E+00  0.3125000E-01
    1      -17.771683   1.000000
    2      -16.788607   1.000000
    3      -16.741996   1.000000
    4      -16.586849   1.000000
    5      -16.526885   1.000000
    6      -16.425605   1.000000
    7      -16.359165   1.000000
    8      -16.325325   1.000000
    9      -16.234497   1.000000
   10      -16.113961   1.000000
   11      -16.024131   1.000000
   12      -15.972064   1.000000
   13      -15.860801   1.000000
   14      -15.616155   1.000000
   15      -15.577330   1.000000
   16      -15.449196   1.000000
   17      -15.373064   1.000000
   18      -15.252770   1.000000
   19       -9.296302   1.000000
   20       -9.215300   1.000000
   21       -9.059296   1.000000
   22       -9.029915   1.000000
   23       -8.775336   1.000000
   24       -8.696193   1.000000
   25       -8.662250   1.000000
   26       -8.563533   1.000000
   27       -8.452169   1.000000
   28       -8.426309   1.000000
   29       -8.393284   1.000000
   30       -8.218643   1.000000
   31       -8.151109   1.000000
   32       -8.068220   1.000000
   33       -8.004606   1.000000
   34       -7.888420   1.000000
   35       -7.821774   1.000000
   36       -7.707661   1.000000
   37       -7.654723   1.000000
   38       -7.568161   1.000000
   39       -7.475639   1.000000
   40       -7.370299   1.000000
   41       -7.330334   1.000000
   42       -7.192450   1.000000
   43       -7.134687   1.000000
   44       -7.019908   1.000000
   45       -6.873900   1.000000
   46       -6.823319   1.000000
   47       -6.742415   1.000000
   48       -6.634633   1.000000
   49       -6.570535   1.000000
   50       -6.469405   1.000000
   51       -6.429824   1.000000
   52       -6.381006   1.000000
   53       -6.346168   1.000000
   54       -6.281147   1.000000
   55       -6.193462   1.000000
   56       -6.152684   1.000000
   57       -6.012197   1.000000
   58       -5.939856   1.000000
   59       -5.702194   1.000000
   60       -5.560926   1.000000
   61       -5.514966   1.000000
   62       -5.467614   1.000000
   63       -5.326903   1.000000
   64       -5.169487   1.000000
   65       -5.118666   1.000000
   66       -5.011485   1.000000
   67       -4.945089   1.000000
   68       -4.882264   1.000000
   69       -4.794427   1.000000
   70       -4.698084   1.000000
   71       -4.615763   1.000000
   72       -4.566016   1.000000
   73       -4.418801   1.000000
   74       -4.313478   1.000000
   75       -4.216239   1.000000
   76       -4.056250   1.000000
   77       -3.869961   0.999890
   78       -3.720942   0.995879
   79       -3.545696   0.919659
   80       -3.441112   0.746420
   81       -3.157517   0.089790
   82       -2.844163   0.000187
   83       -2.718128   0.000004
   84       -2.636800   0.000000
   85       -2.505234   0.000000
   86       -2.458516   0.000000
   87       -2.347777   0.000000
   88       -2.239990   0.000000
   89       -2.196287   0.000000
   90       -2.097265   0.000000
   91       -2.005979   0.000000
   92       -1.409282   0.000000
   93       -1.347252   0.000000
   94       -1.222922   0.000000
   95       -1.110349   0.000000
   96       -1.066580   0.000000
   97       -0.981642   0.000000
   98       -0.892179   0.000000
   99       -0.799474   0.000000
  100       -0.717978   0.000000
  101       -0.681000   0.000000
  102       -0.556493   0.000000
  103       -0.497171   0.000000
  104       -0.348979   0.000000
  105       -0.291900   0.000000
  106       -0.139906   0.000000
  107       -0.110641   0.000000
  108       -0.051526   0.000000
  109        0.110219   0.000000
  110        0.276709   0.000000
  111        0.360126   0.000000
  112        0.612473   0.000000
  113        0.739201   0.000000
  114        0.783380   0.000000
  115        0.915740   0.000000
  116        1.055567   0.000000
  117        1.127658   0.000000
  118        1.685763   0.000000
  119        1.875800   0.000000
  120        2.183226   0.000000
 
  0.2500000E+00  0.5551115E-16  0.0000000E+00  0.3125000E-01
    1      -17.696586   1.000000
    2      -16.993560   1.000000
    3      -16.737787   1.000000
    4      -16.633174   1.000000
    5      -16.604396   1.000000
    6      -16.404250   1.000000
    7      -16.309171   1.000000
    8      -16.274337   1.000000
    9      -16.218051   1.000000
   10      -16.101519   1.000000
   11      -15.969284   1.000000
   12      -15.890117   1.000000
   13      -15.794546   1.000000
   14      -15.648777   1.000000
   15      -15.598753   1.000000
   16      -15.452571   1.000000
   17      -15.367567   1.000000
   18      -15.277797   1.000000
   19       -9.514414   1.000000
   20       -9.326547   1.000000
   21       -9.153639   1.000000
   22       -9.040141   1.000000
   23       -8.864862   1.000000
   24       -8.717199   1.000000
   25       -8.650226   1.000000
   26       -8.536000   1.000000
   27       -8.442835   1.000000
   28       -8.372431   1.000000
   29       -8.300216   1.000000
   30       -8.239791   1.000000
   31       -8.114804   1.000000
   32       -7.994586   1.000000
   33       -7.885125   1.000000
   34       -7.860352   1.000000
   35       -7.726701   1.000000
   36       -7.634867   1.000000
   37       -7.592428   1.000000
   38       -7.497309   1.000000
   39       -7.455032   1.000000
   40       -7.394096   1.000000
   41       -7.290426   1.000000
   42       -7.113088   1.000000
   43       -7.101526   1.000000
   44       -7.002553   1.000000
   45       -6.904101   1.000000
   46       -6.865564   1.000000
   47       -6.818984   1.000000
   48       -6.657780   1.000000
   49       -6.582767   1.000000
   50       -6.490153   1.000000
   51       -6.407015   1.000000
   52       -6.394984   1.000000
   53       -6.288717   1.000000
   54       -6.211314   1.000000
   55       -6.149389   1.000000
   56       -6.082458   1.000000
   57       -5.967730   1.000000
   58       -5.906955   1.000000
   59       -5.756751   1.000000
   60       -5.711571   1.000000
   61       -5.631732   1.000000
   62       -5.557899   1.000000
   63       -5.401225   1.000000
   64       -5.323569   1.000000
   65       -5.138042   1.000000
   66       -5.075976   1.000000
   67       -5.005484   1.000000
   68       -4.883619   1.000000
   69       -4.824721   1.000000
   70       -4.597263   1.000000
   71       -4.539668   1.000000
   72       -4.447529   1.000000
   73       -4.317781   1.000000
   74       -4.265342   1.000000
   75       -4.149350   1.000000
   76       -4.065034   1.000000
   77       -4.021123   0.999999
   78       -3.861141   0.999860
   79       -3.564828   0.937985
   80       -3.405970   0.660847
   81       -3.036272   0.013925
   82       -2.817322   0.000089
   83       -2.696138   0.000002
   84       -2.638349   0.000000
   85       -2.513481   0.000000
   86       -2.417691   0.000000
   87       -2.329077   0.000000
   88       -2.248158   0.000000
   89       -2.144618   0.000000
   90       -2.104933   0.000000
   91       -1.900004   0.000000
   92       -1.438633   0.000000
   93       -1.345899   0.000000
   94       -1.175171   0.000000
   95       -1.140319   0.000000
   96       -1.102470   0.000000
   97       -1.014976   0.000000
   98       -0.933660   0.000000
   99       -0.897898   0.000000
  100       -0.816585   0.000000
  101       -0.737768   0.000000
  102       -0.657423   0.000000
  103       -0.567843   0.000000
  104       -0.461402   0.000000
  105       -0.372586   0.000000
  106       -0.181839   0.000000
  107       -0.163353   0.000000
  108       -0.070313   0.000000
  109        0.059666   0.000000
  110        0.271388   0.000000
  111        0.363622   0.000000
  112        0.578026   0.000000
  113        0.749472   0.000000
  114        0.819709   0.000000
  115        0.985576   0.000000
  116        1.136963   0.000000
  117        1.235894   0.000000
  118        1.810284   0.000000
  119        1.985695   0.000000
  120        2.288261   0.000000
 
  0.3750000E+00  0.0000000E+00  0.0000000E+00  0.3125000E-01
    1      -17.575336   1.000000
    2      -17.207878   1.000000
    3      -16.733693   1.000000
    4      -16.672016   1.000000
    5      -16.648275   1.000000
    6      -16.429748   1.000000
    7      -16.266424   1.000000
    8      -16.239173   1.000000
    9      -16.162363   1.000000
   10      -16.096871   1.000000
   11      -15.929144   1.000000
   12      -15.839341   1.000000
   13      -15.723325   1.000000
   14      -15.680053   1.000000
   15      -15.600262   1.000000
   16      -15.487792   1.000000
   17      -15.369320   1.000000
   18      -15.282624   1.000000
   19       -9.729237   1.000000
   20       -9.422832   1.000000
   21       -9.180814   1.000000
   22       -9.003743   1.000000
   23       -8.902061   1.000000
   24       -8.748321   1.000000
   25       -8.635079   1.000000
   26       -8.487230   1.000000
   27       -8.440950   1.000000
   28       -8.366773   1.000000
   29       -8.277882   1.000000
   30       -8.175467   1.000000
   31       -8.101277   1.000000
   32       -7.990897   1.000000
   33       -7.892618   1.000000
   34       -7.858946   1.000000
   35       -7.742672   1.000000
   36       -7.710669   1.000000
   37       -7.527167   1.000000
   38       -7.482647   1.000000
   39       -7.334974   1.000000
   40       -7.284701   1.000000
   41       -7.195230   1.000000
   42       -7.114092   1.000000
   43       -7.033139   1.000000
   44       -6.964948   1.000000
   45       -6.864914   1.000000
   46       -6.850664   1.000000
   47       -6.672699   1.000000
   48       -6.611212   1.000000
   49       -6.534349   1.000000
   50       -6.483070   1.000000
   51       -6.450160   1.000000
   52       -6.392784   1.000000
   53       -6.253248   1.000000
   54       -6.197994   1.000000
   55       -6.109364   1.000000
   56       -6.077240   1.000000
   57       -5.993159   1.000000
   58       -5.946346   1.000000
   59       -5.888519   1.000000
   60       -5.820929   1.000000
   61       -5.772056   1.000000
   62       -5.665146   1.000000
   63       -5.551525   1.000000
   64       -5.285107   1.000000
   65       -5.141334   1.000000
   66       -5.112789   1.000000
   67       -5.027057   1.000000
   68       -4.906902   1.000000
   69       -4.748577   1.000000
   70       -4.686571   1.000000
   71       -4.492800   1.000000
   72       -4.387270   1.000000
   73       -4.305418   1.000000
   74       -4.254118   1.000000
   75       -4.200853   1.000000
   76       -4.123903   1.000000
   77       -3.966504   0.999994
   78       -3.776604   0.998800
   79       -3.601184   0.963685
   80       -3.390186   0.619118
   81       -2.928373   0.001527
   82       -2.792201   0.000043
   83       -2.700596   0.000002
   84       -2.597899   0.000000
   85       -2.535458   0.000000
   86       -2.408604   0.000000
   87       -2.329822   0.000000
   88       -2.261726   0.000000
   89       -2.129852   0.000000
   90       -2.040023   0.000000
   91       -1.758741   0.000000
   92       -1.460205   0.000000
   93       -1.356762   0.000000
   94       -1.254014   0.000000
   95       -1.213694   0.000000
   96       -1.131313   0.000000
   97       -1.079841   0.000000
   98       -0.975148   0.000000
   99       -0.888924   0.000000
  100       -0.865797   0.000000
  101       -0.799173   0.000000
  102       -0.727999   0.000000
  103       -0.644247   0.000000
  104       -0.528548   0.000000
  105       -0.454883   0.000000
  106       -0.242585   0.000000
  107       -0.214435   0.000000
  108       -0.088577   0.000000
  109        0.030136   0.000000
  110        0.227104   0.000000
  111        0.338213   0.000000
  112        0.546847   0.000000
  113        0.735215   0.000000
  114        0.862591   0.000000
  115        1.044065   0.000000
  116        1.237471   0.000000
  117        1.370691   0.000000
  118        1.995255   0.000000
  119        2.158224   0.000000
  120        2.459212   0.000000
 
  0.5000000E+00  0.1110223E-15  0.0000000E+00  0.1562500E-01
    1      -17.440143   1.000000
    2      -17.376110   1.000000
    3      -16.733505   1.000000
    4      -16.688196   1.000000
    5      -16.658248   1.000000
    6      -16.440786   1.000000
    7      -16.262732   1.000000
    8      -16.217899   1.000000
    9      -16.135830   1.000000
   10      -16.097572   1.000000
   11      -15.912037   1.000000
   12      -15.791526   1.000000
   13      -15.753868   1.000000
   14      -15.679430   1.000000
   15      -15.566180   1.000000
   16      -15.523899   1.000000
   17      -15.378796   1.000000
   18      -15.274824   1.000000
   19       -9.806523   1.000000
   20       -9.463379   1.000000
   21       -9.191843   1.000000
   22       -9.015058   1.000000
   23       -8.844716   1.000000
   24       -8.759268   1.000000
   25       -8.611592   1.000000
   26       -8.571093   1.000000
   27       -8.425831   1.000000
   28       -8.357744   1.000000
   29       -8.215253   1.000000
   30       -8.127710   1.000000
   31       -8.077463   1.000000
   32       -8.039408   1.000000
   33       -7.914041   1.000000
   34       -7.874760   1.000000
   35       -7.820568   1.000000
   36       -7.716178   1.000000
   37       -7.518725   1.000000
   38       -7.449005   1.000000
   39       -7.346308   1.000000
   40       -7.299219   1.000000
   41       -7.084426   1.000000
   42       -7.012903   1.000000
   43       -6.978672   1.000000
   44       -6.952198   1.000000
   45       -6.880177   1.000000
   46       -6.731725   1.000000
   47       -6.623513   1.000000
   48       -6.606478   1.000000
   49       -6.567472   1.000000
   50       -6.470968   1.000000
   51       -6.432963   1.000000
   52       -6.383989   1.000000
   53       -6.298600   1.000000
   54       -6.218972   1.000000
   55       -6.144481   1.000000
   56       -6.061217   1.000000
   57       -5.998410   1.000000
   58       -5.984702   1.000000
   59       -5.933071   1.000000
   60       -5.844067   1.000000
   61       -5.782740   1.000000
   62       -5.705516   1.000000
   63       -5.486168   1.000000
   64       -5.359077   1.000000
   65       -5.250866   1.000000
   66       -5.109873   1.000000
   67       -5.050574   1.000000
   68       -4.930753   1.000000
   69       -4.758380   1.000000
   70       -4.629580   1.000000
   71       -4.479540   1.000000
   72       -4.414820   1.000000
   73       -4.339913   1.000000
   74       -4.241599   1.000000
   75       -4.198211   1.000000
   76       -4.111499   1.000000
   77       -3.884773   0.999928
   78       -3.757455   0.998135
   79       -3.625355   0.975354
   80       -3.391394   0.622368
   81       -2.861696   0.000298
   82       -2.789813   0.000040
   83       -2.706431   0.000003
   84       -2.590771   0.000000
   85       -2.534900   0.000000
   86       -2.428083   0.000000
   87       -2.331392   0.000000
   88       -2.256102   0.000000
   89       -2.111303   0.000000
   90       -2.018980   0.000000
   91       -1.682539   0.000000
   92       -1.468354   0.000000
   93       -1.375987   0.000000
   94       -1.307558   0.000000
   95       -1.259127   0.000000
   96       -1.145638   0.000000
   97       -1.115479   0.000000
   98       -0.955696   0.000000
   99       -0.918616   0.000000
  100       -0.851818   0.000000
  101       -0.841988   0.000000
  102       -0.745133   0.000000
  103       -0.653726   0.000000
  104       -0.554962   0.000000
  105       -0.493598   0.000000
  106       -0.270885   0.000000
  107       -0.234212   0.000000
  108       -0.107925   0.000000
  109        0.024817   0.000000
  110        0.206539   0.000000
  111        0.328301   0.000000
  112        0.536002   0.000000
  113        0.723460   0.000000
  114        0.884234   0.000000
  115        1.068727   0.000000
  116        1.274778   0.000000
  117        1.427068   0.000000
  118        2.205903   0.000000
  119        2.259472   0.000000
  120        2.379526   0.000000
 
  0.0000000E+00  0.1250000E+00  0.0000000E+00  0.3125000E-01
    1      -17.771857   1.000000
    2      -16.784136   1.000000
    3      -16.730891   1.000000
    4      -16.637261   1.000000
    5      -16.489227   1.000000
    6      -16.410499   1.000000
    7      -16.370544   1.000000
    8      -16.328609   1.000000
    9      -16.240064   1.000000
   10      -16.088728   1.000000
   11      -16.041132   1.000000
   12      -15.988965   1.000000
   13      -15.850081   1.000000
   14      -15.611106   1.000000
   15      -15.577281   1.000000
   16      -15.450680   1.000000
   17      -15.380921   1.000000
   18      -15.248481   1.000000
   19       -9.286978   1.000000
   20       -9.189426   1.000000
   21       -9.069803   1.000000
   22       -9.017670   1.000000
   23       -8.796762   1.000000
   24       -8.710187   1.000000
   25       -8.669870   1.000000
   26       -8.564337   1.000000
   27       -8.498437   1.000000
   28       -8.413900   1.000000
   29       -8.380625   1.000000
   30       -8.193058   1.000000
   31       -8.136761   1.000000
   32       -8.070150   1.000000
   33       -8.025690   1.000000
   34       -7.878272   1.000000
   35       -7.816671   1.000000
   36       -7.704942   1.000000
   37       -7.657411   1.000000
   38       -7.570542   1.000000
   39       -7.486439   1.000000
   40       -7.360777   1.000000
   41       -7.313671   1.000000
   42       -7.237516   1.000000
   43       -7.138104   1.000000
   44       -7.010758   1.000000
   45       -6.858376   1.000000
   46       -6.822001   1.000000
   47       -6.726779   1.000000
   48       -6.662801   1.000000
   49       -6.565194   1.000000
   50       -6.474383   1.000000
   51       -6.456804   1.000000
   52       -6.386220   1.000000
   53       -6.307254   1.000000
   54       -6.253976   1.000000
   55       -6.192976   1.000000
   56       -6.157901   1.000000
   57       -6.023000   1.000000
   58       -5.925481   1.000000
   59       -5.712981   1.000000
   60       -5.558613   1.000000
   61       -5.521689   1.000000
   62       -5.451707   1.000000
   63       -5.340024   1.000000
   64       -5.167350   1.000000
   65       -5.140558   1.000000
   66       -5.030462   1.000000
   67       -4.913007   1.000000
   68       -4.878340   1.000000
   69       -4.786215   1.000000
   70       -4.688364   1.000000
   71       -4.617660   1.000000
   72       -4.526616   1.000000
   73       -4.444819   1.000000
   74       -4.323441   1.000000
   75       -4.230575   1.000000
   76       -4.071331   1.000000
   77       -3.879376   0.999916
   78       -3.691794   0.992572
   79       -3.561016   0.934621
   80       -3.455587   0.778049
   81       -3.133353   0.065151
   82       -2.845941   0.000196
   83       -2.735249   0.000008
   84       -2.618287   0.000000
   85       -2.513231   0.000000
   86       -2.451357   0.000000
   87       -2.354370   0.000000
   88       -2.239260   0.000000
   89       -2.185703   0.000000
   90       -2.060772   0.000000
   91       -2.057521   0.000000
   92       -1.401889   0.000000
   93       -1.321968   0.000000
   94       -1.255108   0.000000
   95       -1.101974   0.000000
   96       -1.060075   0.000000
   97       -0.982650   0.000000
   98       -0.865855   0.000000
   99       -0.790206   0.000000
  100       -0.723872   0.000000
  101       -0.669609   0.000000
  102       -0.541783   0.000000
  103       -0.515074   0.000000
  104       -0.344877   0.000000
  105       -0.262389   0.000000
  106       -0.199967   0.000000
  107       -0.116466   0.000000
  108       -0.062044   0.000000
  109        0.120445   0.000000
  110        0.270319   0.000000
  111        0.302281   0.000000
  112        0.572080   0.000000
  113        0.737932   0.000000
  114        0.829281   0.000000
  115        0.918150   0.000000
  116        1.085830   0.000000
  117        1.146921   0.000000
  118        1.684719   0.000000
  119        1.876321   0.000000
  120        2.182920   0.000000
 
  0.1250000E+00  0.1250000E+00  0.0000000E+00  0.3125000E-01
    1      -17.720312   1.000000
    2      -16.927829   1.000000
    3      -16.743966   1.000000
    4      -16.690631   1.000000
    5      -16.491439   1.000000
    6      -16.403135   1.000000
    7      -16.364031   1.000000
    8      -16.270393   1.000000
    9      -16.235392   1.000000
   10      -16.087566   1.000000
   11      -15.992635   1.000000
   12      -15.941585   1.000000
   13      -15.799458   1.000000
   14      -15.625253   1.000000
   15      -15.588907   1.000000
   16      -15.445740   1.000000
   17      -15.378165   1.000000
   18      -15.273606   1.000000
   19       -9.419321   1.000000
   20       -9.317168   1.000000
   21       -9.157293   1.000000
   22       -9.000693   1.000000
   23       -8.895519   1.000000
   24       -8.684944   1.000000
   25       -8.667943   1.000000
   26       -8.502141   1.000000
   27       -8.448630   1.000000
   28       -8.381943   1.000000
   29       -8.321560   1.000000
   30       -8.222943   1.000000
   31       -8.147042   1.000000
   32       -8.111968   1.000000
   33       -7.909139   1.000000
   34       -7.805282   1.000000
   35       -7.739227   1.000000
   36       -7.693353   1.000000
   37       -7.596588   1.000000
   38       -7.474210   1.000000
   39       -7.419827   1.000000
   40       -7.355506   1.000000
   41       -7.288800   1.000000
   42       -7.242099   1.000000
   43       -7.148016   1.000000
   44       -7.045414   1.000000
   45       -6.893835   1.000000
   46       -6.850726   1.000000
   47       -6.771199   1.000000
   48       -6.653879   1.000000
   49       -6.613541   1.000000
   50       -6.485184   1.000000
   51       -6.423824   1.000000
   52       -6.324508   1.000000
   53       -6.268666   1.000000
   54       -6.222477   1.000000
   55       -6.182868   1.000000
   56       -6.118499   1.000000
   57       -5.969696   1.000000
   58       -5.928895   1.000000
   59       -5.744338   1.000000
   60       -5.664988   1.000000
   61       -5.520857   1.000000
   62       -5.456395   1.000000
   63       -5.426828   1.000000
   64       -5.342982   1.000000
   65       -5.155532   1.000000
   66       -5.110462   1.000000
   67       -4.954410   1.000000
   68       -4.897719   1.000000
   69       -4.779218   1.000000
   70       -4.649325   1.000000
   71       -4.585933   1.000000
   72       -4.439524   1.000000
   73       -4.306527   1.000000
   74       -4.282983   1.000000
   75       -4.182741   1.000000
   76       -4.046385   1.000000
   77       -3.963756   0.999993
   78       -3.878833   0.999915
   79       -3.592276   0.958377
   80       -3.401109   0.648177
   81       -3.018594   0.010052
   82       -2.854475   0.000246
   83       -2.716356   0.000004
   84       -2.651263   0.000000
   85       -2.504635   0.000000
   86       -2.427837   0.000000
   87       -2.361887   0.000000
   88       -2.235167   0.000000
   89       -2.123615   0.000000
   90       -2.102162   0.000000
   91       -1.988136   0.000000
   92       -1.405939   0.000000
   93       -1.326574   0.000000
   94       -1.183286   0.000000
   95       -1.108106   0.000000
   96       -1.068392   0.000000
   97       -0.963180   0.000000
   98       -0.918840   0.000000
   99       -0.860783   0.000000
  100       -0.790107   0.000000
  101       -0.723672   0.000000
  102       -0.605199   0.000000
  103       -0.555980   0.000000
  104       -0.485988   0.000000
  105       -0.334117   0.000000
  106       -0.198426   0.000000
  107       -0.149418   0.000000
  108       -0.094150   0.000000
  109        0.096714   0.000000
  110        0.268189   0.000000
  111        0.319580   0.000000
  112        0.531087   0.000000
  113        0.755420   0.000000
  114        0.829956   0.000000
  115        0.945771   0.000000
  116        1.133627   0.000000
  117        1.265514   0.000000
  118        1.771839   0.000000
  119        1.948665   0.000000
  120        2.253665   0.000000
 
  0.2500000E+00  0.1250000E+00  0.0000000E+00  0.3125000E-01
    1      -17.620769   1.000000
    2      -17.111989   1.000000
    3      -16.840384   1.000000
    4      -16.681168   1.000000
    5      -16.505909   1.000000
    6      -16.411039   1.000000
    7      -16.291933   1.000000
    8      -16.257277   1.000000
    9      -16.185424   1.000000
   10      -16.092919   1.000000
   11      -15.960304   1.000000
   12      -15.900025   1.000000
   13      -15.716590   1.000000
   14      -15.652536   1.000000
   15      -15.589550   1.000000
   16      -15.474037   1.000000
   17      -15.369993   1.000000
   18      -15.289689   1.000000
   19       -9.638878   1.000000
   20       -9.458185   1.000000
   21       -9.178957   1.000000
   22       -8.992438   1.000000
   23       -8.884792   1.000000
   24       -8.720464   1.000000
   25       -8.629632   1.000000
   26       -8.451229   1.000000
   27       -8.431282   1.000000
   28       -8.359557   1.000000
   29       -8.266779   1.000000
   30       -8.219349   1.000000
   31       -8.131617   1.000000
   32       -8.064126   1.000000
   33       -7.930343   1.000000
   34       -7.860243   1.000000
   35       -7.787946   1.000000
   36       -7.637569   1.000000
   37       -7.543850   1.000000
   38       -7.463092   1.000000
   39       -7.365877   1.000000
   40       -7.301739   1.000000
   41       -7.220679   1.000000
   42       -7.141032   1.000000
   43       -7.076568   1.000000
   44       -6.897675   1.000000
   45       -6.867428   1.000000
   46       -6.803826   1.000000
   47       -6.745767   1.000000