       N       E                     dE             d eps       ncg     rms          rms(c)
DAV:   1     0.112438794335E+04    0.11244E+04   -0.35864E+04  8160   0.577E+02
DAV:   2    -0.581653330432E+01   -0.11302E+04   -0.10909E+04 11240   0.173E+02
DAV:   3    -0.199995889805E+03   -0.19418E+03   -0.18685E+03 10880   0.817E+01
DAV:   4    -0.209081021930E+03   -0.90851E+01   -0.87919E+01 12080   0.260E+01
DAV:   5    -0.209404570734E+03   -0.32355E+00   -0.32272E+00 11240   0.368E+00    0.278E+01
DAV:   6    -0.241341728575E+03   -0.31937E+02   -0.11353E+02 12520   0.600E+01    0.607E+01
DAV:   7    -0.196113795429E+03    0.45228E+02   -0.18031E+02 13200   0.151E+02    0.198E+01
DAV:   8    -0.189359358047E+03    0.67544E+01   -0.18507E+01 12080   0.126E+01    0.123E+01
DAV:   9    -0.188082825184E+03    0.12765E+01   -0.30361E+00 13120   0.612E+00    0.891E+00
DAV:  10    -0.186949763385E+03    0.11331E+01   -0.15923E+00 13400   0.729E+00    0.205E+00
DAV:  11    -0.187052942287E+03   -0.10318E+00   -0.57666E-01 13280   0.337E+00    0.412E+00
DAV:  12    -0.186949608073E+03    0.10333E+00   -0.56918E-01 12880   0.413E+00    0.293E+00
DAV:  13    -0.186873987220E+03    0.75621E-01   -0.19904E-01 12320   0.238E+00    0.131E+00
DAV:  14    -0.186852636329E+03    0.21351E-01   -0.72026E-02 12440   0.121E+00    0.789E-01
DAV:  15    -0.186850669488E+03    0.19668E-02   -0.20494E-02 12480   0.705E-01    0.715E-01
DAV:  16    -0.186846701012E+03    0.39685E-02   -0.11214E-02 13000   0.484E-01    0.317E-01
DAV:  17    -0.186845436130E+03    0.12649E-02   -0.54727E-03 12680   0.337E-01    0.236E-01
DAV:  18    -0.186844820473E+03    0.61566E-03   -0.17146E-03 12560   0.202E-01    0.678E-02
DAV:  19    -0.186845211038E+03   -0.39057E-03   -0.64363E-04 10640   0.694E-02    0.890E-02
DAV:  20    -0.186845753386E+03   -0.54235E-03   -0.62661E-04  9520   0.763E-02    0.599E-02
DAV:  21    -0.186846549781E+03   -0.79640E-03   -0.22210E-04  8080   0.440E-02    0.394E-02
DAV:  22    -0.186847475607E+03   -0.92583E-03   -0.14931E-04  7480   0.442E-02    0.249E-02
DAV:  23    -0.186848555517E+03   -0.10799E-02   -0.87962E-05  7440   0.236E-02    0.119E-02
DAV:  24    -0.186849216946E+03   -0.66143E-03   -0.30639E-05  6440   0.173E-02    0.769E-03
DAV:  25    -0.186849581027E+03   -0.36408E-03   -0.13841E-05  6040   0.118E-02    0.255E-03
DAV:  26    -0.186849799661E+03   -0.21863E-03   -0.81114E-06  6840   0.614E-03    0.148E-03
DAV:  27    -0.186849873105E+03   -0.73443E-04   -0.31219E-06  7160   0.406E-03
   1 F= -.18684987E+03 E0= -.18667649E+03  d E =-.186850E+03
       N       E                     dE             d eps       ncg     rms          rms(c)
DAV:   1    -0.187532216976E+03   -0.68242E+00   -0.27394E+02  8160   0.351E+01    0.477E+00
DAV:   2    -0.190021635595E+03   -0.24894E+01   -0.21016E+01 12240   0.169E+01    0.131E+01
DAV:   3    -0.189244399453E+03    0.77724E+00   -0.59835E+00 12480   0.138E+01    0.561E+00
DAV:   4    -0.188849969489E+03    0.39443E+00   -0.63598E-01 12520   0.439E+00    0.333E+00
DAV:   5    -0.188857736306E+03   -0.77668E-02   -0.52646E-01 12000   0.412E+00    0.428E+00
DAV:   6    -0.188763187516E+03    0.94549E-01   -0.52778E-01 12240   0.329E+00    0.217E+00
DAV:   7    -0.188710465359E+03    0.52722E-01   -0.20263E-01 10600   0.133E+00    0.118E+00
DAV:   8    -0.188695759535E+03    0.14706E-01   -0.60670E-02 12320   0.100E+00    0.974E-01
DAV:   9    -0.188689893151E+03    0.58664E-02   -0.23996E-02 12520   0.835E-01    0.663E-01
DAV:  10    -0.188687281727E+03    0.26114E-02   -0.81481E-03 12080   0.434E-01    0.315E-01
DAV:  11    -0.188686417029E+03    0.86470E-03   -0.26380E-03 13080   0.224E-01    0.105E-01
DAV:  12    -0.188686420798E+03   -0.37688E-05   -0.98926E-04 11720   0.943E-02
   2 F= -.18868642E+03 E0= -.18854468E+03  d E =-.183655E+01
       N       E                     dE             d eps       ncg     rms          rms(c)
DAV:   1    -0.190635660763E+03   -0.19492E+01   -0.31709E+01  8960   0.143E+01    0.447E+00
DAV:   2    -0.190562266472E+03    0.73394E-01   -0.28062E+00 11480   0.917E+00    0.724E+00
DAV:   3    -0.190126071950E+03    0.43619E+00   -0.15280E+00 12320   0.846E+00    0.438E+00
DAV:   4    -0.189895625884E+03    0.23045E+00   -0.72889E-01 12680   0.439E+00    0.249E+00
DAV:   5    -0.189870666597E+03    0.24959E-01   -0.37559E-01 12240   0.304E+00    0.285E+00
DAV:   6    -0.189797307293E+03    0.73359E-01   -0.16057E-01 12560   0.247E+00    0.761E-01
DAV:   7    -0.189791408120E+03    0.58992E-02   -0.16261E-02 11640   0.612E-01    0.403E-01
DAV:   8    -0.189791418643E+03   -0.10522E-04   -0.67119E-03 12720   0.483E-01    0.377E-01
DAV:   9    -0.189790386406E+03    0.10322E-02   -0.25650E-03 11400   0.268E-01    0.128E-01
DAV:  10    -0.189790811753E+03   -0.42535E-03   -0.10509E-03 10720   0.111E-01    0.139E-01
DAV:  11    -0.189790499909E+03    0.31184E-03   -0.56713E-04  9760   0.864E-02    0.205E-02
DAV:  12    -0.189790523509E+03   -0.23600E-04   -0.71160E-05  7160   0.265E-02
   3 F= -.18979052E+03 E0= -.18967037E+03  d E =-.110410E+01
       N       E                     dE             d eps       ncg     rms          rms(c)
DAV:   1    -0.191368368269E+03   -0.15779E+01   -0.79176E+01  8160   0.202E+01    0.456E+00
DAV:   2    -0.191121193469E+03    0.24717E+00   -0.52620E+00 13280   0.671E+00    0.377E+00
DAV:   3    -0.191426190699E+03   -0.30500E+00   -0.14961E+00 12120   0.855E+00    0.797E+00
DAV:   4    -0.190989259594E+03    0.43693E+00   -0.20568E+00 11240   0.912E+00    0.365E+00
DAV:   5    -0.190980931273E+03    0.83283E-02   -0.71708E-01 11920   0.535E+00    0.362E+00
DAV:   6    -0.190806195096E+03    0.17474E+00   -0.22714E-01 12080   0.321E+00    0.704E-01
DAV:   7    -0.190806279557E+03   -0.84461E-04   -0.36063E-02 12440   0.834E-01    0.657E-01
DAV:   8    -0.190804453105E+03    0.18265E-02   -0.18062E-02 11800   0.850E-01    0.611E-01
DAV:   9    -0.190800868588E+03    0.35845E-02   -0.63523E-03 11520   0.513E-01    0.175E-01
DAV:  10    -0.190801176045E+03   -0.30746E-03   -0.15865E-03 11080   0.149E-01    0.125E-01
DAV:  11    -0.190800953211E+03    0.22283E-03   -0.67444E-04 10520   0.101E-01    0.418E-02
DAV:  12    -0.190800963213E+03   -0.10002E-04   -0.96171E-05  7200   0.342E-02
   4 F= -.19080096E+03 E0= -.19069775E+03  d E =-.101044E+01
       N       E                     dE             d eps       ncg     rms          rms(c)
DAV:   1    -0.192287301738E+03   -0.14863E+01   -0.17975E+02  8160   0.299E+01    0.591E+00
DAV:   2    -0.191995484588E+03    0.29182E+00   -0.98966E+00 11080   0.776E+00    0.398E+00
DAV:   3    -0.192421342858E+03   -0.42586E+00   -0.31156E+00 12120   0.109E+01    0.733E+00
DAV:   4    -0.191706603568E+03    0.71474E+00   -0.12027E+00 12240   0.855E+00    0.302E+00
DAV:   5    -0.191730918998E+03   -0.24315E-01   -0.59507E-01 11960   0.554E+00    0.463E+00
DAV:   6    -0.191543834742E+03    0.18708E+00   -0.55934E-01 12240   0.493E+00    0.117E+00
DAV:   7    -0.191543272487E+03    0.56226E-03   -0.80772E-02 11840   0.157E+00    0.120E+00
DAV:   8    -0.191531135301E+03    0.12137E-01   -0.41461E-02 11600   0.131E+00    0.534E-01
DAV:   9    -0.191527742159E+03    0.33931E-02   -0.75927E-03 11920   0.482E-01    0.161E-01
DAV:  10    -0.191527802249E+03   -0.60090E-04   -0.25563E-03 10480   0.147E-01    0.677E-02
DAV:  11    -0.191527832177E+03   -0.29928E-04   -0.34310E-04  9120   0.765E-02
   5 F= -.19152783E+03 E0= -.19143034E+03  d E =-.726869E+00
       N       E                     dE             d eps       ncg     rms          rms(c)
DAV:   1    -0.191586323934E+03   -0.58522E-01   -0.39318E+00  8160   0.424E+00    0.721E-01
DAV:   2    -0.191663037355E+03   -0.76713E-01   -0.29646E-01 12400   0.327E+00    0.256E+00
DAV:   3    -0.191594073221E+03    0.68964E-01   -0.11611E-01 12400   0.254E+00    0.369E-01
DAV:   4    -0.191597950561E+03   -0.38773E-02   -0.18611E-02 11640   0.843E-01    0.817E-01
DAV:   5    -0.191591872172E+03    0.60784E-02   -0.14747E-02 11640   0.776E-01    0.235E-01
DAV:   6    -0.191592278927E+03   -0.40675E-03   -0.48397E-03 11320   0.356E-01    0.319E-01
DAV:   7    -0.191591569608E+03    0.70932E-03   -0.40200E-03 11360   0.397E-01    0.193E-01
DAV:   8    -0.191591190073E+03    0.37954E-03   -0.86583E-04  9080   0.166E-01    0.414E-02
DAV:   9    -0.191591181857E+03    0.82157E-05   -0.97262E-05  6240   0.386E-02
   6 F= -.19159118E+03 E0= -.19149134E+03  d E =-.633497E-01
       N       E                     dE             d eps       ncg     rms          rms(c)
DAV:   1    -0.191677295221E+03   -0.86105E-01   -0.10486E+01  8160   0.682E+00    0.913E-01
DAV:   2    -0.191778145860E+03   -0.10085E+00   -0.39459E-01 12720   0.324E+00    0.292E+00
DAV:   3    -0.191689016808E+03    0.89129E-01   -0.19286E-01 12400   0.319E+00    0.705E-01
DAV:   4    -0.191693848124E+03   -0.48313E-02   -0.38129E-02 11560   0.116E+00    0.105E+00
DAV:   5    -0.191683474139E+03    0.10374E-01   -0.25764E-02 11640   0.101E+00    0.297E-01
DAV:   6    -0.191683494987E+03   -0.20848E-04   -0.56007E-03 11520   0.375E-01    0.319E-01
DAV:   7    -0.191683337956E+03    0.15703E-03   -0.60647E-03 11440   0.492E-01    0.312E-01
DAV:   8    -0.191682446228E+03    0.89173E-03   -0.22204E-03 10000   0.281E-01    0.672E-02
DAV:   9    -0.191682388758E+03    0.57470E-04   -0.20140E-04  6520   0.595E-02
   7 F= -.19168239E+03 E0= -.19158180E+03  d E =-.912069E-01
       N       E                     dE             d eps       ncg     rms          rms(c)
DAV:   1    -0.191713663709E+03   -0.31217E-01   -0.98543E-01  8160   0.215E+00    0.326E-01
DAV:   2    -0.191723741639E+03   -0.10078E-01   -0.49781E-02 12680   0.121E+00    0.967E-01
DAV:   3    -0.191714413173E+03    0.93285E-02   -0.19692E-02 12080   0.989E-01    0.241E-01
DAV:   4    -0.191715690448E+03   -0.12773E-02   -0.68662E-03 11440   0.503E-01    0.455E-01
DAV:   5    -0.191713638882E+03    0.20516E-02   -0.45747E-03 11040   0.427E-01    0.104E-01
DAV:   6    -0.191713599321E+03    0.39562E-04   -0.87385E-04  9840   0.114E-01
   8 F= -.19171360E+03 E0= -.19161306E+03  d E =-.312106E-01
       N       E                     dE             d eps       ncg     rms          rms(c)
DAV:   1    -0.191778213702E+03   -0.64575E-01   -0.46147E+00  8160   0.459E+00    0.581E-01
DAV:   2    -0.191820326755E+03   -0.42113E-01   -0.18052E-01 13440   0.232E+00    0.193E+00
DAV:   3    -0.191784705348E+03    0.35621E-01   -0.77215E-02 12400   0.195E+00    0.487E-01
DAV:   4    -0.191787224080E+03   -0.25187E-02   -0.19444E-02 11280   0.868E-01    0.701E-01
DAV:   5    -0.191782000436E+03    0.52236E-02   -0.96807E-03 11320   0.654E-01    0.149E-01
DAV:   6    -0.191782372899E+03   -0.37246E-03   -0.24321E-03 11560   0.231E-01    0.208E-01
DAV:   7    -0.191782164448E+03    0.20845E-03   -0.22892E-03 11160   0.319E-01    0.209E-01
DAV:   8    -0.191781717860E+03    0.44659E-03   -0.83761E-04  8480   0.186E-01    0.288E-02
DAV:   9    -0.191781725825E+03   -0.79650E-05   -0.67745E-05  6160   0.320E-02
   9 F= -.19178173E+03 E0= -.19168260E+03  d E =-.681265E-01
       N       E                     dE             d eps       ncg     rms          rms(c)
DAV:   1    -0.191798110067E+03   -0.16392E-01   -0.24442E-01  8160   0.106E+00    0.124E-01
DAV:   2    -0.191799598207E+03   -0.14881E-02   -0.86280E-03 12320   0.431E-01    0.350E-01
DAV:   3    -0.191798454463E+03    0.11437E-02   -0.29374E-03 11560   0.365E-01    0.111E-01
DAV:   4    -0.191798582816E+03   -0.12835E-03   -0.80142E-04  8680   0.184E-01    0.150E-01
DAV:   5    -0.191798341019E+03    0.24180E-03   -0.44061E-04  8120   0.154E-01    0.367E-02
DAV:   6    -0.191798360832E+03   -0.19813E-04   -0.10825E-04  6280   0.474E-02
  10 F= -.19179836E+03 E0= -.19169986E+03  d E =-.166350E-01
       N       E                     dE             d eps       ncg     rms          rms(c)
DAV:   1    -0.191762735223E+03    0.35606E-01   -0.12054E+00  8160   0.242E+00    0.387E-01
DAV:   2    -0.191768745096E+03   -0.60099E-02   -0.57175E-02 12560   0.105E+00    0.817E-01
DAV:   3    -0.191763440693E+03    0.53044E-02   -0.21473E-02 12400   0.966E-01    0.401E-01
DAV:   4    -0.191763170850E+03    0.26984E-03   -0.86023E-03 10720   0.564E-01    0.417E-01
DAV:   5    -0.191761712825E+03    0.14580E-02   -0.55525E-03 10240   0.521E-01    0.209E-01
DAV:   6    -0.191761366802E+03    0.34602E-03   -0.20192E-03 11440   0.251E-01    0.148E-01
DAV:   7    -0.191761284767E+03    0.82035E-04   -0.10294E-03  9160   0.215E-01    0.119E-01
DAV:   8    -0.191761155024E+03    0.12974E-03   -0.29843E-04  7360   0.110E-01    0.255E-02
DAV:   9    -0.191761154987E+03    0.37037E-07   -0.39899E-05  6520   0.269E-02
  11 F= -.19176115E+03 E0= -.19166145E+03  d E =0.372058E-01
       N       E                     dE             d eps       ncg     rms          rms(c)
DAV:   1    -0.191870990379E+03   -0.10984E+00   -0.10579E+01  8160   0.710E+00    0.909E-01
DAV:   2    -0.191932459046E+03   -0.61469E-01   -0.40435E-01 12760   0.291E+00    0.240E+00
DAV:   3    -0.191886808592E+03    0.45650E-01   -0.14194E-01 12360   0.256E+00    0.836E-01
DAV:   4    -0.191890760630E+03   -0.39520E-02   -0.42497E-02 12240   0.143E+00    0.109E+00
DAV:   5    -0.191877218717E+03    0.13542E-01   -0.24804E-02 11320   0.120E+00    0.325E-01
DAV:   6    -0.191878333258E+03   -0.11145E-02   -0.98945E-03 11640   0.558E-01    0.468E-01
DAV:   7    -0.191876593864E+03    0.17394E-02   -0.69854E-03 11600   0.599E-01    0.263E-01
DAV:   8    -0.191875784377E+03    0.80949E-03   -0.15473E-03  9920   0.241E-01    0.540E-02
DAV:   9    -0.191875741139E+03    0.43238E-04   -0.17316E-04  6760   0.501E-02
  12 F= -.19187574E+03 E0= -.19178075E+03  d E =-.114586E+00
       N       E                     dE             d eps       ncg     rms          rms(c)
DAV:   1    -0.191920708540E+03   -0.44924E-01   -0.16756E+00  8160   0.279E+00    0.320E-01
DAV:   2    -0.191927658256E+03   -0.69497E-02   -0.54609E-02 11880   0.949E-01    0.737E-01
DAV:   3    -0.191923494670E+03    0.41636E-02   -0.14930E-02 12480   0.845E-01    0.322E-01
DAV:   4    -0.191922994032E+03    0.50064E-03   -0.32339E-03 11440   0.382E-01    0.258E-01
DAV:   5    -0.191922402560E+03    0.59147E-03   -0.19024E-03 10560   0.360E-01    0.151E-01
DAV:   6    -0.191922410900E+03   -0.83401E-05   -0.11637E-03 10000   0.206E-01    0.139E-01
DAV:   7    -0.191922258598E+03    0.15230E-03   -0.70021E-04  8840   0.197E-01    0.107E-01
DAV:   8    -0.191922134342E+03    0.12426E-03   -0.22295E-04  6800   0.105E-01    0.161E-02
DAV:   9    -0.191922138023E+03   -0.36810E-05   -0.33297E-05  6240   0.227E-02
  13 F= -.19192214E+03 E0= -.19182943E+03  d E =-.463969E-01
       N       E                     dE             d eps       ncg     rms          rms(c)
DAV:   1    -0.191899931018E+03    0.22203E-01   -0.37119E-01  8160   0.134E+00    0.188E-01
DAV:   2    -0.191900829511E+03   -0.89849E-03   -0.14547E-02 11280   0.436E-01    0.277E-01
DAV:   3    -0.191900627599E+03    0.20191E-03   -0.34639E-03 12120   0.430E-01    0.255E-01
DAV:   4    -0.191900129703E+03    0.49790E-03   -0.18964E-03  9880   0.286E-01    0.157E-01
DAV:   5    -0.191899995805E+03    0.13390E-03   -0.93431E-04  9720   0.234E-01    0.115E-01
DAV:   6    -0.191899853374E+03    0.14243E-03   -0.39405E-04  8760   0.128E-01    0.359E-02
DAV:   7    -0.191899847459E+03    0.59152E-05   -0.91396E-05  6440   0.459E-02
  14 F= -.19189985E+03 E0= -.19180620E+03  d E =0.222906E-01
       N       E                     dE             d eps       ncg     rms          rms(c)
DAV:   1    -0.191901206195E+03   -0.13528E-02   -0.15819E-03  8440   0.977E-02    0.262E-02
DAV:   2    -0.191901391167E+03   -0.18497E-03   -0.37395E-04  9720   0.140E-01    0.134E-01
DAV:   3    -0.191901193712E+03    0.19746E-03   -0.24459E-04  6880   0.121E-01    0.753E-03
DAV:   4    -0.191901206352E+03   -0.12640E-04   -0.11000E-05  5840   0.124E-02
  15 F= -.19190121E+03 E0= -.19180767E+03  d E =-.135889E-02
       N       E                     dE             d eps       ncg     rms          rms(c)
DAV:   1    -0.191852238480E+03    0.48955E-01   -0.32306E+00  8160   0.388E+00    0.580E-01
DAV:   2    -0.191900355084E+03   -0.48117E-01   -0.17688E-01 12280   0.234E+00    0.221E+00
DAV:   3    -0.191856613496E+03    0.43742E-01   -0.89435E-02 12120   0.206E+00    0.359E-01
DAV:   4    -0.191857568195E+03   -0.95470E-03   -0.88451E-03 11480   0.619E-01    0.523E-01
DAV:   5    -0.191855174359E+03    0.23938E-02   -0.71482E-03 11120   0.601E-01    0.270E-01
DAV:   6    -0.191855443331E+03   -0.26897E-03   -0.44311E-03 11480   0.402E-01    0.307E-01
DAV:   7    -0.191854752453E+03    0.69088E-03   -0.30721E-03 11480   0.391E-01    0.155E-01
DAV:   8    -0.191854389411E+03    0.36304E-03   -0.54478E-04  9240   0.138E-01    0.231E-02
DAV:   9    -0.191854392127E+03   -0.27158E-05   -0.67067E-05  7440   0.282E-02
  16 F= -.19185439E+03 E0= -.19175745E+03  d E =0.468142E-01
       N       E                     dE             d eps       ncg     rms          rms(c)
DAV:   1    -0.191917388174E+03   -0.62999E-01   -0.43579E+00  8160   0.445E+00    0.505E-01
DAV:   2    -0.191936524850E+03   -0.19137E-01   -0.18012E-01 11720   0.144E+00    0.992E-01
DAV:   3    -0.191931588725E+03    0.49361E-02   -0.40305E-02 12320   0.133E+00    0.652E-01
DAV:   4    -0.191927082491E+03    0.45062E-02   -0.67840E-03 12040   0.530E-01    0.196E-01
DAV:   5    -0.191928132599E+03   -0.10501E-02   -0.40505E-03 12640   0.462E-01    0.397E-01
DAV:   6    -0.191927032006E+03    0.11006E-02   -0.41536E-03 12280   0.456E-01    0.176E-01
DAV:   7    -0.191926629985E+03    0.40202E-03   -0.10708E-03 10040   0.188E-01    0.768E-02
DAV:   8    -0.191926574044E+03    0.55941E-04   -0.19300E-04  8160   0.102E-01
  17 F= -.19192657E+03 E0= -.19183308E+03  d E =-.721819E-01
       N       E                     dE             d eps       ncg     rms          rms(c)
DAV:   1    -0.191960858440E+03   -0.34228E-01   -0.10716E+00  8160   0.225E+00    0.271E-01
DAV:   2    -0.191964837026E+03   -0.39786E-02   -0.36821E-02 11680   0.724E-01    0.565E-01
DAV:   3    -0.191962729311E+03    0.21077E-02   -0.99255E-03 12400   0.688E-01    0.298E-01
DAV:   4    -0.191961813178E+03    0.91613E-03   -0.18812E-03 11320   0.275E-01    0.126E-01
DAV:   5    -0.191961963380E+03   -0.15020E-03   -0.10740E-03 10560   0.267E-01    0.181E-01
DAV:   6    -0.191961702209E+03    0.26117E-03   -0.91862E-04 10200   0.220E-01    0.925E-02
DAV:   7    -0.191961646565E+03    0.55644E-04   -0.32969E-04  7800   0.135E-01
  18 F= -.19196165E+03 E0= -.19186972E+03  d E =-.350725E-01
       N       E                     dE             d eps       ncg     rms          rms(c)
DAV:   1    -0.192037258890E+03   -0.75557E-01   -0.56282E+00  8160   0.513E+00    0.571E-01
DAV:   2    -0.192051747945E+03   -0.14489E-01   -0.17307E-01 12200   0.134E+00    0.875E-01
DAV:   3    -0.192050421969E+03    0.13260E-02   -0.36813E-02 12360   0.140E+00    0.786E-01
DAV:   4    -0.192043679761E+03    0.67422E-02   -0.91808E-03 12280   0.681E-01    0.218E-01
DAV:   5    -0.192043968487E+03   -0.28873E-03   -0.41426E-03 11960   0.414E-01    0.292E-01
DAV:   6    -0.192043702079E+03    0.26641E-03   -0.35380E-03 11480   0.488E-01    0.251E-01
DAV:   7    -0.192042910021E+03    0.79206E-03   -0.14035E-03  9840   0.271E-01    0.897E-02
DAV:   8    -0.192042856126E+03    0.53896E-04   -0.25279E-04  7880   0.118E-01
  19 F= -.19204286E+03 E0= -.19195388E+03  d E =-.812096E-01
       N       E                     dE             d eps       ncg     rms          rms(c)
DAV:   1    -0.192053536839E+03   -0.10627E-01   -0.96235E-02  8160   0.683E-01    0.894E-02
DAV:   2    -0.192053690296E+03   -0.15346E-03   -0.33408E-03 10560   0.159E-01    0.830E-02
DAV:   3    -0.192053808057E+03   -0.11776E-03   -0.70556E-04 11440   0.201E-01    0.144E-01
DAV:   4    -0.192053606317E+03    0.20174E-03   -0.36397E-04  8000   0.153E-01    0.535E-02
DAV:   5    -0.192053611687E+03   -0.53695E-05   -0.12310E-04  6400   0.945E-02
  20 F= -.19205361E+03 E0= -.19196499E+03  d E =-.107556E-01
       N       E                     dE             d eps       ncg     rms          rms(c)
DAV:   1    -0.192068339585E+03   -0.14733E-01   -0.28916E-01  8160   0.116E+00    0.150E-01
DAV:   2    -0.192070219566E+03   -0.18800E-02   -0.12109E-02 11520   0.491E-01    0.354E-01
DAV:   3    -0.192068895069E+03    0.13245E-02   -0.29894E-03 12080   0.441E-01    0.120E-01
DAV:   4    -0.192068909240E+03   -0.14172E-04   -0.53952E-04  8600   0.177E-01
  21 F= -.19206891E+03 E0= -.19198012E+03  d E =-.152976E-01
       N       E                     dE             d eps       ncg     rms          rms(c)
DAV:   1    -0.192067500038E+03    0.13950E-02   -0.15491E-02  8160   0.325E-01    0.614E-02
DAV:   2    -0.192068067099E+03   -0.56706E-03   -0.14985E-03 11880   0.269E-01    0.211E-01
DAV:   3    -0.192067515404E+03    0.55169E-03   -0.70090E-04  9400   0.231E-01    0.345E-02
DAV:   4    -0.192067548848E+03   -0.33444E-04   -0.84190E-05  5800   0.720E-02
  22 F= -.19206755E+03 E0= -.19197926E+03  d E =0.136039E-02
       N       E                     dE             d eps       ncg     rms          rms(c)
DAV:   1    -0.192125090660E+03   -0.57575E-01   -0.37698E+00  8160   0.418E+00    0.473E-01
DAV:   2    -0.192130899730E+03   -0.58091E-02   -0.11194E-01 11160   0.100E+00    0.382E-01
DAV:   3    -0.192132609226E+03   -0.17095E-02   -0.12032E-02 12200   0.898E-01    0.561E-01
DAV:   4    -0.192128930001E+03    0.36792E-02   -0.67945E-03 11840   0.726E-01    0.227E-01
DAV:   5    -0.192129272082E+03   -0.34208E-03   -0.33758E-03 12280   0.399E-01    0.313E-01
DAV:   6    -0.192128558617E+03    0.71346E-03   -0.26537E-03 11880   0.427E-01    0.169E-01
DAV:   7    -0.192128213523E+03    0.34509E-03   -0.69897E-04  8840   0.168E-01    0.436E-02
DAV:   8    -0.192128223396E+03   -0.98735E-05   -0.12125E-04  6760   0.829E-02
  23 F= -.19212822E+03 E0= -.19204204E+03  d E =-.606745E-01
       N       E                     dE             d eps       ncg     rms          rms(c)
DAV:   1    -0.192125015446E+03    0.31981E-02   -0.69016E-01  8160   0.186E+00    0.329E-01
DAV:   2    -0.192126368599E+03   -0.13532E-02   -0.28466E-02 11840   0.692E-01    0.542E-01
DAV:   3    -0.192124843093E+03    0.15255E-02   -0.11492E-02 12360   0.832E-01    0.419E-01
DAV:   4    -0.192122968759E+03    0.18743E-02   -0.38941E-03 11040   0.417E-01    0.149E-01
DAV:   5    -0.192122958045E+03    0.10714E-04   -0.19994E-03 11080   0.296E-01    0.195E-01
DAV:   6    -0.192122514269E+03    0.44378E-03   -0.95646E-04  9840   0.263E-01    0.728E-02
DAV:   7    -0.192122448305E+03    0.65963E-04   -0.20770E-04  7160   0.947E-02
  24 F= -.19212245E+03 E0= -.19203506E+03  d E =0.577509E-02
       N       E                     dE             d eps       ncg     rms          rms(c)
DAV:   1    -0.192179830038E+03   -0.57316E-01   -0.35342E+00  8160   0.406E+00    0.472E-01
DAV:   2    -0.192187715005E+03   -0.78850E-02   -0.11244E-01 11880   0.981E-01    0.515E-01
DAV:   3    -0.192188006857E+03   -0.29185E-03   -0.17287E-02 12080   0.108E+00    0.591E-01
DAV:   4    -0.192183919243E+03    0.40876E-02   -0.65877E-03 11920   0.666E-01    0.226E-01
DAV:   5    -0.192184304591E+03   -0.38535E-03   -0.30545E-03 11640   0.454E-01    0.319E-01
DAV:   6    -0.192183515711E+03    0.78888E-03   -0.23383E-03 11240   0.387E-01    0.134E-01
DAV:   7    -0.192183245334E+03    0.27038E-03   -0.72249E-04 10200   0.157E-01    0.657E-02
DAV:   8    -0.192183216651E+03    0.28683E-04   -0.15678E-04  7600   0.996E-02
  25 F= -.19218322E+03 E0= -.19209586E+03  d E =-.607683E-01
       N       E                     dE             d eps       ncg     rms          rms(c)
DAV:   1    -0.192247308331E+03   -0.64063E-01   -0.40879E+00  8160   0.443E+00    0.556E-01
DAV:   2    -0.192252507129E+03   -0.51988E-02   -0.13380E-01 12000   0.952E-01    0.397E-01
DAV:   3    -0.192258096901E+03   -0.55898E-02   -0.19795E-02 11880   0.107E+00    0.907E-01
DAV:   4    -0.192249685256E+03    0.84116E-02   -0.13449E-02 11440   0.957E-01    0.236E-01
DAV:   5    -0.192250008374E+03   -0.32312E-03   -0.41662E-03 11360   0.457E-01    0.306E-01
DAV:   6    -0.192249076310E+03    0.93206E-03   -0.26824E-03 11680   0.453E-01    0.150E-01
DAV:   7    -0.192248757781E+03    0.31853E-03   -0.60856E-04  9360   0.181E-01    0.388E-02
DAV:   8    -0.192248737878E+03    0.19903E-04   -0.11326E-04  7560   0.455E-02
  26 F= -.19224874E+03 E0= -.19216071E+03  d E =-.655212E-01
       N       E                     dE             d eps       ncg     rms          rms(c)
DAV:   1    -0.192329716112E+03   -0.80958E-01   -0.97611E+00  8160   0.673E+00    0.770E-01
DAV:   2    -0.192353406009E+03   -0.23690E-01   -0.29961E-01 11920   0.173E+00    0.951E-01
DAV:   3    -0.192349859607E+03    0.35464E-02   -0.46795E-02 12360   0.177E+00    0.853E-01
DAV:   4    -0.192341323897E+03    0.85357E-02   -0.16023E-02 11920   0.995E-01    0.369E-01
DAV:   5    -0.192342286927E+03   -0.96303E-03   -0.83902E-03 12720   0.794E-01    0.501E-01
DAV:   6    -0.192339991920E+03    0.22950E-02   -0.59982E-03 12440   0.609E-01    0.172E-01
DAV:   7    -0.192339378301E+03    0.61362E-03   -0.14738E-03 10440   0.173E-01    0.416E-02
DAV:   8    -0.192339367908E+03    0.10393E-04   -0.19391E-04  7960   0.492E-02
  27 F= -.19233937E+03 E0= -.19225010E+03  d E =-.906300E-01
       N       E                     dE             d eps       ncg     rms          rms(c)
DAV:   1    -0.192385352478E+03   -0.45974E-01   -0.37388E+00  8160   0.420E+00    0.538E-01
DAV:   2    -0.192392809826E+03   -0.74573E-02   -0.13856E-01 11560   0.106E+00    0.496E-01
DAV:   3    -0.192396489826E+03   -0.36800E-02   -0.23183E-02 12360   0.122E+00    0.819E-01
DAV:   4    -0.192388897495E+03    0.75923E-02   -0.11029E-02 11920   0.888E-01    0.200E-01
DAV:   5    -0.192389218085E+03   -0.32059E-03   -0.36720E-03 11040   0.419E-01    0.286E-01
DAV:   6    -0.192388424011E+03    0.79407E-03   -0.25511E-03 12120   0.435E-01    0.149E-01
DAV:   7    -0.192388118723E+03    0.30529E-03   -0.63372E-04  9920   0.181E-01    0.429E-02
DAV:   8    -0.192388102629E+03    0.16094E-04   -0.10036E-04  7800   0.650E-02
  28 F= -.19238810E+03 E0= -.19229771E+03  d E =-.487347E-01
       N       E                     dE             d eps       ncg     rms          rms(c)
DAV:   1    -0.192411645225E+03   -0.23527E-01   -0.13964E+00  8160   0.251E+00    0.348E-01
DAV:   2    -0.192419810590E+03   -0.81654E-02   -0.59865E-02 10440   0.122E+00    0.725E-01
DAV:   3    -0.192413803469E+03    0.60071E-02   -0.12992E-02 12360   0.959E-01    0.222E-01
DAV:   4    -0.192413284845E+03    0.51862E-03   -0.20632E-03 11480   0.311E-01    0.174E-01
DAV:   5    -0.192413383502E+03   -0.98658E-04   -0.15547E-03 11080   0.356E-01    0.209E-01
DAV:   6    -0.192412921235E+03    0.46227E-03   -0.11106E-03 10360   0.251E-01    0.585E-02
DAV:   7    -0.192412865862E+03    0.55372E-04   -0.18556E-04  6160   0.622E-02
  29 F= -.19241287E+03 E0= -.19232271E+03  d E =-.247632E-01
       N       E                     dE             d eps       ncg     rms          rms(c)
DAV:   1    -0.192428062792E+03   -0.15142E-01   -0.59109E-01  8160   0.168E+00    0.248E-01
DAV:   2    -0.192428867980E+03   -0.80519E-03   -0.25276E-02 10440   0.455E-01    0.201E-01
DAV:   3    -0.192429676166E+03   -0.80819E-03   -0.40258E-03 12280   0.529E-01    0.356E-01
DAV:   4    -0.192428168486E+03    0.15077E-02   -0.21877E-03 12040   0.426E-01    0.934E-02
DAV:   5    -0.192428058199E+03    0.11029E-03   -0.61331E-04  9840   0.111E-01    0.523E-02
DAV:   6    -0.192428033353E+03    0.24846E-04   -0.23048E-04  8200   0.911E-02
  30 F= -.19242803E+03 E0= -.19233754E+03  d E =-.151675E-01
       N       E                     dE             d eps       ncg     rms          rms(c)
DAV:   1    -0.192445040301E+03   -0.16982E-01   -0.12867E+00  8160   0.240E+00    0.290E-01
DAV:   2    -0.192450241776E+03   -0.52015E-02   -0.49357E-02 11160   0.853E-01    0.477E-01
DAV:   3    -0.192448074901E+03    0.21669E-02   -0.83662E-03 12200   0.748E-01    0.250E-01
DAV:   4    -0.192447335983E+03    0.73892E-03   -0.16103E-03 10320   0.299E-01    0.121E-01
DAV:   5    -0.192447470524E+03   -0.13454E-03   -0.94244E-04 11440   0.272E-01    0.169E-01
DAV:   6    -0.192447215414E+03    0.25511E-03   -0.77672E-04  9400   0.216E-01    0.626E-02
DAV:   7    -0.192447142318E+03    0.73097E-04   -0.18123E-04  6560   0.655E-02
  31 F= -.19244714E+03 E0= -.19235675E+03  d E =-.191090E-01
       N       E                     dE             d eps       ncg     rms          rms(c)
DAV:   1    -0.192458040173E+03   -0.10825E-01   -0.61228E-01  8160   0.170E+00    0.244E-01
DAV:   2    -0.192459096910E+03   -0.10567E-02   -0.26973E-02 11080   0.476E-01    0.202E-01
DAV:   3    -0.192459859338E+03   -0.76243E-03   -0.40139E-03 12240   0.531E-01    0.347E-01
DAV:   4    -0.192458399710E+03    0.14596E-02   -0.20747E-03 11120   0.415E-01    0.884E-02
DAV:   5    -0.192458305792E+03    0.93918E-04   -0.57231E-04  9720   0.107E-01
  32 F= -.19245831E+03 E0= -.19236778E+03  d E =-.111635E-01
       N       E                     dE             d eps       ncg     rms          rms(c)
DAV:   1    -0.192466995693E+03   -0.85960E-02   -0.63807E-01  8160   0.169E+00    0.199E-01
DAV:   2    -0.192468975441E+03   -0.19797E-02   -0.24406E-02 10720   0.524E-01    0.252E-01
DAV:   3    -0.192468871195E+03    0.10425E-03   -0.32595E-03 12840   0.482E-01    0.236E-01
DAV:   4    -0.192468205218E+03    0.66598E-03   -0.11473E-03 10160   0.277E-01    0.799E-02
DAV:   5    -0.192468294565E+03   -0.89347E-04   -0.49201E-04  9200   0.181E-01
  33 F= -.19246829E+03 E0= -.19237828E+03  d E =-.998877E-02
       N       E                     dE             d eps       ncg     rms          rms(c)
DAV:   1    -0.192477083735E+03   -0.88785E-02   -0.37783E+00  8160   0.411E+00    0.456E-01
DAV:   2    -0.192488624414E+03   -0.11541E-01   -0.14852E-01 12080   0.110E+00    0.458E-01
DAV:   3    -0.192490011304E+03   -0.13869E-02   -0.16126E-02 12320   0.106E+00    0.584E-01
DAV:   4    -0.192485625273E+03    0.43860E-02   -0.59028E-03 12320   0.671E-01    0.156E-01
DAV:   5    -0.192486636495E+03   -0.10112E-02   -0.28616E-03 12560   0.453E-01    0.325E-01
DAV:   6    -0.192485390123E+03    0.12464E-02   -0.20365E-03 10760   0.378E-01    0.614E-02
DAV:   7    -0.192485324314E+03    0.65808E-04   -0.18591E-04  6320   0.680E-02
  34 F= -.19248532E+03 E0= -.19239652E+03  d E =-.170297E-01
       N       E                     dE             d eps       ncg     rms          rms(c)
DAV:   1    -0.192484640819E+03    0.74930E-03   -0.11128E-01  8160   0.745E-01    0.144E-01
DAV:   2    -0.192485396642E+03   -0.75582E-03   -0.68081E-03 10200   0.455E-01    0.290E-01
DAV:   3    -0.192484508049E+03    0.88859E-03   -0.20636E-03 11160   0.391E-01    0.106E-01
DAV:   4    -0.192484352521E+03    0.15553E-03   -0.47961E-04  8920   0.154E-01    0.789E-02
DAV:   5    -0.192484345563E+03    0.69584E-05   -0.34478E-04  8360   0.162E-01
  35 F= -.19248435E+03 E0= -.19239509E+03  d E =0.978752E-03
       N       E                     dE             d eps       ncg     rms          rms(c)
DAV:   1    -0.192486976056E+03   -0.26235E-02   -0.21727E-01  8160   0.985E-01    0.114E-01
DAV:   2    -0.192487452306E+03   -0.47625E-03   -0.80852E-03 12080   0.254E-01    0.782E-02
DAV:   3    -0.192487559912E+03   -0.10761E-03   -0.65422E-04 11160   0.201E-01    0.133E-01
DAV:   4    -0.192487338369E+03    0.22154E-03   -0.37750E-04  9360   0.177E-01    0.450E-02
DAV:   5    -0.192487344848E+03   -0.64794E-05   -0.11448E-04  6200   0.774E-02
  36 F= -.19248734E+03 E0= -.19239863E+03  d E =-.299929E-02
       N       E                     dE             d eps       ncg     rms          rms(c)
DAV:   1    -0.192488636195E+03   -0.12978E-02   -0.42960E-02  8160   0.444E-01    0.772E-02
DAV:   2    -0.192489155791E+03   -0.51960E-03   -0.25306E-03 11160   0.297E-01    0.201E-01
DAV:   3    -0.192488664715E+03    0.49108E-03   -0.78708E-04 10080   0.244E-01    0.416E-02
DAV:   4    -0.192488661652E+03    0.30629E-05   -0.74593E-05  5760   0.694E-02
  37 F= -.19248866E+03 E0= -.19240026E+03  d E =-.131680E-02
       N       E                     dE             d eps       ncg     rms          rms(c)
DAV:   1    -0.192491416095E+03   -0.27514E-02   -0.40003E-01  8160   0.134E+00    0.150E-01
DAV:   2    -0.192492446902E+03   -0.10308E-02   -0.14382E-02 11680   0.361E-01    0.152E-01
DAV:   3    -0.192492614855E+03   -0.16795E-03   -0.16539E-03 12320   0.343E-01    0.197E-01
DAV:   4    -0.192492126959E+03    0.48790E-03   -0.68562E-04 10160   0.226E-01    0.501E-02
DAV:   5    -0.192492174569E+03   -0.47610E-04   -0.22394E-04  7360   0.104E-01
  38 F= -.19249217E+03 E0= -.19240489E+03  d E =-.351292E-02
       N       E                     dE             d eps       ncg     rms          rms(c)
DAV:   1    -0.192493908583E+03   -0.17816E-02   -0.25176E-01  8160   0.107E+00    0.112E-01
DAV:   2    -0.192494555602E+03   -0.64702E-03   -0.91501E-03 12200   0.248E-01    0.795E-02
DAV:   3    -0.192494725072E+03   -0.16947E-03   -0.74508E-04 11600   0.210E-01    0.145E-01
DAV:   4    -0.192494461136E+03    0.26394E-03   -0.35557E-04  8800   0.172E-01    0.389E-02
DAV:   5    -0.192494494553E+03   -0.33417E-04   -0.13007E-04  5880   0.806E-02
  39 F= -.19249449E+03 E0= -.19240803E+03  d E =-.231998E-02
       N       E                     dE             d eps       ncg     rms          rms(c)
DAV:   1    -0.192495940944E+03   -0.14798E-02   -0.19821E-01  8160   0.948E-01    0.105E-01
DAV:   2    -0.192496438584E+03   -0.49764E-03   -0.71951E-03 12200   0.230E-01    0.872E-02
DAV:   3    -0.192496495068E+03   -0.56483E-04   -0.73729E-04 11120   0.205E-01
  40 F= -.19249650E+03 E0= -.19241052E+03  d E =-.200051E-02
       N       E                     dE             d eps       ncg     rms          rms(c)
DAV:   1    -0.192496358511E+03    0.80074E-04   -0.39998E-04  9040   0.159E-01    0.496E-02
DAV:   2    -0.192496593636E+03   -0.23513E-03   -0.56417E-04  9200   0.192E-01    0.142E-01
DAV:   3    -0.192496328487E+03    0.26515E-03   -0.35378E-04  8640   0.177E-01    0.342E-02
DAV:   4    -0.192496321303E+03    0.71842E-05   -0.46789E-05  5760   0.427E-02
  41 F= -.19249632E+03 E0= -.19241044E+03  d E =0.173765E-03
       N       E                     dE             d eps       ncg     rms          rms(c)
DAV:   1    -0.192497178959E+03   -0.85047E-03   -0.73736E-02  8160   0.573E-01    0.653E-02
DAV:   2    -0.192497491512E+03   -0.31255E-03   -0.25950E-03 11880   0.205E-01    0.119E-01
DAV:   3    -0.192497333975E+03    0.15754E-03   -0.40985E-04  8840   0.176E-01    0.480E-02
DAV:   4    -0.192497308124E+03    0.25851E-04   -0.53007E-05  5920   0.568E-02
  42 F= -.19249731E+03 E0= -.19241191E+03  d E =-.986821E-03
