<?xml version="1.0" encoding="ISO-8859-1"?>
<modeling>
 <generator>
  <i name="program" type="string">vasp </i>
  <i name="version" type="string">5.4.1  </i>
  <i name="subversion" type="string">05Feb16 (build Jul 05 2020 17:13:04) complex                          parallel </i>
  <i name="platform" type="string">IFC91_ompi </i>
  <i name="date" type="string">2024 04 26 </i>
  <i name="time" type="string">18:49:10 </i>
 </generator>
 <incar>
  <i type="int" name="ISTART">     0</i>
  <i type="string" name="PREC">normal</i>
  <i type="string" name="ALGO"> Normal</i>
  <i type="int" name="ISPIN">     1</i>
  <i type="int" name="ICHARG">     2</i>
  <i type="int" name="IBRION">     1</i>
  <i type="int" name="NSW">   100</i>
  <i type="int" name="ISIF">     3</i>
  <i type="int" name="ISYM">     0</i>
  <i name="SYMPREC">      0.00000001</i>
  <i name="POTIM">      0.50000000</i>
  <i type="logical" name="LREAL"> F  </i>
  <i type="logical" name="LPLANE"> F  </i>
  <i type="int" name="ISMEAR">     0</i>
  <i type="logical" name="LWAVE"> F  </i>
  <i type="logical" name="LCHARG"> F  </i>
  <v type="int" name="KPOINT_BSE">    -1     0     0     0</v>
 </incar>
 <kpoints>
  <generation param="Gamma">
   <v type="int" name="divisions">       8        8        1 </v>
   <v name="usershift">      0.00000000       0.00000000       0.00000000 </v>
   <v name="genvec1">      0.12500000       0.00000000       0.00000000 </v>
   <v name="genvec2">     -0.00000000       0.12500000       0.00000000 </v>
   <v name="genvec3">      0.00000000       0.00000000       1.00000000 </v>
   <v name="shift">      0.00000000       0.00000000       0.00000000 </v>
  </generation>
  <varray name="kpointlist" >
   <v>       0.00000000       0.00000000       0.00000000 </v>
   <v>       0.12500000       0.00000000       0.00000000 </v>
   <v>       0.25000000       0.00000000       0.00000000 </v>
   <v>       0.37500000       0.00000000       0.00000000 </v>
   <v>       0.50000000       0.00000000       0.00000000 </v>
   <v>       0.00000000       0.12500000       0.00000000 </v>
   <v>       0.12500000       0.12500000       0.00000000 </v>
   <v>       0.25000000       0.12500000       0.00000000 </v>
   <v>       0.37500000       0.12500000       0.00000000 </v>
   <v>       0.50000000       0.12500000       0.00000000 </v>
   <v>      -0.37500000       0.12500000       0.00000000 </v>
   <v>      -0.25000000       0.12500000       0.00000000 </v>
   <v>      -0.12500000       0.12500000       0.00000000 </v>
   <v>       0.00000000       0.25000000       0.00000000 </v>
   <v>       0.12500000       0.25000000       0.00000000 </v>
   <v>       0.25000000       0.25000000       0.00000000 </v>
   <v>       0.37500000       0.25000000       0.00000000 </v>
   <v>       0.50000000       0.25000000       0.00000000 </v>
   <v>      -0.37500000       0.25000000       0.00000000 </v>
   <v>      -0.25000000       0.25000000       0.00000000 </v>
   <v>      -0.12500000       0.25000000       0.00000000 </v>
   <v>      -0.00000000       0.37500000       0.00000000 </v>
   <v>       0.12500000       0.37500000       0.00000000 </v>
   <v>       0.25000000       0.37500000       0.00000000 </v>
   <v>       0.37500000       0.37500000       0.00000000 </v>
   <v>       0.50000000       0.37500000       0.00000000 </v>
   <v>      -0.37500000       0.37500000       0.00000000 </v>
   <v>      -0.25000000       0.37500000       0.00000000 </v>
   <v>      -0.12500000       0.37500000       0.00000000 </v>
   <v>       0.00000000       0.50000000       0.00000000 </v>
   <v>       0.12500000       0.50000000       0.00000000 </v>
   <v>       0.25000000       0.50000000       0.00000000 </v>
   <v>       0.37500000       0.50000000       0.00000000 </v>
   <v>       0.50000000       0.50000000       0.00000000 </v>
  </varray>
  <varray name="weights" >
   <v>       0.01562500 </v>
   <v>       0.03125000 </v>
   <v>       0.03125000 </v>
   <v>       0.03125000 </v>
   <v>       0.01562500 </v>
   <v>       0.03125000 </v>
   <v>       0.03125000 </v>
   <v>       0.03125000 </v>
   <v>       0.03125000 </v>
   <v>       0.03125000 </v>
   <v>       0.03125000 </v>
   <v>       0.03125000 </v>
   <v>       0.03125000 </v>
   <v>       0.03125000 </v>
   <v>       0.03125000 </v>
   <v>       0.03125000 </v>
   <v>       0.03125000 </v>
   <v>       0.03125000 </v>
   <v>       0.03125000 </v>
   <v>       0.03125000 </v>
   <v>       0.03125000 </v>
   <v>       0.03125000 </v>
   <v>       0.03125000 </v>
   <v>       0.03125000 </v>
   <v>       0.03125000 </v>
   <v>       0.03125000 </v>
   <v>       0.03125000 </v>
   <v>       0.03125000 </v>
   <v>       0.03125000 </v>
   <v>       0.01562500 </v>
   <v>       0.03125000 </v>
   <v>       0.03125000 </v>
   <v>       0.03125000 </v>
   <v>       0.01562500 </v>
  </varray>
 </kpoints>
 <parameters>
  <separator name="general" >
   <i type="string" name="SYSTEM">unknown system</i>
   <i type="logical" name="LCOMPAT"> F  </i>
  </separator>
  <separator name="electronic" >
   <i type="string" name="PREC">normal</i>
   <i name="ENMAX">    280.00000000</i>
   <i name="ENAUG">    373.43800000</i>
   <i name="EDIFF">      0.00010000</i>
   <i type="int" name="IALGO">    38</i>
   <i type="int" name="IWAVPR">    11</i>
   <i type="int" name="NBANDS">   120</i>
   <i name="NELECT">    159.00000000</i>
   <i type="int" name="TURBO">     0</i>
   <i type="int" name="IRESTART">     0</i>
   <i type="int" name="NREBOOT">     0</i>
   <i type="int" name="NMIN">     0</i>
   <i name="EREF">      0.00000000</i>
   <separator name="electronic smearing" >
    <i type="int" name="ISMEAR">     0</i>
    <i name="SIGMA">      0.20000000</i>
    <i name="KSPACING">      0.50000000</i>
    <i type="logical" name="KGAMMA"> T  </i>
   </separator>
   <separator name="electronic projectors" >
    <i type="logical" name="LREAL"> F  </i>
    <v name="ROPT">      0.00000000      0.00000000      0.00000000      0.00000000</v>
    <i type="int" name="LMAXPAW">  -100</i>
    <i type="int" name="LMAXMIX">     2</i>
    <i type="logical" name="NLSPLINE"> F  </i>
   </separator>
   <separator name="electronic startup" >
    <i type="int" name="ISTART">     0</i>
    <i type="int" name="ICHARG">     2</i>
    <i type="int" name="INIWAV">     1</i>
   </separator>
   <separator name="electronic spin" >
    <i type="int" name="ISPIN">     1</i>
    <i type="logical" name="LNONCOLLINEAR"> F  </i>
    <v name="MAGMOM">      1.00000000      1.00000000      1.00000000      1.00000000      1.00000000      1.00000000      1.00000000      1.00000000      1.00000000      1.00000000      1.00000000      1.00000000      1.00000000      1.00000000      1.00000000      1.00000000      1.00000000      1.00000000      1.00000000      1.00000000
      1.00000000      1.00000000      1.00000000      1.00000000      1.00000000      1.00000000      1.00000000</v>
    <i name="NUPDOWN">     -1.00000000</i>
    <i type="logical" name="LSORBIT"> F  </i>
    <v name="SAXIS">      0.00000000      0.00000000      1.00000000</v>
    <i type="logical" name="LSPIRAL"> F  </i>
    <v name="QSPIRAL">      0.00000000      0.00000000      0.00000000</v>
    <i type="logical" name="LZEROZ"> F  </i>
   </separator>
   <separator name="electronic exchange-correlation" >
    <i type="logical" name="LASPH"> F  </i>
    <i type="logical" name="LMETAGGA"> F  </i>
   </separator>
   <separator name="electronic convergence" >
    <i type="int" name="NELM">    60</i>
    <i type="int" name="NELMDL">    -5</i>
    <i type="int" name="NELMIN">     2</i>
    <i name="ENINI">    280.00000000</i>
    <separator name="electronic convergence detail" >
     <i type="logical" name="LDIAG"> T  </i>
     <i type="logical" name="LSUBROT"> F  </i>
     <i name="WEIMIN">      0.00100000</i>
     <i name="EBREAK">      0.00000021</i>
     <i name="DEPER">      0.30000000</i>
     <i type="int" name="NRMM">     4</i>
     <i name="TIME">      0.40000000</i>
    </separator>
   </separator>
   <separator name="electronic mixer" >
    <i name="AMIX">      0.40000000</i>
    <i name="BMIX">      1.00000000</i>
    <i name="AMIN">      0.10000000</i>
    <i name="AMIX_MAG">      1.60000000</i>
    <i name="BMIX_MAG">      1.00000000</i>
    <separator name="electronic mixer details" >
     <i type="int" name="IMIX">     4</i>
     <i type="logical" name="MIXFIRST"> F  </i>
     <i type="int" name="MAXMIX">   -45</i>
     <i name="WC">    100.00000000</i>
     <i type="int" name="INIMIX">     1</i>
     <i type="int" name="MIXPRE">     1</i>
     <i type="int" name="MREMOVE">     5</i>
    </separator>
   </separator>
   <separator name="electronic dipolcorrection" >
    <i type="logical" name="LDIPOL"> F  </i>
    <i type="logical" name="LMONO"> F  </i>
    <i type="int" name="IDIPOL">     0</i>
    <i name="EPSILON">      1.00000000</i>
    <v name="DIPOL">   -100.00000000   -100.00000000   -100.00000000</v>
    <i name="EFIELD">      0.00000000</i>
   </separator>
  </separator>
  <separator name="grids" >
   <i type="int" name="NGX">    42</i>
   <i type="int" name="NGY">    42</i>
   <i type="int" name="NGZ">   126</i>
   <i type="int" name="NGXF">    84</i>
   <i type="int" name="NGYF">    84</i>
   <i type="int" name="NGZF">   252</i>
   <i type="logical" name="ADDGRID"> F  </i>
  </separator>
  <separator name="ionic" >
   <i type="int" name="NSW">   100</i>
   <i type="int" name="IBRION">     1</i>
   <i type="int" name="ISIF">     3</i>
   <i name="PSTRESS">      0.00000000</i>
   <i name="EDIFFG">      0.00100000</i>
   <i type="int" name="NFREE">     0</i>
   <i name="POTIM">      0.50000000</i>
   <i name="SMASS">     -3.00000000</i>
   <i name="SCALEE">      1.00000000</i>
  </separator>
  <separator name="ionic md" >
   <i name="TEBEG">      0.00010000</i>
   <i name="TEEND">      0.00010000</i>
   <i type="int" name="NBLOCK">     1</i>
   <i type="int" name="KBLOCK">   100</i>
   <i type="int" name="NPACO">   256</i>
   <i name="APACO">     16.00000000</i>
  </separator>
  <separator name="symmetry" >
   <i type="int" name="ISYM">     0</i>
   <i name="SYMPREC">      0.00000001</i>
  </separator>
  <separator name="dos" >
   <i type="logical" name="LORBIT"> F  </i>
   <v name="RWIGS">     -1.00000000     -1.00000000     -1.00000000     -1.00000000</v>
   <i type="int" name="NEDOS">   301</i>
   <i name="EMIN">     10.00000000</i>
   <i name="EMAX">    -10.00000000</i>
   <i name="EFERMI">      0.00000000</i>
  </separator>
  <separator name="writing" >
   <i type="int" name="NWRITE">     2</i>
   <i type="logical" name="LWAVE"> F  </i>
   <i type="logical" name="LCHARG"> F  </i>
   <i type="logical" name="LPARD"> F  </i>
   <i type="logical" name="LVTOT"> F  </i>
   <i type="logical" name="LVHAR"> F  </i>
   <i type="logical" name="LELF"> F  </i>
   <i type="logical" name="LOPTICS"> F  </i>
   <v name="STM">      0.00000000      0.00000000      0.00000000      0.00000000      0.00000000      0.00000000      0.00000000</v>
  </separator>
  <separator name="performance" >
   <i type="int" name="NPAR">    40</i>
   <i type="int" name="NSIM">     4</i>
   <i type="int" name="NBLK">    -1</i>
   <i type="logical" name="LPLANE"> F  </i>
   <i type="logical" name="LSCALAPACK"> T  </i>
   <i type="logical" name="LSCAAWARE"> F  </i>
   <i type="logical" name="LSCALU"> F  </i>
   <i type="logical" name="LASYNC"> F  </i>
   <i type="logical" name="LORBITALREAL"> F  </i>
  </separator>
  <separator name="miscellaneous" >
   <i type="int" name="IDIOT">     3</i>
   <i type="logical" name="LMUSIC"> F  </i>
   <v name="POMASS">     50.94100000     95.94000000    183.85000000     32.06600000</v>
   <v name="DARWINR">      0.00000000      0.00000000      0.00000000      0.00000000</v>
   <v name="DARWINV">      1.00000000      1.00000000      1.00000000      1.00000000</v>
   <i type="logical" name="LCORR"> T  </i>
  </separator>
  <i type="logical" name="GGA_COMPAT"> T  </i>
  <i type="logical" name="LBERRY"> F  </i>
  <i type="int" name="ICORELEVEL">     0</i>
  <i type="logical" name="LDAU"> F  </i>
  <i type="int" name="I_CONSTRAINED_M">     0</i>
  <separator name="electronic exchange-correlation" >
   <i type="string" name="GGA">--</i>
   <i type="int" name="VOSKOWN">     0</i>
   <i type="logical" name="LHFCALC"> F  </i>
   <i type="string" name="PRECFOCK"></i>
   <i type="logical" name="LSYMGRAD"> F  </i>
   <i type="logical" name="LHFONE"> F  </i>
   <i type="logical" name="LRHFCALC"> F  </i>
   <i type="logical" name="LTHOMAS"> F  </i>
   <i type="logical" name="LMODELHF"> F  </i>
   <i name="ENCUT4O">     -1.00000000</i>
   <i type="int" name="EXXOEP">     0</i>
   <i type="int" name="FOURORBIT">     0</i>
   <i name="AEXX">      0.00000000</i>
   <i name="HFALPHA">      0.00000000</i>
   <i name="MCALPHA">      0.00000000</i>
   <i name="ALDAX">      1.00000000</i>
   <i name="AGGAX">      1.00000000</i>
   <i name="ALDAC">      1.00000000</i>
   <i name="AGGAC">      1.00000000</i>
   <i type="int" name="NKREDX">     1</i>
   <i type="int" name="NKREDY">     1</i>
   <i type="int" name="NKREDZ">     1</i>
   <i type="logical" name="SHIFTRED"> F  </i>
   <i type="logical" name="ODDONLY"> F  </i>
   <i type="logical" name="EVENONLY"> F  </i>
   <i type="int" name="LMAXFOCK">     0</i>
   <i type="int" name="NMAXFOCKAE">     0</i>
   <i type="logical" name="LFOCKAEDFT"> F  </i>
   <i name="HFSCREEN">      0.00000000</i>
   <i name="HFSCREENC">      0.00000000</i>
   <i type="int" name="NBANDSGWLOW">     0</i>
  </separator>
  <separator name="vdW DFT" >
   <i type="logical" name="LUSE_VDW"> F  </i>
   <i name="Zab_VDW">     -0.84910000</i>
   <i name="PARAM1">      0.12340000</i>
   <i name="PARAM2">      1.00000000</i>
   <i name="PARAM3">      0.00000000</i>
  </separator>
  <separator name="model GW" >
   <i type="int" name="MODEL_GW">     0</i>
   <i name="MODEL_EPS0">     58.26239943</i>
   <i name="MODEL_ALPHA">      1.00000000</i>
  </separator>
  <separator name="linear response parameters" >
   <i type="logical" name="LEPSILON"> F  </i>
   <i type="logical" name="LRPA"> F  </i>
   <i type="logical" name="LNABLA"> F  </i>
   <i type="logical" name="LVEL"> F  </i>
   <i type="int" name="KINTER">     0</i>
   <i name="CSHIFT">      0.10000000</i>
   <i name="OMEGAMAX">     -1.00000000</i>
   <i name="DEG_THRESHOLD">      0.00200000</i>
  </separator>
  <separator name="orbital magnetization" >
   <i type="logical" name="NUCIND"> F  </i>
   <v name="MAGPOS">      0.00000000      0.00000000      0.00000000</v>
   <i type="logical" name="LNICSALL"> T  </i>
   <i type="logical" name="ORBITALMAG"> F  </i>
   <i type="logical" name="LMAGBLOCH"> F  </i>
   <i type="logical" name="LCHIMAG"> F  </i>
   <i type="logical" name="LGAUGE"> T  </i>
   <i type="int" name="MAGATOM">     0</i>
   <v name="MAGDIPOL">      0.00000000      0.00000000      0.00000000</v>
   <v name="AVECCONST">      0.00000000      0.00000000      0.00000000</v>
  </separator>
  <separator name="response functions" >
   <i type="logical" name="LADDER"> F  </i>
   <i type="logical" name="LFXC"> F  </i>
   <i type="logical" name="LHARTREE"> T  </i>
   <i type="int" name="IBSE">     0</i>
   <v type="int" name="KPOINT">    -1     0     0     0</v>
   <i type="logical" name="LTCTE"> F  </i>
   <i type="logical" name="LTETE"> F  </i>
   <i type="logical" name="LTRIPLET"> F  </i>
   <i type="logical" name="LFXCEPS"> F  </i>
   <i type="logical" name="LFXHEG"> F  </i>
   <i type="int" name="NATURALO">     0</i>
   <i type="logical" name="L2ORDER"> F  </i>
   <i type="logical" name="LUSEW"> F  </i>
   <i name="ENCUTGW">     -2.00000000</i>
   <i name="ENCUTGWSOFT">     -2.00000000</i>
   <i name="ENCUTLF">     -1.00000000</i>
   <i type="int" name="LMAXMP2">    -1</i>
   <i name="SCISSOR">      0.00000000</i>
   <i type="int" name="NOMEGA">     0</i>
   <i type="int" name="NOMEGAR">     0</i>
   <i type="int" name="NBANDSGW">    -1</i>
   <i type="int" name="NBANDSO">    -1</i>
   <i type="int" name="NBANDSV">    -1</i>
   <i type="int" name="NELM">     1</i>
   <i type="int" name="NELMHF">     1</i>
   <i type="int" name="DIM">     3</i>
   <i type="int" name="ANTIRES">     0</i>
   <i name="OMEGAMAX">    -30.00000000</i>
   <i name="OMEGAMIN">    -30.00000000</i>
   <i name="OMEGATL">   -200.00000000</i>
   <i type="int" name="OMEGAGRID">     0</i>
   <i name="CSHIFT">     -0.10000000</i>
   <i type="logical" name="SELFENERGY"> F  </i>
   <i type="logical" name="LSPECTRAL"> F  </i>
   <i type="logical" name="LSPECTRALGW"> F  </i>
   <i type="logical" name="LSINGLES"> F  </i>
   <i type="logical" name="LFERMIGW"> F  </i>
   <i type="logical" name="ODDONLYGW"> F  </i>
   <i type="logical" name="EVENONLYGW"> F  </i>
   <i type="int" name="NKREDLFX">     1</i>
   <i type="int" name="NKREDLFY">     1</i>
   <i type="int" name="NKREDLFZ">     1</i>
   <i type="int" name="MAXMEM">  1800</i>
   <i type="int" name="TELESCOPE">     0</i>
   <i type="int" name="TAUPAR">     1</i>
   <i type="int" name="OMEGAPAR">    -1</i>
   <i name="LAMBDA">      1.00000000</i>
  </separator>
  <separator name="External order field" >
   <i name="OFIELD_KAPPA">      0.00000000</i>
   <v name="OFIELD_K">      0.00000000      0.00000000      0.00000000</v>
   <i name="OFIELD_Q6_NEAR">      0.00000000</i>
   <i name="OFIELD_Q6_FAR">      0.00000000</i>
   <i name="OFIELD_A">      0.00000000</i>
  </separator>
 </parameters>
 <atominfo>
  <atoms>      27 </atoms>
  <types>       4 </types>
  <array name="atoms" >
   <dimension dim="1">ion</dimension>
   <field type="string">element</field>
   <field type="int">atomtype</field>
   <set>
    <rc><c>V </c><c>   1</c></rc>
    <rc><c>V </c><c>   1</c></rc>
    <rc><c>V </c><c>   1</c></rc>
    <rc><c>Mo</c><c>   2</c></rc>
    <rc><c>Mo</c><c>   2</c></rc>
    <rc><c>Mo</c><c>   2</c></rc>
    <rc><c>W </c><c>   3</c></rc>
    <rc><c>W </c><c>   3</c></rc>
    <rc><c>W </c><c>   3</c></rc>
    <rc><c>S </c><c>   4</c></rc>
    <rc><c>S </c><c>   4</c></rc>
    <rc><c>S </c><c>   4</c></rc>
    <rc><c>S </c><c>   4</c></rc>
    <rc><c>S </c><c>   4</c></rc>
    <rc><c>S </c><c>   4</c></rc>
    <rc><c>S </c><c>   4</c></rc>
    <rc><c>S </c><c>   4</c></rc>
    <rc><c>S </c><c>   4</c></rc>
    <rc><c>S </c><c>   4</c></rc>
    <rc><c>S </c><c>   4</c></rc>
    <rc><c>S </c><c>   4</c></rc>
    <rc><c>S </c><c>   4</c></rc>
    <rc><c>S </c><c>   4</c></rc>
    <rc><c>S </c><c>   4</c></rc>
    <rc><c>S </c><c>   4</c></rc>
    <rc><c>S </c><c>   4</c></rc>
    <rc><c>S </c><c>   4</c></rc>
   </set>
  </array>
  <array name="atomtypes" >
   <dimension dim="1">type</dimension>
   <field type="int">atomspertype</field>
   <field type="string">element</field>
   <field>mass</field>
   <field>valence</field>
   <field type="string">pseudopotential</field>
   <set>
    <rc><c>   3</c><c>V </c><c>     50.94100000</c><c>      5.00000000</c><c> PAW_PBE V 08Apr2002                    </c></rc>
    <rc><c>   3</c><c>Mo</c><c>     95.94000000</c><c>      6.00000000</c><c> PAW_PBE Mo 08Apr2002                   </c></rc>
    <rc><c>   3</c><c>W </c><c>    183.85000000</c><c>      6.00000000</c><c> PAW_PBE W 08Apr2002                    </c></rc>
    <rc><c>  18</c><c>S </c><c>     32.06600000</c><c>      6.00000000</c><c>  PAW_PBE S 17Jan2003                   </c></rc>
   </set>
  </array>
 </atominfo>
 <structure name="initialpos" >
  <crystal>
   <varray name="basis" >
    <v>       8.66999996       5.03999989       0.00000000 </v>
    <v>      -8.66999982       5.04000013       0.00000000 </v>
    <v>       0.00000000       0.00000000      30.00000000 </v>
   </varray>
   <i name="volume">   2621.80797419 </i>
   <varray name="rec_basis" >
    <v>       0.05767013       0.09920635       0.00000000 </v>
    <v>      -0.05767013       0.09920635       0.00000000 </v>
    <v>       0.00000000       0.00000000       0.03333333 </v>
   </varray>
  </crystal>
  <varray name="positions" >
   <v>       0.66666669       0.00000000       0.00000000 </v>
   <v>       0.33333334       0.66666669       0.00000000 </v>
   <v>       1.00000000       0.33333334       0.00000000 </v>
   <v>       0.00000000       0.66666669       0.00000000 </v>
   <v>       0.00000000       0.00000000       0.00000000 </v>
   <v>       0.66666669       0.33333334       0.00000000 </v>
   <v>       0.33333334       0.00000000       0.00000000 </v>
   <v>       0.33333334       0.33333334       0.00000000 </v>
   <v>       0.66666669       0.66666669       0.00000000 </v>
   <v>       0.11068511       0.22244981       0.95539999 </v>
   <v>       0.22244981       0.11068511       0.04460000 </v>
   <v>       0.11068511       0.55578315       0.95539999 </v>
   <v>       0.22244981       0.44401845       0.04460000 </v>
   <v>       0.11068511       0.88911647       0.95539999 </v>
   <v>       0.22244981       0.77735180       0.04460000 </v>
   <v>       0.44401845       0.22244981       0.95539999 </v>
   <v>       0.55578315       0.11068511       0.04460000 </v>
   <v>       0.44401845       0.55578315       0.95539999 </v>
   <v>       0.55578315       0.44401845       0.04460000 </v>
   <v>       0.44401845       0.88911647       0.95539999 </v>
   <v>       0.55578315       0.77735180       0.04460000 </v>
   <v>       0.77735180       0.22244981       0.95539999 </v>
   <v>       0.88911647       0.11068511       0.04460000 </v>
   <v>       0.77735180       0.55578315       0.95539999 </v>
   <v>       0.88911647       0.44401845       0.04460000 </v>
   <v>       0.77735180       0.88911647       0.95539999 </v>
   <v>       0.88911647       0.77735180       0.04460000 </v>
  </varray>
 </structure>
 <calculation>
  <scstep>
   <time name="dav">   21.60   21.66</time>
   <time name="total">   21.65   21.71</time>
   <energy>
    <i name="alphaZ">     81.65567618 </i>
    <i name="ewald">  41891.12778375 </i>
    <i name="hartreedc"> -47723.77362689 </i>
    <i name="XCdc">   -242.92539889 </i>
    <i name="pawpsdc">   3467.42045192 </i>
    <i name="pawaedc">  -2871.19716117 </i>
    <i name="eentropy">     -0.52955153 </i>
    <i name="bandstr">   -238.83275429 </i>
    <i name="atom">   6761.44252427 </i>
    <i name="e_fr_energy">   1124.38794335 </i>
    <i name="e_wo_entrp">   1124.91749488 </i>
    <i name="e_0_energy">   1124.65271912 </i>
   </energy>
  </scstep>
  <scstep>
   <time name="dav">   28.14   28.21</time>
   <time name="total">   28.15   28.22</time>
   <energy>
    <i name="e_fr_energy">     -5.81653330 </i>
    <i name="e_wo_entrp">     -5.61245232 </i>
    <i name="e_0_energy">     -5.71449281 </i>
   </energy>
  </scstep>
  <scstep>
   <time name="dav">   27.38   27.45</time>
   <time name="total">   27.39   27.46</time>
   <energy>
    <i name="e_fr_energy">   -199.99588980 </i>
    <i name="e_wo_entrp">   -199.73291651 </i>
    <i name="e_0_energy">   -199.86440316 </i>
   </energy>
  </scstep>
  <scstep>
   <time name="dav">   29.81   29.88</time>
   <time name="total">   29.81   29.89</time>
   <energy>
    <i name="e_fr_energy">   -209.08102193 </i>
    <i name="e_wo_entrp">   -208.82284588 </i>
    <i name="e_0_energy">   -208.95193390 </i>
   </energy>
  </scstep>
  <scstep>
   <time name="dav">   28.04   28.11</time>
   <time name="total">   28.51   28.59</time>
   <energy>
    <i name="e_fr_energy">   -209.40457073 </i>
    <i name="e_wo_entrp">   -209.14970267 </i>
    <i name="e_0_energy">   -209.27713670 </i>
   </energy>
  </scstep>
  <scstep>
   <time name="dav">   30.62   30.69</time>
   <time name="total">   31.12   31.21</time>
   <energy>
    <i name="e_fr_energy">   -241.34172857 </i>
    <i name="e_wo_entrp">   -241.05630528 </i>
    <i name="e_0_energy">   -241.19901693 </i>
   </energy>
  </scstep>
  <scstep>
   <time name="dav">   32.12   32.20</time>
   <time name="total">   32.63   32.72</time>
   <energy>
    <i name="e_fr_energy">   -196.11379543 </i>
    <i name="e_wo_entrp">   -195.78697741 </i>
    <i name="e_0_energy">   -195.95038642 </i>
   </energy>
  </scstep>
  <scstep>
   <time name="dav">   29.81   29.88</time>
   <time name="total">   30.34   30.42</time>
   <energy>
    <i name="e_fr_energy">   -189.35935805 </i>
    <i name="e_wo_entrp">   -189.03226781 </i>
    <i name="e_0_energy">   -189.19581293 </i>
   </energy>
  </scstep>
  <scstep>
   <time name="dav">   32.00   32.08</time>
   <time name="total">   32.53   32.61</time>
   <energy>
    <i name="e_fr_energy">   -188.08282518 </i>
    <i name="e_wo_entrp">   -187.75227414 </i>
    <i name="e_0_energy">   -187.91754966 </i>
   </energy>
  </scstep>
  <scstep>
   <time name="dav">   32.55   32.63</time>
   <time name="total">   33.09   33.18</time>
   <energy>
    <i name="e_fr_energy">   -186.94976339 </i>
    <i name="e_wo_entrp">   -186.59422466 </i>
    <i name="e_0_energy">   -186.77199402 </i>
   </energy>
  </scstep>
  <scstep>
   <time name="dav">   32.28   32.36</time>
   <time name="total">   32.82   32.90</time>
   <energy>
    <i name="e_fr_energy">   -187.05294229 </i>
    <i name="e_wo_entrp">   -186.71436637 </i>
    <i name="e_0_energy">   -186.88365433 </i>
   </energy>
  </scstep>
  <scstep>
   <time name="dav">   31.44   31.52</time>
   <time name="total">   31.98   32.06</time>
   <energy>
    <i name="e_fr_energy">   -186.94960807 </i>
    <i name="e_wo_entrp">   -186.60644426 </i>
    <i name="e_0_energy">   -186.77802617 </i>
   </energy>
  </scstep>
  <scstep>
   <time name="dav">   30.24   30.32</time>
   <time name="total">   30.78   30.86</time>
   <energy>
    <i name="e_fr_energy">   -186.87398722 </i>
    <i name="e_wo_entrp">   -186.52988602 </i>
    <i name="e_0_energy">   -186.70193662 </i>
   </energy>
  </scstep>
  <scstep>
   <time name="dav">   30.50   30.57</time>
   <time name="total">   31.03   31.12</time>
   <energy>
    <i name="e_fr_energy">   -186.85263633 </i>
    <i name="e_wo_entrp">   -186.50396236 </i>
    <i name="e_0_energy">   -186.67829935 </i>
   </energy>
  </scstep>
  <scstep>
   <time name="dav">   30.58   30.65</time>
   <time name="total">   31.11   31.19</time>
   <energy>
    <i name="e_fr_energy">   -186.85066949 </i>
    <i name="e_wo_entrp">   -186.50260883 </i>
    <i name="e_0_energy">   -186.67663916 </i>
   </energy>
  </scstep>
  <scstep>
   <time name="dav">   31.65   31.73</time>
   <time name="total">   32.19   32.28</time>
   <energy>
    <i name="e_fr_energy">   -186.84670101 </i>
    <i name="e_wo_entrp">   -186.49887141 </i>
    <i name="e_0_energy">   -186.67278621 </i>
   </energy>
  </scstep>
  <scstep>
   <time name="dav">   30.94   31.01</time>
   <time name="total">   31.48   31.56</time>
   <energy>
    <i name="e_fr_energy">   -186.84543613 </i>
    <i name="e_wo_entrp">   -186.49889726 </i>
    <i name="e_0_energy">   -186.67216669 </i>
   </energy>
  </scstep>
  <scstep>
   <time name="dav">   30.72   30.80</time>
   <time name="total">   31.26   31.34</time>
   <energy>
    <i name="e_fr_energy">   -186.84482047 </i>
    <i name="e_wo_entrp">   -186.49765987 </i>
    <i name="e_0_energy">   -186.67124017 </i>
   </energy>
  </scstep>
  <scstep>
   <time name="dav">   26.71   26.77</time>
   <time name="total">   27.25   27.32</time>
   <energy>
    <i name="e_fr_energy">   -186.84521104 </i>
    <i name="e_wo_entrp">   -186.49827998 </i>
    <i name="e_0_energy">   -186.67174551 </i>
   </energy>
  </scstep>
  <scstep>
   <time name="dav">   24.38   24.44</time>
   <time name="total">   24.92   24.99</time>
   <energy>
    <i name="e_fr_energy">   -186.84575339 </i>
    <i name="e_wo_entrp">   -186.49904727 </i>
    <i name="e_0_energy">   -186.67240033 </i>
   </energy>
  </scstep>
  <scstep>
   <time name="dav">   21.50   21.55</time>
   <time name="total">   22.04   22.10</time>
   <energy>
    <i name="e_fr_energy">   -186.84654978 </i>
    <i name="e_wo_entrp">   -186.49985678 </i>
    <i name="e_0_energy">   -186.67320328 </i>
   </energy>
  </scstep>
  <scstep>
   <time name="dav">   20.25   20.30</time>
   <time name="total">   20.79   20.85</time>
   <energy>
    <i name="e_fr_energy">   -186.84747561 </i>
    <i name="e_wo_entrp">   -186.50071173 </i>
    <i name="e_0_energy">   -186.67409367 </i>
   </energy>
  </scstep>
  <scstep>
   <time name="dav">   20.18   20.23</time>
   <time name="total">   20.72   20.78</time>
   <energy>
    <i name="e_fr_energy">   -186.84855552 </i>
    <i name="e_wo_entrp">   -186.50177894 </i>
    <i name="e_0_energy">   -186.67516723 </i>
   </energy>
  </scstep>
  <scstep>
   <time name="dav">   18.21   18.25</time>
   <time name="total">   18.74   18.80</time>
   <energy>
    <i name="e_fr_energy">   -186.84921695 </i>
    <i name="e_wo_entrp">   -186.50246110 </i>
    <i name="e_0_energy">   -186.67583902 </i>
   </energy>
  </scstep>
  <scstep>
   <time name="dav">   17.38   17.42</time>
   <time name="total">   17.91   17.96</time>
   <energy>
    <i name="e_fr_energy">   -186.84958103 </i>
    <i name="e_wo_entrp">   -186.50280767 </i>
    <i name="e_0_energy">   -186.67619435 </i>
   </energy>
  </scstep>
  <scstep>
   <time name="dav">   19.05   19.10</time>
   <time name="total">   19.59   19.64</time>
   <energy>
    <i name="e_fr_energy">   -186.84979966 </i>
    <i name="e_wo_entrp">   -186.50303406 </i>
    <i name="e_0_energy">   -186.67641686 </i>
   </energy>
  </scstep>
  <scstep>
   <time name="dav">   19.74   19.79</time>
   <time name="total">   19.77   19.83</time>
   <energy>
    <i name="alphaZ">     81.65567618 </i>
    <i name="ewald">  41891.12778375 </i>
    <i name="hartreedc"> -47833.62251887 </i>
    <i name="XCdc">   -231.60212964 </i>
    <i name="pawpsdc">   4192.07539852 </i>
    <i name="pawaedc">  -3610.08216670 </i>
    <i name="eentropy">     -0.34676610 </i>
    <i name="bandstr">  -1437.49767452 </i>
    <i name="atom">   6761.44252427 </i>
    <i name="e_fr_energy">   -186.84987310 </i>
    <i name="e_wo_entrp">   -186.50310700 </i>
    <i name="e_0_energy">   -186.67649005 </i>
   </energy>
  </scstep>
  <structure>
   <crystal>
    <varray name="basis" >
     <v>       8.66999996       5.03999989       0.00000000 </v>
     <v>      -8.66999982       5.04000013       0.00000000 </v>
     <v>       0.00000000       0.00000000      30.00000000 </v>
    </varray>
    <i name="volume">   2621.80797419 </i>
    <varray name="rec_basis" >
     <v>       0.05767013       0.09920635       0.00000000 </v>
     <v>      -0.05767013       0.09920635       0.00000000 </v>
     <v>       0.00000000       0.00000000       0.03333333 </v>
    </varray>
   </crystal>
   <varray name="positions" >
    <v>       0.66666669       0.00000000       0.00000000 </v>
    <v>       0.33333334       0.66666669       0.00000000 </v>
    <v>       1.00000000       0.33333334       0.00000000 </v>
    <v>       0.00000000       0.66666669       0.00000000 </v>
    <v>       0.00000000       0.00000000       0.00000000 </v>
    <v>       0.66666669       0.33333334       0.00000000 </v>
    <v>       0.33333334       0.00000000       0.00000000 </v>
    <v>       0.33333334       0.33333334       0.00000000 </v>
    <v>       0.66666669       0.66666669       0.00000000 </v>
    <v>       0.11068511       0.22244981       0.95539999 </v>
    <v>       0.22244981       0.11068511       0.04460000 </v>
    <v>       0.11068511       0.55578315       0.95539999 </v>
    <v>       0.22244981       0.44401845       0.04460000 </v>
    <v>       0.11068511       0.88911647       0.95539999 </v>
    <v>       0.22244981       0.77735180       0.04460000 </v>
    <v>       0.44401845       0.22244981       0.95539999 </v>
    <v>       0.55578315       0.11068511       0.04460000 </v>
    <v>       0.44401845       0.55578315       0.95539999 </v>
    <v>       0.55578315       0.44401845       0.04460000 </v>
    <v>       0.44401845       0.88911647       0.95539999 </v>
    <v>       0.55578315       0.77735180       0.04460000 </v>
    <v>       0.77735180       0.22244981       0.95539999 </v>
    <v>       0.88911647       0.11068511       0.04460000 </v>
    <v>       0.77735180       0.55578315       0.95539999 </v>
    <v>       0.88911647       0.44401845       0.04460000 </v>
    <v>       0.77735180       0.88911647       0.95539999 </v>
    <v>       0.88911647       0.77735180       0.04460000 </v>
   </varray>
  </structure>
  <varray name="forces" >
   <v>       0.01311638       0.26486519       0.02774097 </v>
   <v>      -0.21420485      -0.12956753      -0.00969335 </v>
   <v>      -0.22765321      -0.12847057      -0.01514766 </v>
   <v>      -0.19869808      -0.15909382      -0.15276133 </v>
   <v>       0.22335440      -0.12599651       0.13322275 </v>
   <v>       0.01950705       0.27680218      -0.10562590 </v>
   <v>      -0.15159957      -0.16067427      -0.13544239 </v>
   <v>       0.16279837      -0.18458847       0.13251364 </v>
   <v>       0.43898990       0.32864784       0.16618299 </v>
   <v>      -0.66826698       0.15254473      -2.08717176 </v>
   <v>      -0.09863828       0.13822828       2.95042026 </v>
   <v>       0.89324958      -0.00016867      -1.45073070 </v>
   <v>      -0.73845071       0.00249140       1.45730457 </v>
   <v>       0.24505892       0.15564607      -2.89536195 </v>
   <v>       0.66218116       0.14942276       2.09474252 </v>
   <v>       0.09490869      -0.12653799      -2.92562158 </v>
   <v>       0.66111383      -0.14186366       2.07123816 </v>
   <v>      -0.60313105      -0.00044347      -2.07631893 </v>
   <v>      -0.32152474       0.00223039       2.89192165 </v>
   <v>       0.73357937      -0.00249059      -1.46191991 </v>
   <v>      -0.74214011      -0.00458155       1.43074579 </v>
   <v>       0.89830557       0.00130367      -1.47610721 </v>
   <v>      -0.89912192      -0.00829947       1.45200113 </v>
   <v>      -0.00812955      -0.00013513      -2.95351784 </v>
   <v>       0.75625107       0.00489204       2.11522991 </v>
   <v>      -0.67859226      -0.14866760      -2.10622729 </v>
   <v>      -0.25226299      -0.15549528       2.92838346 </v>
  </varray>
  <varray name="stress" >
   <v>       7.49132282      -0.00951613      -1.53371698 </v>
   <v>      -0.00951618       4.26470095      -0.03593243 </v>
   <v>      -1.53371689      -0.03593256      30.33387751 </v>
  </varray>
  <energy>
   <i name="e_fr_energy">   -186.84987310 </i>
   <i name="e_wo_entrp">   -186.67649005 </i>
   <i name="e_0_energy">     -0.34676610 </i>
  </energy>
  <time name="totalsc">  781.77  783.89</time>
 </calculation>
 <calculation>
  <scstep>
   <time name="dav">   21.56   21.61</time>
   <time name="total">   22.10   22.16</time>
   <energy>
    <i name="alphaZ">     78.92135249 </i>
    <i name="ewald">  39378.54765592 </i>
    <i name="hartreedc"> -45335.87404070 </i>
    <i name="XCdc">   -239.06905216 </i>
    <i name="pawpsdc">   4192.05179199 </i>
    <i name="pawaedc">  -3610.05904945 </i>
    <i name="eentropy">     -0.28094601 </i>
    <i name="bandstr">  -1413.21245332 </i>
    <i name="atom">   6761.44252427 </i>
    <i name="e_fr_energy">   -187.53221698 </i>
    <i name="e_wo_entrp">   -187.25127097 </i>
    <i name="e_0_energy">   -187.39174397 </i>
   </energy>
  </scstep>
  <scstep>
   <time name="dav">   30.13   30.20</time>
   <time name="total">   30.66   30.75</time>
   <energy>
    <i name="e_fr_energy">   -190.02163560 </i>
    <i name="e_wo_entrp">   -189.66619034 </i>
    <i name="e_0_energy">   -189.84391297 </i>
   </energy>
  </scstep>
  <scstep>
   <time name="dav">   30.53   30.60</time>
   <time name="total">   31.08   31.16</time>
   <energy>
    <i name="e_fr_energy">   -189.24439945 </i>
    <i name="e_wo_entrp">   -188.97798866 </i>
    <i name="e_0_energy">   -189.11119406 </i>
   </energy>
  </scstep>
  <scstep>
   <time name="dav">   30.58   30.65</time>
   <time name="total">   31.12   31.21</time>
   <energy>
    <i name="e_fr_energy">   -188.84996949 </i>
    <i name="e_wo_entrp">   -188.55951007 </i>
    <i name="e_0_energy">   -188.70473978 </i>
   </energy>
  </scstep>
  <scstep>
   <time name="dav">   29.51   29.58</time>
   <time name="total">   30.05   30.13</time>
   <energy>
    <i name="e_fr_energy">   -188.85773631 </i>
    <i name="e_wo_entrp">   -188.57204669 </i>
    <i name="e_0_energy">   -188.71489150 </i>
   </energy>
  </scstep>
  <scstep>
   <time name="dav">   30.02   30.09</time>
   <time name="total">   30.56   30.64</time>
   <energy>
    <i name="e_fr_energy">   -188.76318752 </i>
    <i name="e_wo_entrp">   -188.47560304 </i>
    <i name="e_0_energy">   -188.61939528 </i>
   </energy>
  </scstep>
  <scstep>
   <time name="dav">   26.67   26.73</time>
   <time name="total">   27.21   27.29</time>
   <energy>
    <i name="e_fr_energy">   -188.71046536 </i>
    <i name="e_wo_entrp">   -188.42478428 </i>
    <i name="e_0_energy">   -188.56762482 </i>
   </energy>
  </scstep>
  <scstep>
   <time name="dav">   30.24   30.31</time>
   <time name="total">   30.78   30.87</time>
   <energy>
    <i name="e_fr_energy">   -188.69575953 </i>
    <i name="e_wo_entrp">   -188.41039264 </i>
    <i name="e_0_energy">   -188.55307608 </i>
   </energy>
  </scstep>
  <scstep>
   <time name="dav">   30.66   30.73</time>
   <time name="total">   31.20   31.28</time>
   <energy>
    <i name="e_fr_energy">   -188.68989315 </i>
    <i name="e_wo_entrp">   -188.40460076 </i>
    <i name="e_0_energy">   -188.54724696 </i>
   </energy>
  </scstep>
  <scstep>
   <time name="dav">   29.71   29.79</time>
   <time name="total">   30.26   30.34</time>
   <energy>
    <i name="e_fr_energy">   -188.68728173 </i>
    <i name="e_wo_entrp">   -188.40276865 </i>
    <i name="e_0_energy">   -188.54502519 </i>
   </energy>
  </scstep>
  <scstep>
   <time name="dav">   31.82   31.90</time>
   <time name="total">   32.37   32.45</time>
   <energy>
    <i name="e_fr_energy">   -188.68641703 </i>
    <i name="e_wo_entrp">   -188.40272792 </i>
    <i name="e_0_energy">   -188.54457247 </i>
   </energy>
  </scstep>
  <scstep>
   <time name="dav">   29.00   29.07</time>
   <time name="total">   29.03   29.11</time>
   <energy>
    <i name="alphaZ">     78.92135249 </i>
    <i name="ewald">  39378.54765592 </i>
    <i name="hartreedc"> -45346.82948764 </i>
    <i name="XCdc">   -237.97852312 </i>
    <i name="pawpsdc">   3953.06802466 </i>
    <i name="pawaedc">  -3367.60434363 </i>
    <i name="eentropy">     -0.28347869 </i>
    <i name="bandstr">  -1407.97014506 </i>
    <i name="atom">   6761.44252427 </i>
    <i name="e_fr_energy">   -188.68642080 </i>
    <i name="e_wo_entrp">   -188.40294211 </i>
    <i name="e_0_energy">   -188.54468145 </i>
   </energy>
  </scstep>
  <structure>
   <crystal>
    <varray name="basis" >
     <v>       8.85976427       5.10260454       0.00000000 </v>
     <v>      -8.86004459       5.10308725       0.00000000 </v>
     <v>       0.00000000       0.00000000      30.00000000 </v>
    </varray>
    <i name="volume">   2712.64361527 </i>
    <varray name="rec_basis" >
     <v>       0.05643669       0.09798609       0.00000000 </v>
     <v>      -0.05643135       0.09798299       0.00000000 </v>
     <v>       0.00000000       0.00000000       0.03333333 </v>
    </varray>
   </crystal>
   <varray name="positions" >
    <v>       0.66797082       0.00123115       0.00004461 </v>
    <v>       0.33211728       0.66664253      -0.00001559 </v>
    <v>       0.99875177       0.33335185      -0.00002436 </v>
    <v>      -0.00131423       0.66645808      -0.00024565 </v>
    <v>       0.00001839      -0.00122442       0.00021423 </v>
    <v>       0.66804573       0.33460384      -0.00016986 </v>
    <v>       0.33214259      -0.00034721      -0.00021780 </v>
    <v>       0.33290284       0.33199698       0.00021309 </v>
    <v>       0.66946093       0.66701825       0.00026724 </v>
    <v>       0.10955596       0.22503911       0.95204363 </v>
    <v>       0.22283694       0.11162110       0.04934454 </v>
    <v>       0.11316947       0.55329718       0.95306709 </v>
    <v>       0.22040725       0.44608487       0.04694347 </v>
    <v>       0.11211182       0.88917959       0.95074399 </v>
    <v>       0.22500724       0.77622464       0.04796853 </v>
    <v>       0.44367690       0.22158015       0.95069533 </v>
    <v>       0.55694352       0.10816683       0.04793073 </v>
    <v>       0.44233832       0.55745904       0.95206109 </v>
    <v>       0.55489929       0.44492366       0.04925046 </v>
    <v>       0.44604747       0.88706361       0.95304909 </v>
    <v>       0.55369647       0.77939462       0.04690076 </v>
    <v>       0.77985727       0.21995682       0.95302628 </v>
    <v>       0.88657524       0.11314689       0.04693495 </v>
    <v>       0.77732853       0.55580512       0.95065047 </v>
    <v>       0.89124389       0.44193786       0.04800148 </v>
    <v>       0.77475232       0.89029290       0.95201299 </v>
    <v>       0.88767043       0.77730944       0.04930910 </v>
   </varray>
  </structure>
  <varray name="forces" >
   <v>      -0.00038331       0.18386904       0.09008931 </v>
   <v>      -0.18007092      -0.08366484      -0.01390324 </v>
   <v>      -0.19730126      -0.09252587      -0.00510184 </v>
   <v>      -0.46186496      -0.20520261      -0.02585647 </v>
   <v>       0.44473407      -0.09001837      -0.04495771 </v>
   <v>      -0.24646402       0.30048129       0.05003243 </v>
   <v>      -0.37961474      -0.10619793      -0.01942602 </v>
   <v>       0.35911052      -0.21960288      -0.08104832 </v>
   <v>       0.58512586       0.31238465       0.01267932 </v>
   <v>       0.02471053       0.10305863       0.13723894 </v>
   <v>       0.08645762       0.09463627       0.13897945 </v>
   <v>       0.03136728      -0.00980350       0.06608480 </v>
   <v>       0.09210399      -0.01085528      -0.14972864 </v>
   <v>       0.05608998       0.10190200      -0.18303672 </v>
   <v>      -0.03108756       0.09330900      -0.06541879 </v>
   <v>      -0.07073790      -0.10086070      -0.02506741 </v>
   <v>      -0.02439711      -0.10633107      -0.15500398 </v>
   <v>       0.10608106       0.01037614       0.27500865 </v>
   <v>      -0.10949881       0.01166350       0.04405651 </v>
   <v>      -0.10298900       0.00242739       0.14784788 </v>
   <v>       0.10768806       0.00489764      -0.23889316 </v>
   <v>       0.04639822       0.01027076      -0.00566931 </v>
   <v>      -0.04458308      -0.00106264      -0.07918813 </v>
   <v>      -0.14656504       0.00860883      -0.25969933 </v>
   <v>       0.06519863       0.01066038       0.04885461 </v>
   <v>       0.02340070      -0.11307605       0.06071648 </v>
   <v>      -0.03290878      -0.10934379       0.28041069 </v>
  </varray>
  <varray name="stress" >
   <v>     -20.16922150       0.00251241       0.14646334 </v>
   <v>       0.00251253     -19.63072424      -0.02052651 </v>
   <v>       0.14646336      -0.02052657      -1.83731539 </v>
  </varray>
  <energy>
   <i name="e_fr_energy">   -188.68642080 </i>
   <i name="e_wo_entrp">   -188.54468145 </i>
   <i name="e_0_energy">     -0.28347869 </i>
  </energy>
  <time name="totalsc">  398.17  399.22</time>
 </calculation>
 <calculation>
  <scstep>
   <time name="dav">   23.20   23.26</time>
   <time name="total">   23.74   23.80</time>
   <energy>
    <i name="alphaZ">     82.37069589 </i>
    <i name="ewald">  41316.02270929 </i>
    <i name="hartreedc"> -47315.05107580 </i>
    <i name="XCdc">   -233.83003611 </i>
    <i name="pawpsdc">   3950.34366396 </i>
    <i name="pawaedc">  -3364.84867978 </i>
    <i name="eentropy">     -0.23786766 </i>
    <i name="bandstr">  -1386.84759484 </i>
    <i name="atom">   6761.44252427 </i>
    <i name="e_fr_energy">   -190.63566076 </i>
    <i name="e_wo_entrp">   -190.39779311 </i>
    <i name="e_0_energy">   -190.51672693 </i>
   </energy>
  </scstep>
  <scstep>
   <time name="dav">   28.45   28.52</time>
   <time name="total">   28.98   29.06</time>
   <energy>
    <i name="e_fr_energy">   -190.56226647 </i>
    <i name="e_wo_entrp">   -190.32940140 </i>
    <i name="e_0_energy">   -190.44583394 </i>
   </energy>
  </scstep>
  <scstep>
   <time name="dav">   30.17   30.24</time>
   <time name="total">   30.70   30.78</time>
   <energy>
    <i name="e_fr_energy">   -190.12607195 </i>
    <i name="e_wo_entrp">   -189.87331919 </i>
    <i name="e_0_energy">   -189.99969557 </i>
   </energy>
  </scstep>
  <scstep>
   <time name="dav">   30.93   31.01</time>
   <time name="total">   31.47   31.56</time>
   <energy>
    <i name="e_fr_energy">   -189.89562588 </i>
    <i name="e_wo_entrp">   -189.66171010 </i>
    <i name="e_0_energy">   -189.77866799 </i>
   </energy>
  </scstep>
  <scstep>
   <time name="dav">   29.96   30.04</time>
   <time name="total">   30.50   30.58</time>
   <energy>
    <i name="e_fr_energy">   -189.87066660 </i>
    <i name="e_wo_entrp">   -189.62258650 </i>
    <i name="e_0_energy">   -189.74662655 </i>
   </energy>
  </scstep>
  <scstep>
   <time name="dav">   30.64   30.71</time>
   <time name="total">   31.17   31.25</time>
   <energy>
    <i name="e_fr_energy">   -189.79730729 </i>
    <i name="e_wo_entrp">   -189.55918205 </i>
    <i name="e_0_energy">   -189.67824467 </i>
   </energy>
  </scstep>
  <scstep>
   <time name="dav">   28.84   28.91</time>
   <time name="total">   29.38   29.46</time>
   <energy>
    <i name="e_fr_energy">   -189.79140812 </i>
    <i name="e_wo_entrp">   -189.55107822 </i>
    <i name="e_0_energy">   -189.67124317 </i>
   </energy>
  </scstep>
  <scstep>
   <time name="dav">   31.00   31.08</time>
   <time name="total">   31.54   31.62</time>
   <energy>
    <i name="e_fr_energy">   -189.79141864 </i>
    <i name="e_wo_entrp">   -189.55148228 </i>
    <i name="e_0_energy">   -189.67145046 </i>
   </energy>
  </scstep>
  <scstep>
   <time name="dav">   28.26   28.33</time>
   <time name="total">   28.80   28.87</time>
   <energy>
    <i name="e_fr_energy">   -189.79038641 </i>
    <i name="e_wo_entrp">   -189.55031165 </i>
    <i name="e_0_energy">   -189.67034903 </i>
   </energy>
  </scstep>
  <scstep>
   <time name="dav">   26.85   26.91</time>
   <time name="total">   27.38   27.46</time>
   <energy>
    <i name="e_fr_energy">   -189.79081175 </i>
    <i name="e_wo_entrp">   -189.55056298 </i>
    <i name="e_0_energy">   -189.67068737 </i>
   </energy>
  </scstep>
  <scstep>
   <time name="dav">   24.92   24.98</time>
   <time name="total">   25.45   25.52</time>
   <energy>
    <i name="e_fr_energy">   -189.79049991 </i>
    <i name="e_wo_entrp">   -189.55018196 </i>
    <i name="e_0_energy">   -189.67034093 </i>
   </energy>
  </scstep>
  <scstep>
   <time name="dav">   19.72   19.77</time>
   <time name="total">   19.76   19.81</time>
   <energy>
    <i name="alphaZ">     82.37069589 </i>
    <i name="ewald">  41316.02270929 </i>
    <i name="hartreedc"> -47288.11416308 </i>
    <i name="XCdc">   -235.23547281 </i>
    <i name="pawpsdc">   4039.04800166 </i>
    <i name="pawaedc">  -3454.75435450 </i>
    <i name="eentropy">     -0.24029904 </i>
    <i name="bandstr">  -1410.33016520 </i>
    <i name="atom">   6761.44252427 </i>
    <i name="e_fr_energy">   -189.79052351 </i>
    <i name="e_wo_entrp">   -189.55022446 </i>
    <i name="e_0_energy">   -189.67037399 </i>
   </energy>
  </scstep>
  <structure>
   <crystal>
    <varray name="basis" >
     <v>       8.66975262       4.99610891       0.00000000 </v>
     <v>      -8.66999966       4.99653420       0.00000000 </v>
     <v>       0.00000000       0.00000000      30.00000000 </v>
    </varray>
    <i name="volume">   2599.04934172 </i>
    <varray name="rec_basis" >
     <v>       0.05767341       0.10007505       0.00000000 </v>
     <v>      -0.05766850       0.10007220       0.00000000 </v>
     <v>       0.00000000       0.00000000       0.03333333 </v>
    </varray>
   </crystal>
   <varray name="positions" >
    <v>       0.66827598       0.00153703       0.00009554 </v>
    <v>       0.33180592       0.66667584      -0.00002345 </v>
    <v>       0.99840920       0.33338692      -0.00002724 </v>
    <v>      -0.00209725       0.66655910      -0.00026027 </v>
    <v>       0.00029445      -0.00179960       0.00018882 </v>
    <v>       0.66830915       0.33533899      -0.00014157 </v>
    <v>       0.33160280      -0.00016039      -0.00022878 </v>
    <v>       0.33288162       0.33128842       0.00016728 </v>
    <v>       0.67054002       0.66697736       0.00027440 </v>
    <v>       0.10975086       0.22518671       0.95212121 </v>
    <v>       0.22307694       0.11169561       0.04942310 </v>
    <v>       0.11318320       0.55325087       0.95310444 </v>
    <v>       0.22047736       0.44597869       0.04685884 </v>
    <v>       0.11233483       0.88929524       0.95064053 </v>
    <v>       0.22513253       0.77640943       0.04793155 </v>
    <v>       0.44344160       0.22148025       0.95068116 </v>
    <v>       0.55674348       0.10801349       0.04784311 </v>
    <v>       0.44245709       0.55737476       0.95221654 </v>
    <v>       0.55481388       0.44504783       0.04927537 </v>
    <v>       0.44595293       0.88716620       0.95313267 </v>
    <v>       0.55380768       0.77929970       0.04676572 </v>
    <v>       0.77991874       0.21992948       0.95302307 </v>
    <v>       0.88653081       0.11318779       0.04689018 </v>
    <v>       0.77720256       0.55595969       0.95050367 </v>
    <v>       0.89132400       0.44189317       0.04802909 </v>
    <v>       0.77458682       0.89008261       0.95204731 </v>
    <v>       0.88745724       0.77715924       0.04946761 </v>
   </varray>
  </structure>
  <varray name="forces" >
   <v>      -0.00207010       0.14929403       0.08576985 </v>
   <v>      -0.16975711      -0.07023465      -0.00999213 </v>
   <v>      -0.17966177      -0.07571261      -0.00172949 </v>
   <v>      -0.54415964      -0.20878152       0.00911643 </v>
   <v>       0.52570430      -0.06526929      -0.06332046 </v>
   <v>      -0.33607449       0.29060955       0.06710833 </v>
   <v>      -0.46730600      -0.08562051       0.01979065 </v>
   <v>       0.43553371      -0.23150481      -0.10365947 </v>
   <v>       0.63127775       0.28592128      -0.02576922 </v>
   <v>      -0.08675783       0.02495540      -0.35044153 </v>
   <v>       0.05216620       0.02172972       0.72474048 </v>
   <v>       0.09289399      -0.01559014      -0.38199483 </v>
   <v>      -0.05444816      -0.01691400       0.30387976 </v>
   <v>       0.02128656       0.02411631      -0.75318356 </v>
   <v>       0.06757875       0.01630665       0.41846898 </v>
   <v>      -0.02208233      -0.02940183      -0.59450180 </v>
   <v>       0.07386919      -0.04177013       0.31921757 </v>
   <v>      -0.02399848       0.02251989      -0.19741209 </v>
   <v>      -0.04620850       0.00927339       0.60647529 </v>
   <v>       0.05039311       0.00996489      -0.30963494 </v>
   <v>      -0.03294951       0.00385771       0.20591526 </v>
   <v>       0.11199625       0.01057500      -0.45814884 </v>
   <v>      -0.09941049       0.00861263       0.36053730 </v>
   <v>      -0.06867236       0.00884943      -0.84635410 </v>
   <v>       0.13470524       0.02319482       0.53724659 </v>
   <v>      -0.08261604      -0.04352303      -0.42757380 </v>
   <v>       0.01876778      -0.02545820       0.86544976 </v>
  </varray>
  <varray name="stress" >
   <v>     -10.20006902       0.01067301       0.13855617 </v>
   <v>       0.01067292      -9.82342544      -0.01012885 </v>
   <v>       0.13855607      -0.01012903       6.53291592 </v>
  </varray>
  <energy>
   <i name="e_fr_energy">   -189.79052351 </i>
   <i name="e_wo_entrp">   -189.67037399 </i>
   <i name="e_0_energy">     -0.24029904 </i>
  </energy>
  <time name="totalsc">  380.62  381.63</time>
 </calculation>
 <calculation>
  <scstep>
   <time name="dav">   21.55   21.60</time>
   <time name="total">   22.07   22.12</time>
   <energy>
    <i name="alphaZ">     85.81991808 </i>
    <i name="ewald">  42832.51754228 </i>
    <i name="hartreedc"> -48848.75224517 </i>
    <i name="XCdc">   -232.97968828 </i>
    <i name="pawpsdc">   4039.08154460 </i>
    <i name="pawaedc">  -3454.78531943 </i>
    <i name="eentropy">     -0.19916157 </i>
    <i name="bandstr">  -1373.51348305 </i>
    <i name="atom">   6761.44252427 </i>
    <i name="e_fr_energy">   -191.36836827 </i>
    <i name="e_wo_entrp">   -191.16920670 </i>
    <i name="e_0_energy">   -191.26878748 </i>
   </energy>
  </scstep>
  <scstep>
   <time name="dav">   32.29   32.37</time>
   <time name="total">   32.81   32.89</time>
   <energy>
    <i name="e_fr_energy">   -191.12119347 </i>
    <i name="e_wo_entrp">   -190.91765779 </i>
    <i name="e_0_energy">   -191.01942563 </i>
   </energy>
  </scstep>
  <scstep>
   <time name="dav">   29.72   29.79</time>
   <time name="total">   30.23   30.31</time>
   <energy>
    <i name="e_fr_energy">   -191.42619070 </i>
    <i name="e_wo_entrp">   -191.20932003 </i>
    <i name="e_0_energy">   -191.31775536 </i>
   </energy>
  </scstep>
  <scstep>
   <time name="dav">   27.92   27.98</time>
   <time name="total">   28.43   28.51</time>
   <energy>
    <i name="e_fr_energy">   -190.98925959 </i>
    <i name="e_wo_entrp">   -190.77773397 </i>
    <i name="e_0_energy">   -190.88349678 </i>
   </energy>
  </scstep>
  <scstep>
   <time name="dav">   29.29   29.36</time>
   <time name="total">   29.81   29.89</time>
   <energy>
    <i name="e_fr_energy">   -190.98093127 </i>
    <i name="e_wo_entrp">   -190.78579292 </i>
    <i name="e_0_energy">   -190.88336210 </i>
   </energy>
  </scstep>
  <scstep>
   <time name="dav">   29.64   29.71</time>
   <time name="total">   30.16   30.24</time>
   <energy>
    <i name="e_fr_energy">   -190.80619510 </i>
    <i name="e_wo_entrp">   -190.59895024 </i>
    <i name="e_0_energy">   -190.70257267 </i>
   </energy>
  </scstep>
  <scstep>
   <time name="dav">   30.40   30.47</time>
   <time name="total">   30.91   30.99</time>
   <energy>
    <i name="e_fr_energy">   -190.80627956 </i>
    <i name="e_wo_entrp">   -190.60020202 </i>
    <i name="e_0_energy">   -190.70324079 </i>
   </energy>
  </scstep>
  <scstep>
   <time name="dav">   29.09   29.16</time>
   <time name="total">   29.60   29.68</time>
   <energy>
    <i name="e_fr_energy">   -190.80445310 </i>
    <i name="e_wo_entrp">   -190.59789529 </i>
    <i name="e_0_energy">   -190.70117420 </i>
   </energy>
  </scstep>
  <scstep>
   <time name="dav">   28.51   28.58</time>
   <time name="total">   29.03   29.10</time>
   <energy>
    <i name="e_fr_energy">   -190.80086859 </i>
    <i name="e_wo_entrp">   -190.59471376 </i>
    <i name="e_0_energy">   -190.69779118 </i>
   </energy>
  </scstep>
  <scstep>
   <time name="dav">   27.59   27.65</time>
   <time name="total">   28.11   28.18</time>
   <energy>
    <i name="e_fr_energy">   -190.80117604 </i>
    <i name="e_wo_entrp">   -190.59488755 </i>
    <i name="e_0_energy">   -190.69803180 </i>
   </energy>
  </scstep>
  <scstep>
   <time name="dav">   26.47   26.54</time>
   <time name="total">   26.99   27.06</time>
   <energy>
    <i name="e_fr_energy">   -190.80095321 </i>
    <i name="e_wo_entrp">   -190.59455814 </i>
    <i name="e_0_energy">   -190.69775568 </i>
   </energy>
  </scstep>
  <scstep>
   <time name="dav">   19.80   19.85</time>
   <time name="total">   19.84   19.89</time>
   <energy>
    <i name="alphaZ">     85.81991808 </i>
    <i name="ewald">  42832.51754228 </i>
    <i name="hartreedc"> -48820.23657689 </i>
    <i name="XCdc">   -234.30306062 </i>
    <i name="pawpsdc">   4063.64698728 </i>
    <i name="pawaedc">  -3479.52639072 </i>
    <i name="eentropy">     -0.20642592 </i>
    <i name="bandstr">  -1399.95548097 </i>
    <i name="atom">   6761.44252427 </i>
    <i name="e_fr_energy">   -190.80096321 </i>
    <i name="e_wo_entrp">   -190.59453730 </i>
    <i name="e_0_energy">   -190.69775026 </i>
   </energy>
  </scstep>
  <structure>
   <crystal>
    <varray name="basis" >
     <v>       8.48930595       4.89783270       0.00000000 </v>
     <v>      -8.48903193       4.89735433       0.00000000 </v>
     <v>       0.00000000       0.00000000      30.00000000 </v>
    </varray>
    <i name="volume">   2494.58992411 </i>
    <varray name="rec_basis" >
     <v>       0.05889570       0.10208931       0.00000000 </v>
     <v>      -0.05890146       0.10209260       0.00000000 </v>
     <v>       0.00000000       0.00000000       0.03333333 </v>
    </varray>
   </crystal>
   <varray name="positions" >
    <v>       0.66911300       0.00239371       0.00026875 </v>
    <v>       0.33080435       0.66686662      -0.00004077 </v>
    <v>       0.99735649       0.33357709      -0.00002799 </v>
    <v>      -0.00548382       0.66732148      -0.00021221 </v>
    <v>       0.00195417      -0.00415223       0.00004291 </v>
    <v>       0.66876268       0.33846474       0.00001107 </v>
    <v>       0.32931331       0.00116130      -0.00015517 </v>
    <v>       0.33308266       0.32813888      -0.00006535 </v>
    <v>       0.67459646       0.66636035       0.00018911 </v>
    <v>       0.10924444       0.22562042       0.95099066 </v>
    <v>       0.22317237       0.11151281       0.05140739 </v>
    <v>       0.11349306       0.55271796       0.95194197 </v>
    <v>       0.21995335       0.44626170       0.04786488 </v>
    <v>       0.11232133       0.88922716       0.94861066 </v>
    <v>       0.22542786       0.77593892       0.04919918 </v>
    <v>       0.44342331       0.22148301       0.94897903 </v>
    <v>       0.55704655       0.10750660       0.04889803 </v>
    <v>       0.44235690       0.55781580       0.95141425 </v>
    <v>       0.55478928       0.44517643       0.05099631 </v>
    <v>       0.44643229       0.88684836       0.95211151 </v>
    <v>       0.55351140       0.77963899       0.04756244 </v>
    <v>       0.78048141       0.21950037       0.95169992 </v>
    <v>       0.88617300       0.11370067       0.04800142 </v>
    <v>       0.77712165       0.55615225       0.94826790 </v>
    <v>       0.89208277       0.44148568       0.04954537 </v>
    <v>       0.77403877       0.89042944       0.95075723 </v>
    <v>       0.88764540       0.77706593       0.05174139 </v>
   </varray>
  </structure>
  <varray name="forces" >
   <v>      -0.00142799       0.06034611       0.05166092 </v>
   <v>      -0.20283090      -0.03251949      -0.00843038 </v>
   <v>      -0.18738453      -0.02323664      -0.00090721 </v>
   <v>      -0.55874448      -0.21295455       0.03192313 </v>
   <v>       0.59054820      -0.02252073      -0.03095464 </v>
   <v>      -0.39131851       0.30597676       0.03583042 </v>
   <v>      -0.50512325      -0.09055263       0.03712941 </v>
   <v>       0.47655764      -0.27831468      -0.05775255 </v>
   <v>       0.61879915       0.27860813      -0.03697439 </v>
   <v>       0.00003268      -0.04672423      -0.20167836 </v>
   <v>      -0.00737299      -0.03384601       0.57340659 </v>
   <v>      -0.05116118      -0.03856025      -0.29274634 </v>
   <v>       0.01715709      -0.03885056       0.19113036 </v>
   <v>       0.05993972      -0.04084105      -0.57459666 </v>
   <v>      -0.05154272      -0.03675823       0.23777069 </v>
   <v>       0.08340566       0.01843175      -0.45172360 </v>
   <v>      -0.03848217       0.00875462       0.15515303 </v>
   <v>       0.06664594       0.03914264      -0.02609642 </v>
   <v>      -0.04861469       0.02605761       0.41987520 </v>
   <v>      -0.02778050       0.01927029      -0.22085855 </v>
   <v>       0.06302417       0.01487944       0.13723560 </v>
   <v>      -0.01743159       0.02092192      -0.32698684 </v>
   <v>       0.04190731       0.02605131       0.24957510 </v>
   <v>       0.02540869       0.01657447      -0.67174946 </v>
   <v>      -0.00354058       0.03274918       0.36608610 </v>
   <v>       0.03538848       0.00610733      -0.24481840 </v>
   <v>       0.01394136       0.02180749       0.65949724 </v>
  </varray>
  <varray name="stress" >
   <v>      -5.68284694       0.01432580      -0.18908072 </v>
   <v>       0.01432607      -6.08453868       0.03111244 </v>
   <v>      -0.18908078       0.03111233       4.60043596 </v>
  </varray>
  <energy>
   <i name="e_fr_energy">   -190.80096321 </i>
   <i name="e_wo_entrp">   -190.69775026 </i>
   <i name="e_0_energy">     -0.20642592 </i>
  </energy>
  <time name="totalsc">  379.75  380.76</time>
 </calculation>
 <calculation>
  <scstep>
   <time name="dav">   21.57   21.62</time>
   <time name="total">   22.09   22.14</time>
   <energy>
    <i name="alphaZ">     90.27245054 </i>
    <i name="ewald">  44719.39750289 </i>
    <i name="hartreedc"> -50762.93441557 </i>
    <i name="XCdc">   -231.74451682 </i>
    <i name="pawpsdc">   4063.57227472 </i>
    <i name="pawaedc">  -3479.44806084 </i>
    <i name="eentropy">     -0.18011475 </i>
    <i name="bandstr">  -1352.66494618 </i>
    <i name="atom">   6761.44252427 </i>
    <i name="e_fr_energy">   -192.28730174 </i>
    <i name="e_wo_entrp">   -192.10718698 </i>
    <i name="e_0_energy">   -192.19724436 </i>
   </energy>
  </scstep>
  <scstep>
   <time name="dav">   27.65   27.72</time>
   <time name="total">   28.16   28.24</time>
   <energy>
    <i name="e_fr_energy">   -191.99548459 </i>
    <i name="e_wo_entrp">   -191.78266957 </i>
    <i name="e_0_energy">   -191.88907708 </i>
   </energy>
  </scstep>
  <scstep>
   <time name="dav">   29.71   29.79</time>
   <time name="total">   30.22   30.30</time>
   <energy>
    <i name="e_fr_energy">   -192.42134286 </i>
    <i name="e_wo_entrp">   -192.24637743 </i>
    <i name="e_0_energy">   -192.33386014 </i>
   </energy>
  </scstep>
  <scstep>
   <time name="dav">   29.98   30.05</time>
   <time name="total">   30.49   30.57</time>
   <energy>
    <i name="e_fr_energy">   -191.70660357 </i>
    <i name="e_wo_entrp">   -191.51716846 </i>
    <i name="e_0_energy">   -191.61188601 </i>
   </energy>
  </scstep>
  <scstep>
   <time name="dav">   29.39   29.46</time>
   <time name="total">   29.90   29.98</time>
   <energy>
    <i name="e_fr_energy">   -191.73091900 </i>
    <i name="e_wo_entrp">   -191.52977099 </i>
    <i name="e_0_energy">   -191.63034499 </i>
   </energy>
  </scstep>
  <scstep>
   <time name="dav">   29.96   30.04</time>
   <time name="total">   30.48   30.56</time>
   <energy>
    <i name="e_fr_energy">   -191.54383474 </i>
    <i name="e_wo_entrp">   -191.35403893 </i>
    <i name="e_0_energy">   -191.44893683 </i>
   </energy>
  </scstep>
  <scstep>
   <time name="dav">   29.21   29.28</time>
   <time name="total">   29.72   29.80</time>
   <energy>
    <i name="e_fr_energy">   -191.54327249 </i>
    <i name="e_wo_entrp">   -191.34679215 </i>
    <i name="e_0_energy">   -191.44503232 </i>
   </energy>
  </scstep>
  <scstep>
   <time name="dav">   28.66   28.73</time>
   <time name="total">   29.17   29.25</time>
   <energy>
    <i name="e_fr_energy">   -191.53113530 </i>
    <i name="e_wo_entrp">   -191.33580716 </i>
    <i name="e_0_energy">   -191.43347123 </i>
   </energy>
  </scstep>
  <scstep>
   <time name="dav">   29.32   29.39</time>
   <time name="total">   29.83   29.91</time>
   <energy>
    <i name="e_fr_energy">   -191.52774216 </i>
    <i name="e_wo_entrp">   -191.33291012 </i>
    <i name="e_0_energy">   -191.43032614 </i>
   </energy>
  </scstep>
  <scstep>
   <time name="dav">   26.36   26.43</time>
   <time name="total">   26.87   26.95</time>
   <energy>
    <i name="e_fr_energy">   -191.52780225 </i>
    <i name="e_wo_entrp">   -191.33298366 </i>
    <i name="e_0_energy">   -191.43039295 </i>
   </energy>
  </scstep>
  <scstep>
   <time name="dav">   23.63   23.69</time>
   <time name="total">   23.67   23.73</time>
   <energy>
    <i name="alphaZ">     90.27245054 </i>
    <i name="ewald">  44719.39750289 </i>
    <i name="hartreedc"> -50728.08358839 </i>
    <i name="XCdc">   -233.29114032 </i>
    <i name="pawpsdc">   4089.70259283 </i>
    <i name="pawaedc">  -3505.73323243 </i>
    <i name="eentropy">     -0.19499107 </i>
    <i name="bandstr">  -1385.03995050 </i>
    <i name="atom">   6761.44252427 </i>
    <i name="e_fr_energy">   -191.52783218 </i>
    <i name="e_wo_entrp">   -191.33284111 </i>
    <i name="e_0_energy">   -191.43033664 </i>
   </energy>
  </scstep>
  <structure>
   <crystal>
    <varray name="basis" >
     <v>       8.28813987       4.77050905       0.00000000 </v>
     <v>      -8.28679945       4.76818304       0.00000000 </v>
     <v>       0.00000000       0.00000000      30.00000000 </v>
    </varray>
    <i name="volume">   2371.54859145 </i>
    <varray name="rec_basis" >
     <v>       0.06031734       0.10482770       0.00000000 </v>
     <v>      -0.06034676       0.10484466       0.00000000 </v>
     <v>       0.00000000       0.00000000       0.03333333 </v>
    </varray>
   </crystal>
   <varray name="positions" >
    <v>       0.66988432       0.00319190       0.00048815 </v>
    <v>       0.32900061       0.66782849      -0.00007140 </v>
    <v>       0.99574888       0.33454092      -0.00002878 </v>
    <v>      -0.01215249       0.66877634      -0.00006328 </v>
    <v>       0.00591590      -0.00866400      -0.00011498 </v>
    <v>       0.66959623       0.34500750       0.00018657 </v>
    <v>       0.32460208       0.00379114       0.00002144 </v>
    <v>       0.33316991       0.32133075      -0.00034113 </v>
    <v>       0.68239150       0.66525174       0.00001065 </v>
    <v>       0.10830545       0.22520780       0.94963973 </v>
    <v>       0.22259052       0.11103498       0.05433466 </v>
    <v>       0.11291751       0.55239267       0.95029761 </v>
    <v>       0.21931151       0.44599061       0.04912215 </v>
    <v>       0.11203710       0.88828354       0.94567946 </v>
    <v>       0.22475609       0.77544845       0.05070688 </v>
    <v>       0.44434176       0.22126429       0.94655660 </v>
    <v>       0.55724867       0.10771980       0.05005869 </v>
    <v>       0.44301546       0.55812900       0.95076553 </v>
    <v>       0.55483639       0.44569833       0.05330804 </v>
    <v>       0.44680188       0.88696243       0.95074464 </v>
    <v>       0.55379731       0.77967508       0.04857356 </v>
    <v>       0.78082691       0.21963452       0.94989305 </v>
    <v>       0.88656387       0.11394482       0.04947714 </v>
    <v>       0.77753031       0.55612508       0.94493595 </v>
    <v>       0.89272147       0.44168772       0.05156346 </v>
    <v>       0.77419539       0.89065453       0.94921614 </v>
    <v>       0.88825988       0.77730603       0.05503937 </v>
   </varray>
  </structure>
  <varray name="forces" >
   <v>       0.03597994      -0.04846536       0.05357710 </v>
   <v>      -0.30228321       0.03507623      -0.04201900 </v>
   <v>      -0.23701227       0.03124894      -0.00023590 </v>
   <v>      -0.06439087      -0.10240555      -0.07415527 </v>
   <v>       0.27346248       0.11579880       0.09087047 </v>
   <v>      -0.21346055       0.16625054      -0.09196707 </v>
   <v>      -0.26990859      -0.07873650      -0.09967643 </v>
   <v>       0.36280695      -0.25805135       0.05091036 </v>
   <v>       0.22379930       0.13612223       0.04114285 </v>
   <v>       0.15283378      -0.10870603       0.06296231 </v>
   <v>      -0.04213712      -0.06910209       0.35517035 </v>
   <v>      -0.19035414      -0.04612074      -0.03873503 </v>
   <v>       0.12909116      -0.04150674      -0.09521928 </v>
   <v>       0.14356966      -0.09703879      -0.22774969 </v>
   <v>      -0.20177643      -0.06956666       0.03561108 </v>
   <v>       0.16280991       0.04537197      -0.18952730 </v>
   <v>      -0.20898594       0.05419997      -0.11508595 </v>
   <v>       0.20891161       0.03207496       0.24995869 </v>
   <v>      -0.10120614       0.03248820       0.11983842 </v>
   <v>      -0.15257513       0.02642154       0.00320102 </v>
   <v>       0.20556142       0.00729224      -0.08220951 </v>
   <v>      -0.14158427       0.02222314       0.00335011 </v>
   <v>       0.17734283       0.03624548      -0.07330757 </v>
   <v>       0.06940527       0.01395245      -0.32394948 </v>
   <v>      -0.18931745       0.03579820       0.07937000 </v>
   <v>       0.19908705       0.05831741       0.01469390 </v>
   <v>      -0.02966923       0.07081753       0.29318084 </v>
  </varray>
  <varray name="stress" >
   <v>       0.95378864       0.02372604      -0.80292427 </v>
   <v>       0.02372599      -0.28147066       0.12449428 </v>
   <v>      -0.80292430       0.12449440       0.02421984 </v>
  </varray>
  <energy>
   <i name="e_fr_energy">   -191.52783218 </i>
   <i name="e_wo_entrp">   -191.43033664 </i>
   <i name="e_0_energy">     -0.19499107 </i>
  </energy>
  <time name="totalsc">  352.37  353.30</time>
 </calculation>
 <calculation>
  <scstep>
   <time name="dav">   21.55   21.60</time>
   <time name="total">   22.06   22.12</time>
   <energy>
    <i name="alphaZ">     89.99462567 </i>
    <i name="ewald">  44575.62148646 </i>
    <i name="hartreedc"> -50581.92777426 </i>
    <i name="XCdc">   -233.55878319 </i>
    <i name="pawpsdc">   4089.87451106 </i>
    <i name="pawaedc">  -3505.90269767 </i>
    <i name="eentropy">     -0.19665607 </i>
    <i name="bandstr">  -1386.93356020 </i>
    <i name="atom">   6761.44252427 </i>
    <i name="e_fr_energy">   -191.58632393 </i>
    <i name="e_wo_entrp">   -191.38966786 </i>
    <i name="e_0_energy">   -191.48799590 </i>
   </energy>
  </scstep>
  <scstep>
   <time name="dav">   30.33   30.40</time>
   <time name="total">   30.83   30.92</time>
   <energy>
    <i name="e_fr_energy">   -191.66303735 </i>
    <i name="e_wo_entrp">   -191.45303596 </i>
    <i name="e_0_energy">   -191.55803666 </i>
   </energy>
  </scstep>
  <scstep>
   <time name="dav">   30.31   30.38</time>
   <time name="total">   30.82   30.90</time>
   <energy>
    <i name="e_fr_energy">   -191.59407322 </i>
    <i name="e_wo_entrp">   -191.39542108 </i>
    <i name="e_0_energy">   -191.49474715 </i>
   </energy>
  </scstep>
  <scstep>
   <time name="dav">   28.77   28.84</time>
   <time name="total">   29.27   29.35</time>
   <energy>
    <i name="e_fr_energy">   -191.59795056 </i>
    <i name="e_wo_entrp">   -191.39863858 </i>
    <i name="e_0_energy">   -191.49829457 </i>
   </energy>
  </scstep>
  <scstep>
   <time name="dav">   28.75   28.82</time>
   <time name="total">   29.26   29.34</time>
   <energy>
    <i name="e_fr_energy">   -191.59187217 </i>
    <i name="e_wo_entrp">   -191.39128038 </i>
    <i name="e_0_energy">   -191.49157628 </i>
   </energy>
  </scstep>
  <scstep>
   <time name="dav">   28.11   28.17</time>
   <time name="total">   28.61   28.69</time>
   <energy>
    <i name="e_fr_energy">   -191.59227893 </i>
    <i name="e_wo_entrp">   -191.39350395 </i>
    <i name="e_0_energy">   -191.49289144 </i>
   </energy>
  </scstep>
  <scstep>
   <time name="dav">   28.19   28.25</time>
   <time name="total">   28.69   28.77</time>
   <energy>
    <i name="e_fr_energy">   -191.59156961 </i>
    <i name="e_wo_entrp">   -191.39153887 </i>
    <i name="e_0_energy">   -191.49155424 </i>
   </energy>
  </scstep>
  <scstep>
   <time name="dav">   23.55   23.61</time>
   <time name="total">   24.06   24.13</time>
   <energy>
    <i name="e_fr_energy">   -191.59119007 </i>
    <i name="e_wo_entrp">   -191.39160212 </i>
    <i name="e_0_energy">   -191.49139610 </i>
   </energy>
  </scstep>
  <scstep>
   <time name="dav">   17.83   17.88</time>
   <time name="total">   17.87   17.92</time>
   <energy>
    <i name="alphaZ">     89.99462567 </i>
    <i name="ewald">  44575.62148646 </i>
    <i name="hartreedc"> -50585.15854000 </i>
    <i name="XCdc">   -233.44503721 </i>
    <i name="pawpsdc">   4085.03158626 </i>
    <i name="pawaedc">  -3500.99441454 </i>
    <i name="eentropy">     -0.19967575 </i>
    <i name="bandstr">  -1383.88373701 </i>
    <i name="atom">   6761.44252427 </i>
    <i name="e_fr_energy">   -191.59118186 </i>
    <i name="e_wo_entrp">   -191.39150611 </i>
    <i name="e_0_energy">   -191.49134398 </i>
   </energy>
  </scstep>
  <structure>
   <crystal>
    <varray name="basis" >
     <v>       8.31313434       4.77141778       0.00000000 </v>
     <v>      -8.31129771       4.76823625       0.00000000 </v>
     <v>       0.00000000       0.00000000      30.00000000 </v>
    </varray>
    <i name="volume">   2378.86986400 </i>
    <varray name="rec_basis" >
     <v>       0.06013237       0.10481403       0.00000000 </v>
     <v>      -0.06017249       0.10483719       0.00000000 </v>
     <v>       0.00000000       0.00000000       0.03333333 </v>
    </varray>
   </crystal>
   <varray name="positions" >
    <v>       0.66971607       0.00282989       0.00055597 </v>
    <v>       0.32844429       0.66875377      -0.00013199 </v>
    <v>       0.99534028       0.33527406      -0.00002918 </v>
    <v>      -0.01246714       0.66839756      -0.00018075 </v>
    <v>       0.00698593      -0.00863259       0.00002802 </v>
    <v>       0.66976159       0.34602576       0.00004115 </v>
    <v>       0.32374942       0.00401146      -0.00013527 </v>
    <v>       0.33293261       0.31950064      -0.00025093 </v>
    <v>       0.68323607       0.66534522       0.00008117 </v>
    <v>       0.10826755       0.22431008       0.94981727 </v>
    <v>       0.22218987       0.11085422       0.05469339 </v>
    <v>       0.11221508       0.55271025       0.95033722 </v>
    <v>       0.21950474       0.44545570       0.04890334 </v>
    <v>       0.11199103       0.88749685       0.94550890 </v>
    <v>       0.22392294       0.77570218       0.05066664 </v>
    <v>       0.44493829       0.22104593       0.94641678 </v>
    <v>       0.55692007       0.10852459       0.04981375 </v>
    <v>       0.44369929       0.55769426       0.95118437 </v>
    <v>       0.55471224       0.44609839       0.05334993 </v>
    <v>       0.44648795       0.88749755       0.95083277 </v>
    <v>       0.55437722       0.77914812       0.04838709 </v>
    <v>       0.78052794       0.22011738       0.95000361 </v>
    <v>       0.88719372       0.11361994       0.04928040 </v>
    <v>       0.77775935       0.55600745       0.94464361 </v>
    <v>       0.89234192       0.44235704       0.05156272 </v>
    <v>       0.77499541       0.89036899       0.94933242 </v>
    <v>       0.88847073       0.77769974       0.05528748 </v>
   </varray>
  </structure>
  <varray name="forces" >
   <v>       0.08617644      -0.04729549       0.07592720 </v>
   <v>      -0.36951241       0.04258495      -0.02182580 </v>
   <v>      -0.26839335       0.02730930       0.02520558 </v>
   <v>      -0.13696492      -0.11671412       0.01768259 </v>
   <v>       0.34150190       0.09868003       0.01790563 </v>
   <v>      -0.24933035       0.21392481      -0.02240836 </v>
   <v>      -0.32326970      -0.11332688      -0.00560066 </v>
   <v>       0.41045698      -0.29894879       0.00928866 </v>
   <v>       0.31087528       0.20575760      -0.02605077 </v>
   <v>       0.09581445      -0.06230542       0.07762159 </v>
   <v>       0.03484609      -0.04096880       0.29095123 </v>
   <v>      -0.10605867      -0.03060766      -0.07243694 </v>
   <v>       0.09312684      -0.01807231      -0.13134173 </v>
   <v>       0.07104839      -0.06756849      -0.18594158 </v>
   <v>      -0.11809743      -0.03540462       0.03190424 </v>
   <v>       0.08999547       0.02625435      -0.15698062 </v>
   <v>      -0.12914812       0.02973952      -0.15025206 </v>
   <v>       0.12693214      -0.00474803       0.27958622 </v>
   <v>      -0.05101158       0.00709598       0.07515741 </v>
   <v>      -0.10056255       0.02220003      -0.01467562 </v>
   <v>       0.12676342      -0.00921566      -0.08246559 </v>
   <v>      -0.08879376       0.00907677       0.00448608 </v>
   <v>       0.11115870       0.03081155      -0.08058097 </v>
   <v>      -0.00309848       0.01888369      -0.24723216 </v>
   <v>      -0.11492438       0.00931373       0.06395586 </v>
   <v>       0.12739854       0.05807787       0.02886566 </v>
   <v>       0.03307106       0.04546609       0.19925491 </v>
  </varray>
  <varray name="stress" >
   <v>      -0.26484728      -0.03037097      -0.25343120 </v>
   <v>      -0.03037091      -0.34626374       0.05715119 </v>
   <v>      -0.25343113       0.05715116      -0.69196542 </v>
  </varray>
  <energy>
   <i name="e_fr_energy">   -191.59118186 </i>
   <i name="e_wo_entrp">   -191.49134398 </i>
   <i name="e_0_energy">     -0.19967575 </i>
  </energy>
  <time name="totalsc">  283.24  284.01</time>
 </calculation>
 <calculation>
  <scstep>
   <time name="dav">   21.55   21.60</time>
   <time name="total">   22.06   22.11</time>
   <energy>
    <i name="alphaZ">     90.23607490 </i>
    <i name="ewald">  44667.10685159 </i>
    <i name="hartreedc"> -50679.76245735 </i>
    <i name="XCdc">   -233.35211338 </i>
    <i name="pawpsdc">   4084.65664150 </i>
    <i name="pawaedc">  -3500.61569910 </i>
    <i name="eentropy">     -0.19579280 </i>
    <i name="bandstr">  -1381.19332485 </i>
    <i name="atom">   6761.44252427 </i>
    <i name="e_fr_energy">   -191.67729522 </i>
    <i name="e_wo_entrp">   -191.48150242 </i>
    <i name="e_0_energy">   -191.57939882 </i>
   </energy>
  </scstep>
  <scstep>
   <time name="dav">   31.05   31.13</time>
   <time name="total">   31.56   31.65</time>
   <energy>
    <i name="e_fr_energy">   -191.77814586 </i>
    <i name="e_wo_entrp">   -191.56039002 </i>
    <i name="e_0_energy">   -191.66926794 </i>
   </energy>
  </scstep>
  <scstep>
   <time name="dav">   30.26   30.33</time>
   <time name="total">   30.77   30.85</time>
   <energy>
    <i name="e_fr_energy">   -191.68901681 </i>
    <i name="e_wo_entrp">   -191.49023674 </i>
    <i name="e_0_energy">   -191.58962678 </i>
   </energy>
  </scstep>
  <scstep>
   <time name="dav">   28.58   28.65</time>
   <time name="total">   29.09   29.17</time>
   <energy>
    <i name="e_fr_energy">   -191.69384812 </i>
    <i name="e_wo_entrp">   -191.49538391 </i>
    <i name="e_0_energy">   -191.59461602 </i>
   </energy>
  </scstep>
  <scstep>
   <time name="dav">   28.75   28.82</time>
   <time name="total">   29.26   29.33</time>
   <energy>
    <i name="e_fr_energy">   -191.68347414 </i>
    <i name="e_wo_entrp">   -191.48250966 </i>
    <i name="e_0_energy">   -191.58299190 </i>
   </energy>
  </scstep>
  <scstep>
   <time name="dav">   28.50   28.57</time>
   <time name="total">   29.01   29.09</time>
   <energy>
    <i name="e_fr_energy">   -191.68349499 </i>
    <i name="e_wo_entrp">   -191.48308379 </i>
    <i name="e_0_energy">   -191.58328939 </i>
   </energy>
  </scstep>
  <scstep>
   <time name="dav">   28.33   28.40</time>
   <time name="total">   28.84   28.91</time>
   <energy>
    <i name="e_fr_energy">   -191.68333796 </i>
    <i name="e_wo_entrp">   -191.48109666 </i>
    <i name="e_0_energy">   -191.58221731 </i>
   </energy>
  </scstep>
  <scstep>
   <time name="dav">   25.37   25.43</time>
   <time name="total">   25.88   25.95</time>
   <energy>
    <i name="e_fr_energy">   -191.68244623 </i>
    <i name="e_wo_entrp">   -191.48119064 </i>
    <i name="e_0_energy">   -191.58181843 </i>
   </energy>
  </scstep>
  <scstep>
   <time name="dav">   18.31   18.35</time>
   <time name="total">   18.34   18.39</time>
   <energy>
    <i name="alphaZ">     90.23607490 </i>
    <i name="ewald">  44667.10685159 </i>
    <i name="hartreedc"> -50678.34452708 </i>
    <i name="XCdc">   -233.40388240 </i>
[...]
      <set comment="kpoint 31">
       <r>  -17.4978    1.0000 </r>
       <r>  -17.2739    1.0000 </r>
       <r>  -16.9203    1.0000 </r>
       <r>  -16.6690    1.0000 </r>
       <r>  -16.4916    1.0000 </r>
       <r>  -16.4133    1.0000 </r>
       <r>  -16.2798    1.0000 </r>
       <r>  -16.2208    1.0000 </r>
       <r>  -16.1750    1.0000 </r>
       <r>  -16.0769    1.0000 </r>
       <r>  -15.9192    1.0000 </r>
       <r>  -15.8439    1.0000 </r>
       <r>  -15.7515    1.0000 </r>
       <r>  -15.6764    1.0000 </r>
       <r>  -15.5829    1.0000 </r>
       <r>  -15.4890    1.0000 </r>
       <r>  -15.3666    1.0000 </r>
       <r>  -15.2873    1.0000 </r>
       <r>   -9.7191    1.0000 </r>
       <r>   -9.4602    1.0000 </r>
       <r>   -9.3540    1.0000 </r>
       <r>   -8.9103    1.0000 </r>
       <r>   -8.8499    1.0000 </r>
       <r>   -8.7077    1.0000 </r>
       <r>   -8.5795    1.0000 </r>
       <r>   -8.5062    1.0000 </r>
       <r>   -8.4685    1.0000 </r>
       <r>   -8.3455    1.0000 </r>
       <r>   -8.2959    1.0000 </r>
       <r>   -8.1615    1.0000 </r>
       <r>   -8.0801    1.0000 </r>
       <r>   -8.0276    1.0000 </r>
       <r>   -8.0042    1.0000 </r>
       <r>   -7.8817    1.0000 </r>
       <r>   -7.7958    1.0000 </r>
       <r>   -7.6934    1.0000 </r>
       <r>   -7.5795    1.0000 </r>
       <r>   -7.4473    1.0000 </r>
       <r>   -7.3652    1.0000 </r>
       <r>   -7.2462    1.0000 </r>
       <r>   -7.1039    1.0000 </r>
       <r>   -7.0376    1.0000 </r>
       <r>   -7.0121    1.0000 </r>
       <r>   -6.9668    1.0000 </r>
       <r>   -6.8564    1.0000 </r>
       <r>   -6.7734    1.0000 </r>
       <r>   -6.7242    1.0000 </r>
       <r>   -6.5838    1.0000 </r>
       <r>   -6.5397    1.0000 </r>
       <r>   -6.4769    1.0000 </r>
       <r>   -6.3914    1.0000 </r>
       <r>   -6.3118    1.0000 </r>
       <r>   -6.2960    1.0000 </r>
       <r>   -6.2163    1.0000 </r>
       <r>   -6.1519    1.0000 </r>
       <r>   -6.0754    1.0000 </r>
       <r>   -5.9980    1.0000 </r>
       <r>   -5.8971    1.0000 </r>
       <r>   -5.8549    1.0000 </r>
       <r>   -5.7890    1.0000 </r>
       <r>   -5.7147    1.0000 </r>
       <r>   -5.6663    1.0000 </r>
       <r>   -5.5697    1.0000 </r>
       <r>   -5.3532    1.0000 </r>
       <r>   -5.2489    1.0000 </r>
       <r>   -5.1902    1.0000 </r>
       <r>   -5.0913    1.0000 </r>
       <r>   -4.8596    1.0000 </r>
       <r>   -4.7898    1.0000 </r>
       <r>   -4.6972    1.0000 </r>
       <r>   -4.4992    1.0000 </r>
       <r>   -4.3863    1.0000 </r>
       <r>   -4.3297    1.0000 </r>
       <r>   -4.2413    1.0000 </r>
       <r>   -4.1732    1.0000 </r>
       <r>   -4.1056    1.0000 </r>
       <r>   -3.9547    1.0000 </r>
       <r>   -3.8268    0.9997 </r>
       <r>   -3.6233    0.9745 </r>
       <r>   -3.3106    0.3976 </r>
       <r>   -2.9559    0.0028 </r>
       <r>   -2.7915    0.0000 </r>
       <r>   -2.6765    0.0000 </r>
       <r>   -2.6160    0.0000 </r>
       <r>   -2.4322    0.0000 </r>
       <r>   -2.4121    0.0000 </r>
       <r>   -2.2919    0.0000 </r>
       <r>   -2.2167    0.0000 </r>
       <r>   -2.0508    0.0000 </r>
       <r>   -2.0026    0.0000 </r>
       <r>   -1.8978    0.0000 </r>
       <r>   -1.4821    0.0000 </r>
       <r>   -1.3154    0.0000 </r>
       <r>   -1.2255    0.0000 </r>
       <r>   -1.1806    0.0000 </r>
       <r>   -1.1006    0.0000 </r>
       <r>   -1.0610    0.0000 </r>
       <r>   -0.9753    0.0000 </r>
       <r>   -0.9217    0.0000 </r>
       <r>   -0.8812    0.0000 </r>
       <r>   -0.8112    0.0000 </r>
       <r>   -0.7717    0.0000 </r>
       <r>   -0.6728    0.0000 </r>
       <r>   -0.6040    0.0000 </r>
       <r>   -0.4944    0.0000 </r>
       <r>   -0.4165    0.0000 </r>
       <r>   -0.2417    0.0000 </r>
       <r>   -0.1780    0.0000 </r>
       <r>   -0.0026    0.0000 </r>
       <r>    0.1578    0.0000 </r>
       <r>    0.3478    0.0000 </r>
       <r>    0.4538    0.0000 </r>
       <r>    0.7981    0.0000 </r>
       <r>    0.8989    0.0000 </r>
       <r>    1.0688    0.0000 </r>
       <r>    1.3279    0.0000 </r>
       <r>    1.4604    0.0000 </r>
       <r>    2.1234    0.0000 </r>
       <r>    2.2889    0.0000 </r>
       <r>    2.3937    0.0000 </r>
      </set>
      <set comment="kpoint 32">
       <r>  -17.5284    1.0000 </r>
       <r>  -17.1427    1.0000 </r>
       <r>  -17.0727    1.0000 </r>
       <r>  -16.6743    1.0000 </r>
       <r>  -16.4056    1.0000 </r>
       <r>  -16.3164    1.0000 </r>
       <r>  -16.2935    1.0000 </r>
       <r>  -16.2807    1.0000 </r>
       <r>  -16.2058    1.0000 </r>
       <r>  -16.0518    1.0000 </r>
       <r>  -15.9579    1.0000 </r>
       <r>  -15.8601    1.0000 </r>
       <r>  -15.7493    1.0000 </r>
       <r>  -15.6866    1.0000 </r>
       <r>  -15.5831    1.0000 </r>
       <r>  -15.4806    1.0000 </r>
       <r>  -15.3828    1.0000 </r>
       <r>  -15.2656    1.0000 </r>
       <r>   -9.6226    1.0000 </r>
       <r>   -9.5279    1.0000 </r>
       <r>   -9.4591    1.0000 </r>
       <r>   -8.9761    1.0000 </r>
       <r>   -8.7581    1.0000 </r>
       <r>   -8.5747    1.0000 </r>
       <r>   -8.5018    1.0000 </r>
       <r>   -8.4684    1.0000 </r>
       <r>   -8.4347    1.0000 </r>
       <r>   -8.3863    1.0000 </r>
       <r>   -8.2528    1.0000 </r>
       <r>   -8.2091    1.0000 </r>
       <r>   -8.1543    1.0000 </r>
       <r>   -8.0963    1.0000 </r>
       <r>   -8.0294    1.0000 </r>
       <r>   -7.9537    1.0000 </r>
       <r>   -7.8015    1.0000 </r>
       <r>   -7.6593    1.0000 </r>
       <r>   -7.4953    1.0000 </r>
       <r>   -7.4660    1.0000 </r>
       <r>   -7.3974    1.0000 </r>
       <r>   -7.2269    1.0000 </r>
       <r>   -7.1249    1.0000 </r>
       <r>   -7.0541    1.0000 </r>
       <r>   -7.0129    1.0000 </r>
       <r>   -6.9599    1.0000 </r>
       <r>   -6.9101    1.0000 </r>
       <r>   -6.7402    1.0000 </r>
       <r>   -6.7213    1.0000 </r>
       <r>   -6.6138    1.0000 </r>
       <r>   -6.5316    1.0000 </r>
       <r>   -6.4759    1.0000 </r>
       <r>   -6.3904    1.0000 </r>
       <r>   -6.3578    1.0000 </r>
       <r>   -6.2777    1.0000 </r>
       <r>   -6.1894    1.0000 </r>
       <r>   -6.1279    1.0000 </r>
       <r>   -6.0838    1.0000 </r>
       <r>   -5.9977    1.0000 </r>
       <r>   -5.8852    1.0000 </r>
       <r>   -5.8431    1.0000 </r>
       <r>   -5.7738    1.0000 </r>
       <r>   -5.6925    1.0000 </r>
       <r>   -5.5915    1.0000 </r>
       <r>   -5.5611    1.0000 </r>
       <r>   -5.3996    1.0000 </r>
       <r>   -5.3261    1.0000 </r>
       <r>   -5.1820    1.0000 </r>
       <r>   -5.0484    1.0000 </r>
       <r>   -4.9368    1.0000 </r>
       <r>   -4.7813    1.0000 </r>
       <r>   -4.6686    1.0000 </r>
       <r>   -4.5371    1.0000 </r>
       <r>   -4.3828    1.0000 </r>
       <r>   -4.3128    1.0000 </r>
       <r>   -4.2497    1.0000 </r>
       <r>   -4.1722    1.0000 </r>
       <r>   -4.1122    1.0000 </r>
       <r>   -3.9959    1.0000 </r>
       <r>   -3.8473    0.9998 </r>
       <r>   -3.5145    0.8814 </r>
       <r>   -3.3396    0.4783 </r>
       <r>   -3.0347    0.0135 </r>
       <r>   -2.7327    0.0000 </r>
       <r>   -2.6324    0.0000 </r>
       <r>   -2.5707    0.0000 </r>
       <r>   -2.4046    0.0000 </r>
       <r>   -2.3939    0.0000 </r>
       <r>   -2.2778    0.0000 </r>
       <r>   -2.1938    0.0000 </r>
       <r>   -2.0538    0.0000 </r>
       <r>   -1.9930    0.0000 </r>
       <r>   -1.9213    0.0000 </r>
       <r>   -1.5071    0.0000 </r>
       <r>   -1.3972    0.0000 </r>
       <r>   -1.2650    0.0000 </r>
       <r>   -1.2117    0.0000 </r>
       <r>   -1.1118    0.0000 </r>
       <r>   -1.0689    0.0000 </r>
       <r>   -1.0319    0.0000 </r>
       <r>   -0.9406    0.0000 </r>
       <r>   -0.8925    0.0000 </r>
       <r>   -0.8286    0.0000 </r>
       <r>   -0.7587    0.0000 </r>
       <r>   -0.6594    0.0000 </r>
       <r>   -0.5938    0.0000 </r>
       <r>   -0.4685    0.0000 </r>
       <r>   -0.3397    0.0000 </r>
       <r>   -0.2518    0.0000 </r>
       <r>   -0.1858    0.0000 </r>
       <r>    0.0266    0.0000 </r>
       <r>    0.1239    0.0000 </r>
       <r>    0.4101    0.0000 </r>
       <r>    0.4951    0.0000 </r>
       <r>    0.8101    0.0000 </r>
       <r>    0.8610    0.0000 </r>
       <r>    1.0737    0.0000 </r>
       <r>    1.3067    0.0000 </r>
       <r>    1.3846    0.0000 </r>
       <r>    2.0860    0.0000 </r>
       <r>    2.2589    0.0000 </r>
       <r>    2.5540    0.0000 </r>
      </set>
      <set comment="kpoint 33">
       <r>  -17.5288    1.0000 </r>
       <r>  -17.2281    1.0000 </r>
       <r>  -16.9328    1.0000 </r>
       <r>  -16.6790    1.0000 </r>
       <r>  -16.4949    1.0000 </r>
       <r>  -16.3565    1.0000 </r>
       <r>  -16.3261    1.0000 </r>
       <r>  -16.2503    1.0000 </r>
       <r>  -16.1043    1.0000 </r>
       <r>  -16.0297    1.0000 </r>
       <r>  -15.9722    1.0000 </r>
       <r>  -15.8665    1.0000 </r>
       <r>  -15.7632    1.0000 </r>
       <r>  -15.6886    1.0000 </r>
       <r>  -15.5829    1.0000 </r>
       <r>  -15.4704    1.0000 </r>
       <r>  -15.4020    1.0000 </r>
       <r>  -15.2651    1.0000 </r>
       <r>   -9.6923    1.0000 </r>
       <r>   -9.4263    1.0000 </r>
       <r>   -9.3392    1.0000 </r>
       <r>   -9.0379    1.0000 </r>
       <r>   -8.9187    1.0000 </r>
       <r>   -8.7480    1.0000 </r>
       <r>   -8.4591    1.0000 </r>
       <r>   -8.4453    1.0000 </r>
       <r>   -8.3723    1.0000 </r>
       <r>   -8.3181    1.0000 </r>
       <r>   -8.2494    1.0000 </r>
       <r>   -8.1978    1.0000 </r>
       <r>   -8.1257    1.0000 </r>
       <r>   -8.0821    1.0000 </r>
       <r>   -8.0607    1.0000 </r>
       <r>   -7.8783    1.0000 </r>
       <r>   -7.7685    1.0000 </r>
       <r>   -7.6741    1.0000 </r>
       <r>   -7.5102    1.0000 </r>
       <r>   -7.4320    1.0000 </r>
       <r>   -7.3832    1.0000 </r>
       <r>   -7.2454    1.0000 </r>
       <r>   -7.1230    1.0000 </r>
       <r>   -7.0726    1.0000 </r>
       <r>   -7.0547    1.0000 </r>
       <r>   -6.9597    1.0000 </r>
       <r>   -6.8925    1.0000 </r>
       <r>   -6.7805    1.0000 </r>
       <r>   -6.6409    1.0000 </r>
       <r>   -6.5967    1.0000 </r>
       <r>   -6.5461    1.0000 </r>
       <r>   -6.4405    1.0000 </r>
       <r>   -6.4169    1.0000 </r>
       <r>   -6.3524    1.0000 </r>
       <r>   -6.2614    1.0000 </r>
       <r>   -6.2095    1.0000 </r>
       <r>   -6.1404    1.0000 </r>
       <r>   -6.1038    1.0000 </r>
       <r>   -6.0259    1.0000 </r>
       <r>   -5.9079    1.0000 </r>
       <r>   -5.8857    1.0000 </r>
       <r>   -5.8640    1.0000 </r>
       <r>   -5.7377    1.0000 </r>
       <r>   -5.6189    1.0000 </r>
       <r>   -5.5483    1.0000 </r>
       <r>   -5.4594    1.0000 </r>
       <r>   -5.2861    1.0000 </r>
       <r>   -5.0891    1.0000 </r>
       <r>   -5.0119    1.0000 </r>
       <r>   -4.8206    1.0000 </r>
       <r>   -4.7408    1.0000 </r>
       <r>   -4.6389    1.0000 </r>
       <r>   -4.5456    1.0000 </r>
       <r>   -4.4317    1.0000 </r>
       <r>   -4.3358    1.0000 </r>
       <r>   -4.2462    1.0000 </r>
       <r>   -4.1588    1.0000 </r>
       <r>   -4.1358    1.0000 </r>
       <r>   -4.0362    1.0000 </r>
       <r>   -3.8734    0.9999 </r>
       <r>   -3.4653    0.7980 </r>
       <r>   -3.3456    0.4953 </r>
       <r>   -3.1141    0.0496 </r>
       <r>   -2.6941    0.0000 </r>
       <r>   -2.5757    0.0000 </r>
       <r>   -2.5398    0.0000 </r>
       <r>   -2.3893    0.0000 </r>
       <r>   -2.3746    0.0000 </r>
       <r>   -2.2518    0.0000 </r>
       <r>   -2.1793    0.0000 </r>
       <r>   -2.0740    0.0000 </r>
       <r>   -1.9706    0.0000 </r>
       <r>   -1.8912    0.0000 </r>
       <r>   -1.5213    0.0000 </r>
       <r>   -1.4648    0.0000 </r>
       <r>   -1.3121    0.0000 </r>
       <r>   -1.2664    0.0000 </r>
       <r>   -1.1552    0.0000 </r>
       <r>   -1.0647    0.0000 </r>
       <r>   -1.0281    0.0000 </r>
       <r>   -0.9363    0.0000 </r>
       <r>   -0.9279    0.0000 </r>
       <r>   -0.8702    0.0000 </r>
       <r>   -0.7677    0.0000 </r>
       <r>   -0.6877    0.0000 </r>
       <r>   -0.5655    0.0000 </r>
       <r>   -0.4884    0.0000 </r>
       <r>   -0.3232    0.0000 </r>
       <r>   -0.2000    0.0000 </r>
       <r>   -0.1181    0.0000 </r>
       <r>    0.0234    0.0000 </r>
       <r>    0.0995    0.0000 </r>
       <r>    0.3977    0.0000 </r>
       <r>    0.5348    0.0000 </r>
       <r>    0.8044    0.0000 </r>
       <r>    0.9309    0.0000 </r>
       <r>    1.0482    0.0000 </r>
       <r>    1.2968    0.0000 </r>
       <r>    1.3720    0.0000 </r>
       <r>    2.1127    0.0000 </r>
       <r>    2.2843    0.0000 </r>
       <r>    2.3722    0.0000 </r>
      </set>
      <set comment="kpoint 34">
       <r>  -17.5206    1.0000 </r>
       <r>  -17.2788    1.0000 </r>
       <r>  -16.7831    1.0000 </r>
       <r>  -16.6773    1.0000 </r>
       <r>  -16.6497    1.0000 </r>
       <r>  -16.3470    1.0000 </r>
       <r>  -16.3282    1.0000 </r>
       <r>  -16.2595    1.0000 </r>
       <r>  -16.0603    1.0000 </r>
       <r>  -16.0148    1.0000 </r>
       <r>  -15.9661    1.0000 </r>
       <r>  -15.8563    1.0000 </r>
       <r>  -15.7809    1.0000 </r>
       <r>  -15.6934    1.0000 </r>
       <r>  -15.5809    1.0000 </r>
       <r>  -15.4618    1.0000 </r>
       <r>  -15.4138    1.0000 </r>
       <r>  -15.2705    1.0000 </r>
       <r>   -9.7321    1.0000 </r>
       <r>   -9.2695    1.0000 </r>
       <r>   -9.2540    1.0000 </r>
       <r>   -9.1043    1.0000 </r>
       <r>   -9.0254    1.0000 </r>
       <r>   -8.8979    1.0000 </r>
       <r>   -8.4653    1.0000 </r>
       <r>   -8.4231    1.0000 </r>
       <r>   -8.4035    1.0000 </r>
       <r>   -8.2723    1.0000 </r>
       <r>   -8.2377    1.0000 </r>
       <r>   -8.1673    1.0000 </r>
       <r>   -8.1353    1.0000 </r>
       <r>   -8.1136    1.0000 </r>
       <r>   -7.9472    1.0000 </r>
       <r>   -7.8935    1.0000 </r>
       <r>   -7.8002    1.0000 </r>
       <r>   -7.5448    1.0000 </r>
       <r>   -7.4977    1.0000 </r>
       <r>   -7.4217    1.0000 </r>
       <r>   -7.3791    1.0000 </r>
       <r>   -7.2978    1.0000 </r>
       <r>   -7.1602    1.0000 </r>
       <r>   -7.1169    1.0000 </r>
       <r>   -7.0493    1.0000 </r>
       <r>   -6.9733    1.0000 </r>
       <r>   -6.8678    1.0000 </r>
       <r>   -6.7680    1.0000 </r>
       <r>   -6.6060    1.0000 </r>
       <r>   -6.5467    1.0000 </r>
       <r>   -6.5306    1.0000 </r>
       <r>   -6.4540    1.0000 </r>
       <r>   -6.4208    1.0000 </r>
       <r>   -6.3283    1.0000 </r>
       <r>   -6.2685    1.0000 </r>
       <r>   -6.2317    1.0000 </r>
       <r>   -6.2261    1.0000 </r>
       <r>   -6.1165    1.0000 </r>
       <r>   -6.0520    1.0000 </r>
       <r>   -5.9466    1.0000 </r>
       <r>   -5.8957    1.0000 </r>
       <r>   -5.8492    1.0000 </r>
       <r>   -5.7501    1.0000 </r>
       <r>   -5.6568    1.0000 </r>
       <r>   -5.5641    1.0000 </r>
       <r>   -5.5120    1.0000 </r>
       <r>   -5.2219    1.0000 </r>
       <r>   -5.0970    1.0000 </r>
       <r>   -4.9190    1.0000 </r>
       <r>   -4.7526    1.0000 </r>
       <r>   -4.6861    1.0000 </r>
       <r>   -4.6401    1.0000 </r>
       <r>   -4.5431    1.0000 </r>
       <r>   -4.4954    1.0000 </r>
       <r>   -4.3487    1.0000 </r>
       <r>   -4.2275    1.0000 </r>
       <r>   -4.1721    1.0000 </r>
       <r>   -4.1406    1.0000 </r>
       <r>   -4.0451    1.0000 </r>
       <r>   -3.8859    0.9999 </r>
       <r>   -3.4693    0.8058 </r>
       <r>   -3.3461    0.4966 </r>
       <r>   -3.1423    0.0736 </r>
       <r>   -2.6829    0.0000 </r>
       <r>   -2.5452    0.0000 </r>
       <r>   -2.5305    0.0000 </r>
       <r>   -2.3864    0.0000 </r>
       <r>   -2.3723    0.0000 </r>
       <r>   -2.2403    0.0000 </r>
       <r>   -2.1619    0.0000 </r>
       <r>   -2.0961    0.0000 </r>
       <r>   -1.9409    0.0000 </r>
       <r>   -1.8780    0.0000 </r>
       <r>   -1.5481    0.0000 </r>
       <r>   -1.4642    0.0000 </r>
       <r>   -1.3304    0.0000 </r>
       <r>   -1.2900    0.0000 </r>
       <r>   -1.1906    0.0000 </r>
       <r>   -1.0431    0.0000 </r>
       <r>   -0.9930    0.0000 </r>
       <r>   -0.9667    0.0000 </r>
       <r>   -0.9548    0.0000 </r>
       <r>   -0.9007    0.0000 </r>
       <r>   -0.7509    0.0000 </r>
       <r>   -0.7148    0.0000 </r>
       <r>   -0.5470    0.0000 </r>
       <r>   -0.5035    0.0000 </r>
       <r>   -0.3593    0.0000 </r>
       <r>   -0.1234    0.0000 </r>
       <r>   -0.0672    0.0000 </r>
       <r>   -0.0273    0.0000 </r>
       <r>    0.0985    0.0000 </r>
       <r>    0.4114    0.0000 </r>
       <r>    0.5057    0.0000 </r>
       <r>    0.8304    0.0000 </r>
       <r>    0.9413    0.0000 </r>
       <r>    1.0604    0.0000 </r>
       <r>    1.2896    0.0000 </r>
       <r>    1.3872    0.0000 </r>
       <r>    2.1865    0.0000 </r>
       <r>    2.2245    0.0000 </r>
       <r>    2.3644    0.0000 </r>
      </set>
     </set>
    </set>
   </array>
  </eigenvalues>
  <separator name="orbital magnetization" >
   <v name="MAGDIPOLOUT">      0.00000000      0.00000000      0.00000000</v>
  </separator>
 </calculation>
 <structure name="finalpos" >
  <crystal>
   <varray name="basis" >
    <v>       8.38165419       4.80398823       0.00000000 </v>
    <v>      -8.39315188       4.82418331       0.00000000 </v>
    <v>       0.00000000       0.00000000      30.00000000 </v>
   </varray>
   <i name="volume">   2422.65717201 </i>
   <varray name="rec_basis" >
    <v>       0.05973833       0.10393322       0.00000000 </v>
    <v>      -0.05948825       0.10379084       0.00000000 </v>
    <v>       0.00000000       0.00000000       0.03333333 </v>
   </varray>
  </crystal>
  <varray name="positions" >
   <v>       0.69039475      -0.01517413       0.00295446 </v>
   <v>       0.31327626       0.68293173      -0.00170373 </v>
   <v>       0.98299668       0.35506425      -0.00176451 </v>
   <v>      -0.00799718       0.67005229      -0.00058672 </v>
   <v>       0.00833818      -0.01813971       0.00083301 </v>
   <v>       0.67808951       0.36593114      -0.00082636 </v>
   <v>       0.30525930      -0.01019172      -0.00029090 </v>
   <v>       0.33485097       0.30071357       0.00175208 </v>
   <v>       0.69672598       0.67376429       0.00016185 </v>
   <v>       0.10721415       0.22577564       0.95523056 </v>
   <v>       0.22078994       0.10369081       0.05758694 </v>
   <v>       0.10793201       0.55522256       0.94738221 </v>
   <v>       0.21665734       0.44324920       0.04336029 </v>
   <v>       0.10959035       0.88440742       0.94314202 </v>
   <v>       0.22002618       0.77691141       0.05314682 </v>
   <v>       0.44529503       0.21601585       0.94678948 </v>
   <v>       0.56023524       0.10862946       0.04062806 </v>
   <v>       0.44108647       0.55506302       0.95903098 </v>
   <v>       0.55458031       0.44957615       0.05335738 </v>
   <v>       0.44793576       0.88946623       0.95192672 </v>
   <v>       0.55088459       0.77286920       0.04738822 </v>
   <v>       0.77399614       0.21739242       0.95210320 </v>
   <v>       0.89759832       0.11887055       0.04824381 </v>
   <v>       0.78097536       0.56170662       0.94255916 </v>
   <v>       0.88753824       0.44722006       0.05294473 </v>
   <v>       0.78287947       0.88991314       0.94747532 </v>
   <v>       0.89106511       0.77728297       0.05717481 </v>
  </varray>
 </structure>
</modeling>
