unknown system                          
           1
     8.859764    5.102605    0.000000
    -8.860045    5.103087    0.000000
     0.000000    0.000000   30.000000
   V    Mo   W    S 
   3   3   3  18
Direct configuration=     1
   0.66666669  0.00000000  0.00000000
   0.33333334  0.66666669  0.00000000
   1.00000000  0.33333334  0.00000000
   0.00000000  0.66666669  0.00000000
   0.00000000  0.00000000  0.00000000
   0.66666669  0.33333334  0.00000000
   0.33333334  0.00000000  0.00000000
   0.33333334  0.33333334  0.00000000
   0.66666669  0.66666669  0.00000000
   0.11068511  0.22244981  0.95539999
   0.22244981  0.11068511  0.04460000
   0.11068511  0.55578315  0.95539999
   0.22244981  0.44401845  0.04460000
   0.11068511  0.88911647  0.95539999
   0.22244981  0.77735180  0.04460000
   0.44401845  0.22244981  0.95539999
   0.55578315  0.11068511  0.04460000
   0.44401845  0.55578315  0.95539999
   0.55578315  0.44401845  0.04460000
   0.44401845  0.88911647  0.95539999
   0.55578315  0.77735180  0.04460000
   0.77735180  0.22244981  0.95539999
   0.88911647  0.11068511  0.04460000
   0.77735180  0.55578315  0.95539999
   0.88911647  0.44401845  0.04460000
   0.77735180  0.88911647  0.95539999
   0.88911647  0.77735180  0.04460000
unknown system                          
           1
     8.669753    4.996109    0.000000
    -8.670000    4.996534    0.000000
     0.000000    0.000000   30.000000
   V    Mo   W    S 
   3   3   3  18
Direct configuration=     2
   0.66797082  0.00123115  0.00004461
   0.33211728  0.66664253 -0.00001559
   0.99875177  0.33335185 -0.00002436
  -0.00131423  0.66645808 -0.00024565
   0.00001839 -0.00122442  0.00021423
   0.66804573  0.33460384 -0.00016986
   0.33214259 -0.00034721 -0.00021780
   0.33290284  0.33199698  0.00021309
   0.66946093  0.66701825  0.00026724
   0.10955596  0.22503911  0.95204363
   0.22283694  0.11162110  0.04934454
   0.11316947  0.55329718  0.95306709
   0.22040725  0.44608487  0.04694347
   0.11211182  0.88917959  0.95074399
   0.22500724  0.77622464  0.04796853
   0.44367690  0.22158015  0.95069533
   0.55694352  0.10816683  0.04793073
   0.44233832  0.55745904  0.95206109
   0.55489929  0.44492366  0.04925046
   0.44604747  0.88706361  0.95304909
   0.55369647  0.77939462  0.04690076
   0.77985727  0.21995682  0.95302628
   0.88657524  0.11314689  0.04693495
   0.77732853  0.55580512  0.95065047
   0.89124389  0.44193786  0.04800148
   0.77475232  0.89029290  0.95201299
   0.88767043  0.77730944  0.04930910
unknown system                          
           1
     8.489306    4.897833    0.000000
    -8.489032    4.897354    0.000000
     0.000000    0.000000   30.000000
   V    Mo   W    S 
   3   3   3  18
Direct configuration=     3
   0.66827598  0.00153703  0.00009554
   0.33180592  0.66667584 -0.00002345
   0.99840920  0.33338692 -0.00002724
  -0.00209725  0.66655910 -0.00026027
   0.00029445 -0.00179960  0.00018882
   0.66830915  0.33533899 -0.00014157
   0.33160280 -0.00016039 -0.00022878
   0.33288162  0.33128842  0.00016728
   0.67054002  0.66697736  0.00027440
   0.10975086  0.22518671  0.95212121
   0.22307694  0.11169561  0.04942310
   0.11318320  0.55325087  0.95310444
   0.22047736  0.44597869  0.04685884
   0.11233483  0.88929524  0.95064053
   0.22513253  0.77640943  0.04793155
   0.44344160  0.22148025  0.95068116
   0.55674348  0.10801349  0.04784311
   0.44245709  0.55737476  0.95221654
   0.55481388  0.44504783  0.04927537
   0.44595293  0.88716620  0.95313267
   0.55380768  0.77929970  0.04676572
   0.77991874  0.21992948  0.95302307
   0.88653081  0.11318779  0.04689018
   0.77720256  0.55595969  0.95050367
   0.89132400  0.44189317  0.04802909
   0.77458682  0.89008261  0.95204731
   0.88745724  0.77715924  0.04946761
unknown system                          
           1
     8.288140    4.770509    0.000000
    -8.286799    4.768183    0.000000
     0.000000    0.000000   30.000000
   V    Mo   W    S 
   3   3   3  18
Direct configuration=     4
   0.66911300  0.00239371  0.00026875
   0.33080435  0.66686662 -0.00004077
   0.99735649  0.33357709 -0.00002799
  -0.00548382  0.66732148 -0.00021221
   0.00195417 -0.00415223  0.00004291
   0.66876268  0.33846474  0.00001107
   0.32931331  0.00116130 -0.00015517
   0.33308266  0.32813888 -0.00006535
   0.67459646  0.66636035  0.00018911
   0.10924444  0.22562042  0.95099066
   0.22317237  0.11151281  0.05140739
   0.11349306  0.55271796  0.95194197
   0.21995335  0.44626170  0.04786488
   0.11232133  0.88922716  0.94861066
   0.22542786  0.77593892  0.04919918
   0.44342331  0.22148301  0.94897903
   0.55704655  0.10750660  0.04889803
   0.44235690  0.55781580  0.95141425
   0.55478928  0.44517643  0.05099631
   0.44643229  0.88684836  0.95211151
   0.55351140  0.77963899  0.04756244
   0.78048141  0.21950037  0.95169992
   0.88617300  0.11370067  0.04800142
   0.77712165  0.55615225  0.94826790
   0.89208277  0.44148568  0.04954537
   0.77403877  0.89042944  0.95075723
   0.88764540  0.77706593  0.05174139
unknown system                          
           1
     8.313134    4.771418    0.000000
    -8.311298    4.768236    0.000000
     0.000000    0.000000   30.000000
   V    Mo   W    S 
   3   3   3  18
Direct configuration=     5
   0.66988432  0.00319190  0.00048815
   0.32900061  0.66782849 -0.00007140
   0.99574888  0.33454092 -0.00002878
  -0.01215249  0.66877634 -0.00006328
   0.00591590 -0.00866400 -0.00011498
   0.66959623  0.34500750  0.00018657
   0.32460208  0.00379114  0.00002144
   0.33316991  0.32133075 -0.00034113
   0.68239150  0.66525174  0.00001065
   0.10830545  0.22520780  0.94963973
   0.22259052  0.11103498  0.05433466
   0.11291751  0.55239267  0.95029761
   0.21931151  0.44599061  0.04912215
   0.11203710  0.88828354  0.94567946
   0.22475609  0.77544845  0.05070688
   0.44434176  0.22126429  0.94655660
   0.55724867  0.10771980  0.05005869
   0.44301546  0.55812900  0.95076553
   0.55483639  0.44569833  0.05330804
   0.44680188  0.88696243  0.95074464
   0.55379731  0.77967508  0.04857356
   0.78082691  0.21963452  0.94989305
   0.88656387  0.11394482  0.04947714
   0.77753031  0.55612508  0.94493595
   0.89272147  0.44168772  0.05156346
   0.77419539  0.89065453  0.94921614
   0.88825988  0.77730603  0.05503937
unknown system                          
           1
     8.303695    4.763165    0.000000
    -8.302634    4.761335    0.000000
     0.000000    0.000000   30.000000
   V    Mo   W    S 
   3   3   3  18
Direct configuration=     6
   0.66971607  0.00282989  0.00055597
   0.32844429  0.66875377 -0.00013199
   0.99534028  0.33527406 -0.00002918
  -0.01246714  0.66839756 -0.00018075
   0.00698593 -0.00863259  0.00002802
   0.66976159  0.34602576  0.00004115
   0.32374942  0.00401146 -0.00013527
   0.33293261  0.31950064 -0.00025093
   0.68323607  0.66534522  0.00008117
   0.10826755  0.22431008  0.94981727
   0.22218987  0.11085422  0.05469339
   0.11221508  0.55271025  0.95033722
   0.21950474  0.44545570  0.04890334
   0.11199103  0.88749685  0.94550890
   0.22392294  0.77570218  0.05066664
   0.44493829  0.22104593  0.94641678
   0.55692007  0.10852459  0.04981375
   0.44369929  0.55769426  0.95118437
   0.55471224  0.44609839  0.05334993
   0.44648795  0.88749755  0.95083277
   0.55437722  0.77914812  0.04838709
   0.78052794  0.22011738  0.95000361
   0.88719372  0.11361994  0.04928040
   0.77775935  0.55600745  0.94464361
   0.89234192  0.44235704  0.05156272
   0.77499541  0.89036899  0.94933242
   0.88847073  0.77769974  0.05528748
unknown system                          
           1
     8.313774    4.765615    0.000000
    -8.313029    4.764339    0.000000
     0.000000    0.000000   30.000000
   V    Mo   W    S 
   3   3   3  18
Direct configuration=     7
   0.66974705  0.00229985  0.00070283
   0.32740219  0.67026108 -0.00017537
   0.99455153  0.33636168  0.00001542
  -0.01382058  0.66821859 -0.00015069
   0.00883756 -0.00933949  0.00006184
   0.67019298  0.34831588 -0.00000018
   0.32186110  0.00452761 -0.00014762
   0.33257137  0.31616324 -0.00024020
   0.68571123  0.66545861  0.00003210
   0.10818084  0.22359108  0.94990241
   0.22202434  0.11048349  0.05535335
   0.11164843  0.55288091  0.95013939
   0.21968260  0.44502299  0.04871592
   0.11182351  0.88681053  0.94504615
   0.22327677  0.77586991  0.05078976
   0.44544449  0.22088674  0.94602627
   0.55666965  0.10915566  0.04958890
   0.44413696  0.55725482  0.95166742
   0.55458479  0.44634105  0.05358603
   0.44629296  0.88797141  0.95075006
   0.55476819  0.77866838  0.04827832
   0.78029463  0.22047997  0.94993962
   0.88776737  0.11343087  0.04919178
   0.77788424  0.55611293  0.94404992
   0.89203361  0.44281888  0.05176365
   0.77577578  0.89028591  0.94932012
   0.88887086  0.77788188  0.05579271
unknown system                          
           1
     8.321779    4.765228    0.000000
    -8.321863    4.765399    0.000000
     0.000000    0.000000   30.000000
   V    Mo   W    S 
   3   3   3  18
Direct configuration=     8
   0.66985500  0.00192891  0.00078455
   0.32690890  0.67104997 -0.00022401
   0.99417070  0.33686366  0.00002025
  -0.01386761  0.66794420 -0.00018966
   0.00932476 -0.00935323  0.00010074
   0.67042944  0.34891504 -0.00004517
   0.32134374  0.00442599 -0.00020146
   0.33238029  0.31513426 -0.00020891
   0.68630307  0.66570457  0.00004067
   0.10820764  0.22339213  0.95002029
   0.22198663  0.11035593  0.05549927
   0.11152603  0.55290733  0.95013051
   0.21981337  0.44493166  0.04853413
   0.11178674  0.88656345  0.94500405
   0.22312825  0.77597566  0.05081781
   0.44559384  0.22077442  0.94600136
   0.55656875  0.10934915  0.04940307
   0.44417232  0.55704267  0.95196589
   0.55450195  0.44642264  0.05354298
   0.44621450  0.88812036  0.95078943
   0.55481349  0.77846699  0.04816273
   0.78020083  0.22056858  0.95002220
   0.88795172  0.11339439  0.04906677
   0.77795380  0.55616895  0.94397606
   0.89186366  0.44292909  0.05177650
   0.77607673  0.89028410  0.94937262
   0.88900590  0.77795357  0.05583721
unknown system                          
           1
     8.323150    4.765301    0.000000
    -8.323491    4.765921    0.000000
     0.000000    0.000000   30.000000
   V    Mo   W    S 
   3   3   3  18
Direct configuration=     9
   0.67019462  0.00117063  0.00095999
   0.32582220  0.67268777 -0.00031260
   0.99331159  0.33789837  0.00003495
  -0.01428486  0.66746009 -0.00021933
   0.01038776 -0.00963659  0.00014982
   0.67099270  0.35043954 -0.00010351
   0.32005462  0.00430831 -0.00025837
   0.33201502  0.31281843 -0.00016395
   0.68786274  0.66615975  0.00002679
   0.10819717  0.22300094  0.95020020
   0.22191499  0.11005090  0.05587023
   0.11125066  0.55292198  0.95001734
   0.22002897  0.44474887  0.04822718
   0.11166804  0.88608793  0.94480439
   0.22283622  0.77615648  0.05094168
   0.44592300  0.22057230  0.94586576
   0.55641963  0.10972490  0.04907175
   0.44426071  0.55667922  0.95252663
   0.55438790  0.44658490  0.05354045
   0.44610796  0.88843295  0.95079328
   0.55489956  0.77807473  0.04799029
   0.78001864  0.22074087  0.95010570
   0.88834962  0.11335155  0.04889587
   0.77807137  0.55629159  0.94371126
   0.89154878  0.44311909  0.05187890
   0.77665685  0.89030643  0.94940452
   0.88931801  0.77806253  0.05604068
unknown system                          
           1
     8.311109    4.760999    0.000000
    -8.310030    4.759139    0.000000
     0.000000    0.000000   30.000000
   V    Mo   W    S 
   3   3   3  18
Direct configuration=    10
   0.67032871  0.00093569  0.00100803
   0.32553256  0.67310788 -0.00033716
   0.99309031  0.33816758  0.00003624
  -0.01430204  0.66733732 -0.00022324
   0.01058919 -0.00970207  0.00015870
   0.67115022  0.35078019 -0.00011603
   0.31974508  0.00421765 -0.00026738
   0.33192890  0.31232004 -0.00015047
   0.68820284  0.66631415  0.00002060
   0.10819676  0.22293615  0.95025154
   0.22191220  0.10997398  0.05593835
   0.11119885  0.55291386  0.94998710
   0.22008529  0.44472426  0.04814092
   0.11163271  0.88598843  0.94477078
   0.22279279  0.77619881  0.05097550
   0.44598390  0.22051954  0.94585095
   0.55639330  0.10978694  0.04897739
   0.44424659  0.55660377  0.95267427
   0.55436438  0.44661380  0.05352402
   0.44609222  0.88850358  0.95079716
   0.55488888  0.77797761  0.04794741
   0.77997378  0.22076561  0.95013279
   0.88844364  0.11335969  0.04885430
   0.77809749  0.55633398  0.94366801
   0.89147652  0.44314469  0.05190168
   0.77677675  0.89032090  0.94940861
   0.88939264  0.77807041  0.05606983
unknown system                          
           1
     8.331696    4.766572    0.000000
    -8.333332    4.769453    0.000000
     0.000000    0.000000   30.000000
   V    Mo   W    S 
   3   3   3  18
Direct configuration=    11
   0.66976096  0.00170401  0.00088001
   0.32615496  0.67213373 -0.00025759
   0.99360881  0.33761342  0.00005761
  -0.01442427  0.66765755 -0.00020938
   0.01061858 -0.00948646  0.00014633
   0.67075030  0.35009093 -0.00009525
   0.32032487  0.00471825 -0.00024893
   0.33200532  0.31296001 -0.00018555
   0.68763870  0.66585508  0.00003658
   0.10819962  0.22302727  0.95011214
   0.22192597  0.11018085  0.05582762
   0.11128439  0.55290727  0.95008614
   0.21993811  0.44470189  0.04836597
   0.11171181  0.88617512  0.94483144
   0.22283686  0.77609790  0.05084640
   0.44586863  0.22069227  0.94584005
   0.55640154  0.10970654  0.04925919
   0.44436586  0.55670257  0.95230326
   0.55436088  0.44652309  0.05359117
   0.44615073  0.88835198  0.95077659
   0.55503114  0.77822732  0.04803523
   0.78012341  0.22072994  0.95005040
   0.88820021  0.11329550  0.04892771
   0.77799274  0.55620445  0.94372081
   0.89166760  0.44310367  0.05182597
   0.77650974  0.89023999  0.94945112
   0.88920699  0.77810031  0.05602485
unknown system                          
           1
     8.336054    4.767093    0.000000
    -8.338603    4.771570    0.000000
     0.000000    0.000000   30.000000
   V    Mo   W    S 
   3   3   3  18
Direct configuration=    12
   0.67100354 -0.00019686  0.00123269
   0.32421045  0.67501136 -0.00045715
   0.99208507  0.33939908  0.00003368
  -0.01431194  0.66679699 -0.00024852
   0.01141410 -0.01003294  0.00020029
   0.67186631  0.35231468 -0.00017631
   0.31834502  0.00373336 -0.00031361
   0.33157142  0.31016672 -0.00008608
   0.68970797  0.66705185 -0.00000565
   0.10818784  0.22265432  0.95047573
   0.22188764  0.10961911  0.05626672
   0.11096379  0.55288682  0.94982929
   0.22034467  0.44463064  0.04775269
   0.11146920  0.88552152  0.94459605
   0.22259586  0.77638486  0.05115715
   0.44625787  0.22025691  0.94577254
   0.55628013  0.11004756  0.04854502
   0.44415646  0.55628044  0.95334718
   0.55426021  0.44675551  0.05346594
   0.44601483  0.88882365  0.95080746
   0.55480674  0.77752184  0.04776599
   0.77976181  0.22087112  0.95024298
   0.88888458  0.11341325  0.04868652
   0.77824153  0.55653689  0.94345157
   0.89115689  0.44326918  0.05203441
   0.77731517  0.89039628  0.94939517
   0.88973730  0.77810030  0.05622816
unknown system                          
           1
     8.330682    4.764762    0.000000
    -8.332718    4.768340    0.000000
     0.000000    0.000000   30.000000
   V    Mo   W    S 
   3   3   3  18
Direct configuration=    13
   0.67153937 -0.00094075  0.00137456
   0.32340400  0.67604415 -0.00053855
   0.99144906  0.34019798  0.00002177
  -0.01418262  0.66650776 -0.00026261
   0.01182582 -0.01026783  0.00022502
   0.67235273  0.35318729 -0.00021199
   0.31747204  0.00332693 -0.00033987
   0.33138144  0.30904602 -0.00003912
   0.69054383  0.66756831 -0.00002429
   0.10815159  0.22253552  0.95060795
   0.22186811  0.10939403  0.05644979
   0.11081928  0.55284359  0.94972012
   0.22047318  0.44459672  0.04751951
   0.11135277  0.88525110  0.94449227
   0.22249167  0.77650695  0.05128610
   0.44639355  0.22008711  0.94574046
   0.55624466  0.11016131  0.04827520
   0.44404543  0.55611856  0.95374093
   0.55421445  0.44682815  0.05342310
   0.44601578  0.88903235  0.95080873
   0.55468739  0.77724059  0.04768186
   0.77963475  0.22089696  0.95030644
   0.88916828  0.11350125  0.04860578
   0.77834483  0.55668067  0.94334140
   0.89098136  0.44331333  0.05212298
   0.77760090  0.89045679  0.94936493
   0.88994084  0.77809963  0.05630741
unknown system                          
           1
     8.330656    4.764704    0.000000
    -8.332717    4.768328    0.000000
     0.000000    0.000000   30.000000
   V    Mo   W    S 
   3   3   3  18
Direct configuration=    14
   0.67117956 -0.00054682  0.00130091
   0.32373700  0.67573579 -0.00049635
   0.99175447  0.33977616  0.00004237
  -0.01435032  0.66656241 -0.00026012
   0.01171982 -0.01011768  0.00021463
   0.67210211  0.35282026 -0.00019657
   0.31790895  0.00363031 -0.00033355
   0.33143805  0.30941180 -0.00006303
   0.69022565  0.66727588 -0.00001336
   0.10820297  0.22256771  0.95053248
   0.22188728  0.10952052  0.05635824
   0.11091071  0.55286256  0.94979106
   0.22044514  0.44460073  0.04763632
   0.11142888  0.88539266  0.94456250
   0.22254096  0.77643774  0.05121354
   0.44634828  0.22018874  0.94574574
   0.55623971  0.11013462  0.04843535
   0.44414253  0.55617624  0.95355514
   0.55421096  0.44678602  0.05344454
   0.44599808  0.88891635  0.95080085
   0.55481077  0.77739540  0.04770108
   0.77970988  0.22089872  0.95027687
   0.88898464  0.11340113  0.04862961
   0.77826844  0.55658285  0.94339113
   0.89107149  0.44328872  0.05206417
   0.77745694  0.89040477  0.94939867
   0.88984152  0.77811084  0.05626768
unknown system                          
           1
     8.333591    4.767988    0.000000
    -8.335465    4.771279    0.000000
     0.000000    0.000000   30.000000
   V    Mo   W    S 
   3   3   3  18
Direct configuration=    15
   0.67120606 -0.00057437  0.00130559
   0.32371507  0.67575772 -0.00049914
   0.99173466  0.33980198  0.00004091
  -0.01434221  0.66655802 -0.00026024
   0.01172488 -0.01012809  0.00021524
   0.67211938  0.35284749 -0.00019747
   0.31787787  0.00361161 -0.00033382
   0.33143452  0.30938462 -0.00006152
   0.69024806  0.66729432 -0.00001385
   0.10820084  0.22256606  0.95053812
   0.22188738  0.10951439  0.05636109
   0.11090563  0.55286150  0.94978769
   0.22044613  0.44460054  0.04762888
   0.11142500  0.88538642  0.94456014
   0.22253940  0.77644155  0.05121699
   0.44634947  0.22018300  0.94574732
   0.55623998  0.11013554  0.04842447
   0.44413799  0.55617342  0.95356656
   0.55421202  0.44678882  0.05344199
   0.44599885  0.88892204  0.95080246
   0.55480433  0.77738692  0.04769933
   0.77970524  0.22089873  0.95027974
   0.88899542  0.11340717  0.04862758
   0.77827193  0.55658884  0.94339007
   0.89106606  0.44329013  0.05206641
   0.77746447  0.89040682  0.94939689
   0.88984605  0.77810927  0.05626847
unknown system                          
           1
     8.336153    4.765001    0.000000
    -8.340395    4.772427    0.000000
     0.000000    0.000000   30.000000
   V    Mo   W    S 
   3   3   3  18
Direct configuration=    16
   0.66874493  0.00018681  0.00098970
   0.32440276  0.67672811 -0.00032530
   0.99295615  0.33858228  0.00023363
  -0.01434886  0.66681662 -0.00030798
   0.01186855 -0.00971320  0.00020411
   0.67079962  0.35211169 -0.00025840
   0.31904995  0.00376280 -0.00033526
   0.33184845  0.30987214 -0.00008049
   0.68984224  0.66631911 -0.00003567
   0.10830688  0.22242497  0.95022693
   0.22186098  0.10951768  0.05622866
   0.11134383  0.55329091  0.95003191
   0.22071025  0.44465885  0.04788535
   0.11162765  0.88534715  0.94479131
   0.22246306  0.77635165  0.05095911
   0.44649492  0.22040197  0.94569680
   0.55613266  0.11030207  0.04899595
   0.44415056  0.55609433  0.95325888
   0.55417367  0.44671536  0.05351074
   0.44588315  0.88887945  0.95070473
   0.55514408  0.77767256  0.04766834
   0.77949969  0.22056078  0.95011604
   0.88839089  0.11285998  0.04862427
   0.77821868  0.55627418  0.94346317
   0.89125466  0.44356730  0.05195698
   0.77740688  0.89045159  0.94961353
   0.88998817  0.77817733  0.05618288
unknown system                          
           1
     8.341268    4.767523    0.000000
    -8.345628    4.775156    0.000000
     0.000000    0.000000   30.000000
   V    Mo   W    S 
   3   3   3  18
Direct configuration=    17
   0.66960627 -0.00057790  0.00133513
   0.32318604  0.67790726 -0.00051507
   0.99175842  0.33971453  0.00018613
  -0.01444039  0.66619051 -0.00029261
   0.01261460 -0.00999059  0.00023880
   0.67191061  0.35320814 -0.00022074
   0.31813864  0.00353450 -0.00033994
   0.33129079  0.30829637 -0.00005906
   0.69094506  0.66724346 -0.00004191
   0.10844403  0.22227481  0.95056998
   0.22190515  0.10911667  0.05651722
   0.11107559  0.55300508  0.94983049
   0.22100817  0.44470674  0.04737271
   0.11143042  0.88502333  0.94452510
   0.22218780  0.77660447  0.05137381
   0.44652856  0.21994442  0.94566152
   0.55623946  0.11058354  0.04844111
   0.44390312  0.55594938  0.95405782
   0.55412983  0.44686847  0.05342639
   0.44584611  0.88917310  0.95059079
   0.55481877  0.77714045  0.04746983
   0.77954527  0.22084425  0.95035038
   0.88874901  0.11295051  0.04839598
   0.77851714  0.55657076  0.94323019
   0.89077924  0.44337356  0.05201780
   0.77785937  0.89045470  0.94959255
   0.89023737  0.77810398  0.05628549
unknown system                          
           1
     8.347625    4.769067    0.000000
    -8.353342    4.779070    0.000000
     0.000000    0.000000   30.000000
   V    Mo   W    S 
   3   3   3  18
Direct configuration=    18
   0.67013738 -0.00119652  0.00145086
   0.32254018  0.67854373 -0.00058065
   0.99121723  0.34038334  0.00014697
  -0.01427760  0.66602062 -0.00030662
   0.01282953 -0.01029893  0.00024801
   0.67241835  0.35389360 -0.00027493
   0.31740393  0.00309115 -0.00036454
   0.33113643  0.30753086  0.00000074
   0.69160541  0.66775188 -0.00006895
   0.10836692  0.22220908  0.95068693
   0.22194325  0.10897509  0.05663178
   0.11091340  0.55290343  0.94971515
   0.22109131  0.44474203  0.04716512
   0.11134586  0.88486670  0.94445996
   0.22213886  0.77670323  0.05150296
   0.44659809  0.21979264  0.94566703
   0.55628074  0.11066531  0.04820798
   0.44375722  0.55591559  0.95438047
   0.55413922  0.44693053  0.05338307
   0.44587177  0.88933000  0.95058075
   0.55460836  0.77689410  0.04741771
   0.77947994  0.22088524  0.95041705
   0.88902289  0.11306259  0.04834478
   0.77857637  0.55669170  0.94318535
   0.89065217  0.44334557  0.05211526
   0.77805434  0.89051901  0.94955145
   0.89036290  0.77806289  0.05633621
unknown system                          
           1
     8.349521    4.769983    0.000000
    -8.355399    4.780268    0.000000
     0.000000    0.000000   30.000000
   V    Mo   W    S 
   3   3   3  18
Direct configuration=    19
   0.67158437 -0.00275880  0.00174438
   0.32111178  0.67988765 -0.00074754
   0.98993627  0.34196135  0.00005057
  -0.01387044  0.66561156 -0.00030774
   0.01317519 -0.01099081  0.00029089
   0.67358443  0.35549107 -0.00033438
   0.31567149  0.00199413 -0.00039173
   0.33087253  0.30590558  0.00010567
   0.69301164  0.66896253 -0.00010394
   0.10822282  0.22208474  0.95100213
   0.22198306  0.10859065  0.05685428
   0.11052854  0.55271883  0.94946007
   0.22121965  0.44479586  0.04668457
   0.11113642  0.88448256  0.94430180
   0.22201922  0.77695801  0.05177385
   0.44670938  0.21944080  0.94572829
   0.55636443  0.11081768  0.04759580
   0.44344213  0.55582786  0.95512577
   0.55422534  0.44709916  0.05323759
   0.44592983  0.88970630  0.95059878
   0.55411964  0.77633788  0.04730219
   0.77928242  0.22095057  0.95057455
   0.88968587  0.11336746  0.04821957
   0.77876250  0.55703533  0.94307683
   0.89034217  0.44331739  0.05230268
   0.77851724  0.89066823  0.94943207
   0.89064652  0.77795089  0.05642288
unknown system                          
           1
     8.350472    4.769373    0.000000
    -8.356502    4.779921    0.000000
     0.000000    0.000000   30.000000
   V    Mo   W    S 
   3   3   3  18
Direct configuration=    20
   0.67182695 -0.00302452  0.00177805
   0.32094796  0.68003369 -0.00077232
   0.98981821  0.34216386  0.00003113
  -0.01375500  0.66561713 -0.00030863
   0.01314735 -0.01109230  0.00029342
   0.67371319  0.35569211 -0.00034431
   0.31543220  0.00177541 -0.00039112
   0.33085979  0.30576522  0.00011937
   0.69315330  0.66912581 -0.00011116
   0.10819002  0.22207988  0.95104199
   0.22197665  0.10853899  0.05688074
   0.11048928  0.55272398  0.94942694
   0.22122016  0.44481192  0.04662978
   0.11109429  0.88442427  0.94427920
   0.22200691  0.77697958  0.05180372
   0.44672631  0.21939643  0.94573949
   0.55638221  0.11081346  0.04750580
   0.44339295  0.55582904  0.95520935
   0.55424406  0.44713022  0.05322638
   0.44594048  0.88974523  0.95061281
   0.55403990  0.77626349  0.04729873
   0.77922678  0.22093314  0.95059199
   0.88978360  0.11342710  0.04821577
   0.77879342  0.55709206  0.94306422
   0.89030661  0.44333675  0.05233428
   0.77857026  0.89069574  0.94940445
   0.89068662  0.77793675  0.05643983
unknown system                          
           1
     8.349977    4.768797    0.000000
    -8.356027    4.779380    0.000000
     0.000000    0.000000   30.000000
   V    Mo   W    S 
   3   3   3  18
Direct configuration=    21
   0.67184574 -0.00337028  0.00184865
   0.32063894  0.68057425 -0.00080431
   0.98956000  0.34241832  0.00002280
  -0.01358971  0.66553525 -0.00031888
   0.01327699 -0.01121029  0.00029022
   0.67384115  0.35589584 -0.00037591
   0.31519197  0.00155046 -0.00040878
   0.33077283  0.30539707  0.00013658
   0.69351351  0.66951263 -0.00013450
   0.10818614  0.22199981  0.95108457
   0.22201386  0.10847813  0.05699059
   0.11046702  0.55270174  0.94934841
   0.22134824  0.44484954  0.04652629
   0.11104423  0.88427491  0.94422042
   0.22199768  0.77703281  0.05187970
   0.44681560  0.21937042  0.94571028
   0.55642794  0.11085891  0.04743058
   0.44329542  0.55579597  0.95539585
   0.55423256  0.44711978  0.05320861
   0.44599724  0.88982744  0.95059390
   0.55395863  0.77621683  0.04723975
   0.77914425  0.22087255  0.95058944
   0.88980228  0.11338151  0.04816853
   0.77879040  0.55712243  0.94300659
   0.89021296  0.44333325  0.05244465
   0.77866002  0.89076290  0.94940763
   0.89076856  0.77791228  0.05649826
unknown system                          
           1
     8.345292    4.761788    0.000000
    -8.353684    4.776461    0.000000
     0.000000    0.000000   30.000000
   V    Mo   W    S 
   3   3   3  18
Direct configuration=    22
   0.67194845 -0.00337091  0.00183698
   0.32069718  0.68045144 -0.00079971
   0.98962695  0.34240217  0.00001528
  -0.01363496  0.66557930 -0.00032069
   0.01324245 -0.01119542  0.00028367
   0.67381907  0.35593459 -0.00037478
   0.31515822  0.00155701 -0.00040700
   0.33080440  0.30546438  0.00012904
   0.69344281  0.66940566 -0.00013118
   0.10818993  0.22201813  0.95108778
   0.22199328  0.10848666  0.05697393
   0.11046285  0.55272259  0.94935786
   0.22131450  0.44483728  0.04654516
   0.11104222  0.88430339  0.94423259
   0.22200192  0.77702063  0.05186251
   0.44680678  0.21936879  0.94572543
   0.55641220  0.11085390  0.04741811
   0.44332110  0.55579709  0.95536401
   0.55423570  0.44713429  0.05321408
   0.44597098  0.88980153  0.95061142
   0.55397065  0.77620942  0.04725457
   0.77913350  0.22089296  0.95059305
   0.88984039  0.11340944  0.04818975
   0.77879660  0.55712548  0.94301744
   0.89022407  0.44335575  0.05243038
   0.77864271  0.89072950  0.94939955
   0.89075049  0.77791939  0.05649067
unknown system                          
           1
     8.353088    4.770468    0.000000
    -8.360734    4.783845    0.000000
     0.000000    0.000000   30.000000
   V    Mo   W    S 
   3   3   3  18
Direct configuration=    23
   0.67399933 -0.00491314  0.00198144
   0.31982879  0.68066975 -0.00092047
   0.98908545  0.34372602 -0.00009188
  -0.01343063  0.66564447 -0.00027276
   0.01310658 -0.01181119  0.00036075
   0.67454253  0.35761779 -0.00035058
   0.31342368  0.00045026 -0.00033534
   0.33098234  0.30466838  0.00022589
   0.69416137  0.66974633 -0.00011445
   0.10801201  0.22204062  0.95133066
   0.22188082  0.10817173  0.05704904
   0.11019187  0.55285444  0.94914035
   0.22121892  0.44488051  0.04625925
   0.11077767  0.88403216  0.94405876
   0.22191345  0.77716849  0.05202481
   0.44688843  0.21905352  0.94581943
   0.55647308  0.11092801  0.04676383
   0.44312772  0.55578841  0.95579260
   0.55438547  0.44740125  0.05314159
   0.44594799  0.89004548  0.95071768
   0.55347123  0.77556910  0.04731489
   0.77868655  0.22088132  0.95071047
   0.89070006  0.11387661  0.04826076
   0.77901603  0.55754190  0.94292101
   0.88994336  0.44352356  0.05251963
   0.77894447  0.89078592  0.94915269
   0.89093587  0.77787272  0.05653983
unknown system                          
           1
     8.358012    4.773937    0.000000
    -8.366445    4.788692    0.000000
     0.000000    0.000000   30.000000
   V    Mo   W    S 
   3   3   3  18
Direct configuration=    24
   0.67310386 -0.00453659  0.00203573
   0.31972065  0.68115306 -0.00093254
   0.98879639  0.34356460 -0.00005002
  -0.01322459  0.66534359 -0.00028133
   0.01327756 -0.01174173  0.00036047
   0.67469796  0.35702415 -0.00035747
   0.31393193  0.00062017 -0.00037660
   0.33067551  0.30451574  0.00021930
   0.69433125  0.67028795 -0.00013747
   0.10802087  0.22198647  0.95131488
   0.22199126  0.10816607  0.05703260
   0.11021201  0.55264893  0.94920965
   0.22129792  0.44490714  0.04620933
   0.11088451  0.88402955  0.94412506
   0.22191362  0.77719614  0.05201700
   0.44681583  0.21910273  0.94580415
   0.55645549  0.11087508  0.04695324
   0.44308097  0.55580200  0.95584943
   0.55438933  0.44729040  0.05307090
   0.44601638  0.89006934  0.95065004