   27   27  100    1
  0.9710400E+02  0.1002848E-08  0.1002848E-08  0.3000000E-08  0.5000000E-15
  1.000000000000000E-004
  CAR 
 unknown system                          
    159     34    120
 
  0.0000000E+00  0.0000000E+00  0.0000000E+00  0.1562500E-01
    1      -17.813342   1.000000
    2      -16.726358   1.000000
    3      -16.653467   1.000000
    4      -16.590130   1.000000
    5      -16.547210   1.000000
    6      -16.504474   1.000000
    7      -16.455312   1.000000
    8      -16.242641   1.000000
    9      -16.187457   1.000000
   10      -16.093908   1.000000
   11      -16.051789   1.000000
   12      -15.939752   1.000000
   13      -15.909719   1.000000
   14      -15.718583   1.000000
   15      -15.525569   1.000000
   16      -15.492576   1.000000
   17      -15.335432   1.000000
   18      -15.292787   1.000000
   19       -9.347146   1.000000
   20       -9.017245   1.000000
   21       -8.913398   1.000000
   22       -8.839968   1.000000
   23       -8.798347   1.000000
   24       -8.715273   1.000000
   25       -8.666872   1.000000
   26       -8.600662   1.000000
   27       -8.479393   1.000000
   28       -8.431898   1.000000
   29       -8.395672   1.000000
   30       -8.339242   1.000000
   31       -8.276383   1.000000
   32       -8.174332   1.000000
   33       -8.025308   1.000000
   34       -7.980938   1.000000
   35       -7.894360   1.000000
   36       -7.795274   1.000000
   37       -7.688761   1.000000
   38       -7.563486   1.000000
   39       -7.472656   1.000000
   40       -7.449385   1.000000
   41       -7.336612   1.000000
   42       -7.209035   1.000000
   43       -7.112387   1.000000
   44       -6.912368   1.000000
   45       -6.835914   1.000000
   46       -6.768319   1.000000
   47       -6.765442   1.000000
   48       -6.683737   1.000000
   49       -6.605049   1.000000
   50       -6.479602   1.000000
   51       -6.460336   1.000000
   52       -6.351407   1.000000
   53       -6.332550   1.000000
   54       -6.290871   1.000000
   55       -6.180444   1.000000
   56       -6.084195   1.000000
   57       -6.000225   1.000000
   58       -5.932351   1.000000
   59       -5.752929   1.000000
   60       -5.596911   1.000000
   61       -5.502275   1.000000
   62       -5.459889   1.000000
   63       -5.211417   1.000000
   64       -5.108401   1.000000
   65       -5.071249   1.000000
   66       -4.998949   1.000000
   67       -4.923976   1.000000
   68       -4.807767   1.000000
   69       -4.768253   1.000000
   70       -4.712439   1.000000
   71       -4.624854   1.000000
   72       -4.563913   1.000000
   73       -4.517946   1.000000
   74       -4.327527   1.000000
   75       -4.154746   1.000000
   76       -4.044318   1.000000
   77       -3.760102   0.998158
   78       -3.651730   0.983728
   79       -3.542534   0.913957
   80       -3.352491   0.508668
   81       -3.269223   0.285336
   82       -2.846923   0.000190
   83       -2.698897   0.000002
   84       -2.593590   0.000000
   85       -2.431776   0.000000
   86       -2.405392   0.000000
   87       -2.345945   0.000000
   88       -2.246954   0.000000
   89       -2.203527   0.000000
   90       -2.115277   0.000000
   91       -1.743784   0.000000
   92       -1.471593   0.000000
   93       -1.391455   0.000000
   94       -1.380429   0.000000
   95       -1.158704   0.000000
   96       -1.093105   0.000000
   97       -0.942940   0.000000
   98       -0.882919   0.000000
   99       -0.777978   0.000000
  100       -0.693441   0.000000
  101       -0.611149   0.000000
  102       -0.527446   0.000000
  103       -0.478352   0.000000
  104       -0.392719   0.000000
  105       -0.287594   0.000000
  106       -0.113462   0.000000
  107       -0.058443   0.000000
  108        0.018605   0.000000
  109        0.127093   0.000000
  110        0.308268   0.000000
  111        0.428491   0.000000
  112        0.565285   0.000000
  113        0.649167   0.000000
  114        0.765648   0.000000
  115        0.908415   0.000000
  116        0.998985   0.000000
  117        1.278623   0.000000
  118        1.643732   0.000000
  119        1.834831   0.000000
  120        2.148610   0.000000
 
  0.1250000E+00  0.2775558E-16  0.0000000E+00  0.3125000E-01
    1      -17.789961   1.000000
    2      -16.751196   1.000000
    3      -16.726728   1.000000
    4      -16.652168   1.000000
    5      -16.597381   1.000000
    6      -16.420790   1.000000
    7      -16.404305   1.000000
    8      -16.253867   1.000000
    9      -16.196888   1.000000
   10      -16.059959   1.000000
   11      -16.001153   1.000000
   12      -15.924792   1.000000
   13      -15.886494   1.000000
   14      -15.732874   1.000000
   15      -15.546573   1.000000
   16      -15.489811   1.000000
   17      -15.339144   1.000000
   18      -15.295854   1.000000
   19       -9.358964   1.000000
   20       -9.069853   1.000000
   21       -9.049866   1.000000
   22       -8.942724   1.000000
   23       -8.821301   1.000000
   24       -8.742271   1.000000
   25       -8.701448   1.000000
   26       -8.579679   1.000000
   27       -8.503745   1.000000
   28       -8.427450   1.000000
   29       -8.361931   1.000000
   30       -8.205406   1.000000
   31       -8.180963   1.000000
   32       -8.144521   1.000000
   33       -7.951606   1.000000
   34       -7.904057   1.000000
   35       -7.835748   1.000000
   36       -7.747040   1.000000
   37       -7.646795   1.000000
   38       -7.577234   1.000000
   39       -7.512886   1.000000
   40       -7.496351   1.000000
   41       -7.299966   1.000000
   42       -7.209677   1.000000
   43       -7.106886   1.000000
   44       -7.005817   1.000000
   45       -6.875477   1.000000
   46       -6.807681   1.000000
   47       -6.721529   1.000000
   48       -6.606624   1.000000
   49       -6.556613   1.000000
   50       -6.505601   1.000000
   51       -6.467252   1.000000
   52       -6.379235   1.000000
   53       -6.321058   1.000000
   54       -6.275550   1.000000
   55       -6.161521   1.000000
   56       -6.102575   1.000000
   57       -6.004864   1.000000
   58       -5.904837   1.000000
   59       -5.741438   1.000000
   60       -5.603063   1.000000
   61       -5.561783   1.000000
   62       -5.459533   1.000000
   63       -5.303310   1.000000
   64       -5.248012   1.000000
   65       -5.073376   1.000000
   66       -4.952176   1.000000
   67       -4.893402   1.000000
   68       -4.885673   1.000000
   69       -4.735128   1.000000
   70       -4.660484   1.000000
   71       -4.602187   1.000000
   72       -4.546633   1.000000
   73       -4.473388   1.000000
   74       -4.275996   1.000000
   75       -4.127357   1.000000
   76       -4.083352   1.000000
   77       -3.815156   0.999505
   78       -3.737531   0.996969
   79       -3.567859   0.938780
   80       -3.291839   0.341952
   81       -3.266620   0.279115
   82       -2.819986   0.000091
   83       -2.662878   0.000001
   84       -2.585885   0.000000
   85       -2.425747   0.000000
   86       -2.389802   0.000000
   87       -2.310657   0.000000
   88       -2.240064   0.000000
   89       -2.179253   0.000000
   90       -2.096992   0.000000
   91       -1.750972   0.000000
   92       -1.487636   0.000000
   93       -1.402714   0.000000
   94       -1.358000   0.000000
   95       -1.159436   0.000000
   96       -1.092475   0.000000
   97       -0.960609   0.000000
   98       -0.900101   0.000000
   99       -0.820814   0.000000
  100       -0.762030   0.000000
  101       -0.639422   0.000000
  102       -0.577698   0.000000
  103       -0.543449   0.000000
  104       -0.442391   0.000000
  105       -0.283262   0.000000
  106       -0.110947   0.000000
  107       -0.090395   0.000000
  108       -0.012537   0.000000
  109        0.116203   0.000000
  110        0.298541   0.000000
  111        0.459202   0.000000
  112        0.604123   0.000000
  113        0.642039   0.000000
  114        0.791190   0.000000
  115        0.938990   0.000000
  116        1.021248   0.000000
  117        1.269743   0.000000
  118        1.685181   0.000000
  119        1.874710   0.000000
  120        2.183192   0.000000
 
  0.2500000E+00  0.5551115E-16  0.0000000E+00  0.3125000E-01
    1      -17.722333   1.000000
    2      -16.956332   1.000000
    3      -16.748133   1.000000
    4      -16.684906   1.000000
    5      -16.633534   1.000000
    6      -16.387934   1.000000
    7      -16.360642   1.000000
    8      -16.213252   1.000000
    9      -16.175099   1.000000
   10      -16.041924   1.000000
   11      -15.927048   1.000000
   12      -15.893666   1.000000
   13      -15.809291   1.000000
   14      -15.750427   1.000000
   15      -15.596952   1.000000
   16      -15.487844   1.000000
   17      -15.353168   1.000000
   18      -15.301757   1.000000
   19       -9.486278   1.000000
   20       -9.206629   1.000000
   21       -9.155320   1.000000
   22       -9.039039   1.000000
   23       -8.922439   1.000000
   24       -8.848556   1.000000
   25       -8.628435   1.000000
   26       -8.532215   1.000000
   27       -8.490165   1.000000
   28       -8.371573   1.000000
   29       -8.297894   1.000000
   30       -8.180457   1.000000
   31       -8.130183   1.000000
   32       -8.008145   1.000000
   33       -7.897677   1.000000
   34       -7.818265   1.000000
   35       -7.780347   1.000000
   36       -7.679222   1.000000
   37       -7.591494   1.000000
   38       -7.536517   1.000000
   39       -7.466111   1.000000
   40       -7.406921   1.000000
   41       -7.293288   1.000000
   42       -7.212742   1.000000
   43       -7.121884   1.000000
   44       -7.029009   1.000000
   45       -6.883557   1.000000
   46       -6.820146   1.000000
   47       -6.715504   1.000000
   48       -6.595508   1.000000
   49       -6.550663   1.000000
   50       -6.518137   1.000000
   51       -6.410531   1.000000
   52       -6.364753   1.000000
   53       -6.309595   1.000000
   54       -6.210967   1.000000
   55       -6.156079   1.000000
   56       -6.128844   1.000000
   57       -5.965959   1.000000
   58       -5.895006   1.000000
   59       -5.780437   1.000000
   60       -5.695530   1.000000
   61       -5.609734   1.000000
   62       -5.547478   1.000000
   63       -5.491297   1.000000
   64       -5.400610   1.000000
   65       -5.213151   1.000000
   66       -4.927879   1.000000
   67       -4.815610   1.000000
   68       -4.789026   1.000000
   69       -4.735168   1.000000
   70       -4.622750   1.000000
   71       -4.543360   1.000000
   72       -4.485282   1.000000
   73       -4.409123   1.000000
   74       -4.306201   1.000000
   75       -4.198498   1.000000
   76       -4.037555   0.999999
   77       -3.927858   0.999978
   78       -3.816142   0.999517
   79       -3.585374   0.952388
   80       -3.284087   0.322056
   81       -3.202602   0.149601
   82       -2.772902   0.000023
   83       -2.584173   0.000000
   84       -2.544488   0.000000
   85       -2.413700   0.000000
   86       -2.361107   0.000000
   87       -2.258406   0.000000
   88       -2.200162   0.000000
   89       -2.109127   0.000000
   90       -2.035777   0.000000
   91       -1.748567   0.000000
   92       -1.517031   0.000000
   93       -1.421908   0.000000
   94       -1.341756   0.000000
   95       -1.184508   0.000000
   96       -1.117019   0.000000
   97       -1.057758   0.000000
   98       -0.943469   0.000000
   99       -0.920598   0.000000
  100       -0.843054   0.000000
  101       -0.699133   0.000000
  102       -0.675865   0.000000
  103       -0.608035   0.000000
  104       -0.508950   0.000000
  105       -0.412355   0.000000
  106       -0.189560   0.000000
  107       -0.147399   0.000000
  108       -0.001729   0.000000
  109        0.101693   0.000000
  110        0.261332   0.000000
  111        0.428285   0.000000
  112        0.628554   0.000000
  113        0.715750   0.000000
  114        0.850212   0.000000
  115        1.005025   0.000000
  116        1.079886   0.000000
  117        1.295691   0.000000
  118        1.802567   0.000000
  119        1.988591   0.000000
  120        2.285745   0.000000
 
  0.3750000E+00  0.0000000E+00  0.0000000E+00  0.3125000E-01
    1      -17.622839   1.000000
    2      -17.152825   1.000000
    3      -16.780182   1.000000
    4      -16.690606   1.000000
    5      -16.655258   1.000000
    6      -16.406296   1.000000
    7      -16.335884   1.000000
    8      -16.177821   1.000000
    9      -16.107821   1.000000
   10      -15.989441   1.000000
   11      -15.917476   1.000000
   12      -15.865438   1.000000
   13      -15.825720   1.000000
   14      -15.694661   1.000000
   15      -15.623039   1.000000
   16      -15.492348   1.000000
   17      -15.373761   1.000000
   18      -15.306570   1.000000
   19       -9.664758   1.000000
   20       -9.275341   1.000000
   21       -9.228459   1.000000
   22       -9.052960   1.000000
   23       -8.993863   1.000000
   24       -8.922535   1.000000
   25       -8.542818   1.000000
   26       -8.458610   1.000000
   27       -8.420541   1.000000
   28       -8.321541   1.000000
   29       -8.261712   1.000000
   30       -8.231429   1.000000
   31       -8.130291   1.000000
   32       -7.971658   1.000000
   33       -7.943341   1.000000
   34       -7.854274   1.000000
   35       -7.759841   1.000000
   36       -7.715954   1.000000
   37       -7.555587   1.000000
   38       -7.431413   1.000000
   39       -7.426012   1.000000
   40       -7.269415   1.000000
   41       -7.212770   1.000000
   42       -7.150933   1.000000
   43       -7.047662   1.000000
   44       -6.962714   1.000000
   45       -6.856552   1.000000
   46       -6.779496   1.000000
   47       -6.714149   1.000000
   48       -6.625494   1.000000
   49       -6.506192   1.000000
   50       -6.488603   1.000000
   51       -6.437108   1.000000
   52       -6.318867   1.000000
   53       -6.304614   1.000000
   54       -6.200494   1.000000
   55       -6.092915   1.000000
   56       -6.049728   1.000000
   57       -6.024977   1.000000
   58       -5.926393   1.000000
   59       -5.864256   1.000000
   60       -5.789234   1.000000
   61       -5.761386   1.000000
   62       -5.653726   1.000000
   63       -5.616263   1.000000
   64       -5.487825   1.000000
   65       -5.220184   1.000000
   66       -4.881919   1.000000
   67       -4.853302   1.000000
   68       -4.751637   1.000000
   69       -4.710071   1.000000
   70       -4.670187   1.000000
   71       -4.591952   1.000000
   72       -4.461555   1.000000
   73       -4.386297   1.000000
   74       -4.286371   1.000000
   75       -4.180900   1.000000
   76       -4.119271   1.000000
   77       -3.899455   0.999950
   78       -3.780924   0.998860
   79       -3.601671   0.962764
   80       -3.299423   0.361850
   81       -3.154972   0.084575
   82       -2.741778   0.000009
   83       -2.554798   0.000000
   84       -2.452224   0.000000
   85       -2.391594   0.000000
   86       -2.336505   0.000000
   87       -2.223521   0.000000
   88       -2.148078   0.000000
   89       -2.027882   0.000000
   90       -1.954114   0.000000
   91       -1.708734   0.000000
   92       -1.544028   0.000000
   93       -1.458066   0.000000
   94       -1.355192   0.000000
   95       -1.292504   0.000000
   96       -1.193576   0.000000
   97       -1.116940   0.000000
   98       -1.003226   0.000000
   99       -0.970079   0.000000
  100       -0.891237   0.000000
  101       -0.769206   0.000000
  102       -0.728861   0.000000
  103       -0.632093   0.000000
  104       -0.593251   0.000000
  105       -0.508910   0.000000
  106       -0.253794   0.000000
  107       -0.214492   0.000000
  108       -0.033468   0.000000
  109        0.058124   0.000000
  110        0.203106   0.000000
  111        0.412338   0.000000
  112        0.664211   0.000000
  113        0.740270   0.000000
  114        0.905118   0.000000
  115        1.065610   0.000000
  116        1.142377   0.000000
  117        1.366936   0.000000
  118        1.979767   0.000000
  119        2.163597   0.000000
  120        2.442876   0.000000
 
  0.5000000E+00  0.1110223E-15  0.0000000E+00  0.1562500E-01
    1      -17.554099   1.000000
    2      -17.255583   1.000000
    3      -16.792967   1.000000
    4      -16.695332   1.000000
    5      -16.657713   1.000000
    6      -16.416284   1.000000
    7      -16.330526   1.000000
    8      -16.170021   1.000000
    9      -16.055705   1.000000
   10      -15.970345   1.000000
   11      -15.905341   1.000000
   12      -15.889832   1.000000
   13      -15.810214   1.000000
   14      -15.728411   1.000000
   15      -15.577952   1.000000
   16      -15.504195   1.000000
   17      -15.383934   1.000000
   18      -15.308521   1.000000
   19       -9.734570   1.000000
   20       -9.310222   1.000000
   21       -9.250006   1.000000
   22       -9.054167   1.000000
   23       -9.017651   1.000000
   24       -8.930636   1.000000
   25       -8.510828   1.000000
   26       -8.421799   1.000000
   27       -8.387096   1.000000
   28       -8.304820   1.000000
   29       -8.268890   1.000000
   30       -8.206872   1.000000
   31       -8.132640   1.000000
   32       -7.977261   1.000000
   33       -7.954377   1.000000
   34       -7.940275   1.000000
   35       -7.809991   1.000000
   36       -7.723201   1.000000
   37       -7.491675   1.000000
   38       -7.453010   1.000000
   39       -7.390310   1.000000
   40       -7.226321   1.000000
   41       -7.126409   1.000000
   42       -7.061251   1.000000
   43       -7.044355   1.000000
   44       -6.925426   1.000000
   45       -6.898600   1.000000
   46       -6.746397   1.000000
   47       -6.654476   1.000000
   48       -6.542959   1.000000
   49       -6.521908   1.000000
   50       -6.482348   1.000000
   51       -6.400912   1.000000
   52       -6.354448   1.000000
   53       -6.294634   1.000000
   54       -6.245464   1.000000
   55       -6.159516   1.000000
   56       -6.116445   1.000000
   57       -6.004923   1.000000
   58       -5.911204   1.000000
   59       -5.858421   1.000000
   60       -5.803886   1.000000
   61       -5.767498   1.000000
   62       -5.679296   1.000000
   63       -5.613828   1.000000
   64       -5.555036   1.000000
   65       -5.179648   1.000000
   66       -5.115202   1.000000
   67       -4.856699   1.000000
   68       -4.733593   1.000000
   69       -4.689587   1.000000
   70       -4.654982   1.000000
   71       -4.592539   1.000000
   72       -4.436369   1.000000
   73       -4.357894   1.000000
   74       -4.256583   1.000000
   75       -4.211702   1.000000
   76       -4.160925   1.000000
   77       -3.859568   0.999845
   78       -3.744357   0.997386
   79       -3.613877   0.969259
   80       -3.311100   0.393217
   81       -3.138497   0.067923
   82       -2.731947   0.000006
   83       -2.546826   0.000000
   84       -2.421830   0.000000
   85       -2.372923   0.000000
   86       -2.318223   0.000000
   87       -2.208235   0.000000
   88       -2.128097   0.000000
   89       -1.985399   0.000000
   90       -1.921442   0.000000
   91       -1.677862   0.000000
   92       -1.552220   0.000000
   93       -1.485478   0.000000
   94       -1.374873   0.000000
   95       -1.346071   0.000000
   96       -1.234202   0.000000
   97       -1.129006   0.000000
   98       -1.034523   0.000000
   99       -1.014251   0.000000
  100       -0.871545   0.000000
  101       -0.799152   0.000000
  102       -0.755328   0.000000
  103       -0.646257   0.000000
  104       -0.628380   0.000000
  105       -0.525597   0.000000
  106       -0.284815   0.000000
  107       -0.243761   0.000000
  108       -0.054346   0.000000
  109        0.035593   0.000000
  110        0.175884   0.000000
  111        0.411780   0.000000
  112        0.680189   0.000000
  113        0.741371   0.000000
  114        0.925864   0.000000
  115        1.085597   0.000000
  116        1.171729   0.000000
  117        1.402432   0.000000
  118        2.172284   0.000000
  119        2.240881   0.000000
  120        2.378024   0.000000
 
  0.0000000E+00  0.1250000E+00  0.0000000E+00  0.3125000E-01
    1      -17.788238   1.000000
    2      -16.802997   1.000000
    3      -16.710133   1.000000
    4      -16.621519   1.000000
    5      -16.543972   1.000000
    6      -16.471679   1.000000
    7      -16.396943   1.000000
    8      -16.279646   1.000000
    9      -16.188106   1.000000
   10      -16.071940   1.000000
   11      -15.997403   1.000000
   12      -15.930038   1.000000
   13      -15.867862   1.000000
   14      -15.724680   1.000000
   15      -15.538939   1.000000
   16      -15.487134   1.000000
   17      -15.350573   1.000000
   18      -15.297319   1.000000
   19       -9.333130   1.000000
   20       -9.201349   1.000000
   21       -8.995928   1.000000
   22       -8.934166   1.000000
   23       -8.799632   1.000000
   24       -8.722273   1.000000
   25       -8.668444   1.000000
   26       -8.561875   1.000000
   27       -8.498098   1.000000
   28       -8.436656   1.000000
   29       -8.334040   1.000000
   30       -8.304826   1.000000
   31       -8.226733   1.000000
   32       -8.069904   1.000000
   33       -7.991987   1.000000
   34       -7.882541   1.000000
   35       -7.840915   1.000000
   36       -7.784753   1.000000
   37       -7.663936   1.000000
   38       -7.524544   1.000000
   39       -7.487464   1.000000
   40       -7.407601   1.000000
   41       -7.338527   1.000000
   42       -7.231394   1.000000
   43       -7.129201   1.000000
   44       -6.947661   1.000000
   45       -6.898912   1.000000
   46       -6.867237   1.000000
   47       -6.733326   1.000000
   48       -6.652574   1.000000
   49       -6.577736   1.000000
   50       -6.520124   1.000000
   51       -6.424136   1.000000
   52       -6.345966   1.000000
   53       -6.310066   1.000000
   54       -6.239549   1.000000
   55       -6.176425   1.000000
   56       -6.100299   1.000000
   57       -5.992396   1.000000
   58       -5.917495   1.000000
   59       -5.722385   1.000000
   60       -5.593363   1.000000
   61       -5.556167   1.000000
   62       -5.438790   1.000000
   63       -5.338418   1.000000
   64       -5.178318   1.000000
   65       -5.096040   1.000000
   66       -5.036403   1.000000
   67       -4.930657   1.000000
   68       -4.858813   1.000000
   69       -4.755226   1.000000
   70       -4.669878   1.000000
   71       -4.613011   1.000000
   72       -4.517625   1.000000
   73       -4.447612   1.000000
   74       -4.301634   1.000000
   75       -4.132798   1.000000
   76       -3.997650   0.999998
   77       -3.800722   0.999292
   78       -3.706804   0.994250
   79       -3.629106   0.976018
   80       -3.415170   0.679013
   81       -3.116590   0.049846
   82       -2.854662   0.000234
   83       -2.694120   0.000002
   84       -2.596710   0.000000
   85       -2.450502   0.000000
   86       -2.378081   0.000000
   87       -2.317780   0.000000
   88       -2.244364   0.000000
   89       -2.177243   0.000000
   90       -2.078093   0.000000
   91       -1.766218   0.000000
   92       -1.473495   0.000000
   93       -1.390493   0.000000
   94       -1.367466   0.000000
   95       -1.162345   0.000000
   96       -1.086514   0.000000
   97       -0.953722   0.000000
   98       -0.885431   0.000000
   99       -0.801276   0.000000
  100       -0.751376   0.000000
  101       -0.644270   0.000000
  102       -0.592092   0.000000
  103       -0.540882   0.000000
  104       -0.352852   0.000000
  105       -0.290725   0.000000
  106       -0.176371   0.000000
  107       -0.108424   0.000000
  108       -0.060593   0.000000
  109        0.129713   0.000000
  110        0.265305   0.000000
  111        0.487512   0.000000
  112        0.635412   0.000000
  113        0.688078   0.000000
  114        0.758561   0.000000
  115        0.930740   0.000000
  116        1.016137   0.000000
  117        1.269498   0.000000
  118        1.688551   0.000000
  119        1.872702   0.000000
  120        2.183746   0.000000
 
  0.1250000E+00  0.1250000E+00  0.0000000E+00  0.3125000E-01
    1      -17.742382   1.000000
    2      -16.872256   1.000000
    3      -16.821166   1.000000
    4      -16.695493   1.000000
    5      -16.499920   1.000000
    6      -16.420902   1.000000
    7      -16.358786   1.000000
    8      -16.281188   1.000000
    9      -16.211319   1.000000
   10      -16.003812   1.000000
   11      -15.962723   1.000000
   12      -15.903856   1.000000
   13      -15.806635   1.000000
   14      -15.751908   1.000000
   15      -15.564232   1.000000
   16      -15.491677   1.000000
   17      -15.365111   1.000000
   18      -15.297524   1.000000
   19       -9.380975   1.000000
   20       -9.305285   1.000000
   21       -9.149657   1.000000
   22       -9.021428   1.000000
   23       -8.839875   1.000000
   24       -8.743094   1.000000
   25       -8.656010   1.000000
   26       -8.542804   1.000000
   27       -8.491381   1.000000
   28       -8.392010   1.000000
   29       -8.333246   1.000000
   30       -8.226525   1.000000
   31       -8.139793   1.000000
   32       -8.028907   1.000000
   33       -7.934758   1.000000
   34       -7.858694   1.000000
   35       -7.799010   1.000000
   36       -7.664770   1.000000
   37       -7.603819   1.000000
   38       -7.504107   1.000000
   39       -7.455662   1.000000
   40       -7.390353   1.000000
   41       -7.331714   1.000000
   42       -7.232168   1.000000
   43       -7.127650   1.000000
   44       -7.047442   1.000000
   45       -6.906729   1.000000
   46       -6.818416   1.000000
   47       -6.746486   1.000000
   48       -6.636344   1.000000
   49       -6.547384   1.000000
   50       -6.491526   1.000000
   51       -6.420701   1.000000
   52       -6.338816   1.000000
   53       -6.306322   1.000000
   54       -6.229077   1.000000
   55       -6.138042   1.000000
   56       -6.121087   1.000000
   57       -5.971973   1.000000
   58       -5.915964   1.000000
   59       -5.711854   1.000000
   60       -5.687842   1.000000
   61       -5.608602   1.000000
   62       -5.525545   1.000000
   63       -5.432342   1.000000
   64       -5.268990   1.000000
   65       -5.176914   1.000000
   66       -5.026685   1.000000
   67       -4.909079   1.000000
   68       -4.835909   1.000000
   69       -4.764687   1.000000
   70       -4.613568   1.000000
   71       -4.536712   1.000000
   72       -4.459408   1.000000
   73       -4.396742   1.000000
   74       -4.265974   1.000000
   75       -4.180201   1.000000
   76       -4.085342   1.000000
   77       -3.880091   0.999912
   78       -3.790700   0.999097
   79       -3.599016   0.961212
   80       -3.351419   0.505644
   81       -3.114555   0.048383
   82       -2.818976   0.000088
   83       -2.630841   0.000000
   84       -2.575964   0.000000
   85       -2.455798   0.000000
   86       -2.360996   0.000000
   87       -2.253652   0.000000
   88       -2.222346   0.000000
   89       -2.127636   0.000000
   90       -2.031691   0.000000
   91       -1.766666   0.000000
   92       -1.501971   0.000000
   93       -1.417447   0.000000
   94       -1.342414   0.000000
   95       -1.168584   0.000000
   96       -1.115947   0.000000
   97       -0.987047   0.000000
   98       -0.936023   0.000000
   99       -0.902860   0.000000
  100       -0.794351   0.000000
  101       -0.676363   0.000000
  102       -0.650089   0.000000
  103       -0.579414   0.000000
  104       -0.422712   0.000000
  105       -0.372716   0.000000
  106       -0.218109   0.000000
  107       -0.167000   0.000000
  108       -0.048854   0.000000
  109        0.133015   0.000000
  110        0.270981   0.000000
  111        0.482972   0.000000
  112        0.633953   0.000000
  113        0.735128   0.000000
  114        0.799897   0.000000
  115        0.967288   0.000000
  116        1.054060   0.000000
  117        1.257603   0.000000
  118        1.766979   0.000000
  119        1.949261   0.000000
  120        2.252078   0.000000
 
  0.2500000E+00  0.1250000E+00  0.0000000E+00  0.3125000E-01
    1      -17.656625   1.000000
    2      -17.043536   1.000000
    3      -16.917400   1.000000
    4      -16.683355   1.000000
    5      -16.516372   1.000000
    6      -16.385883   1.000000
    7      -16.341287   1.000000
    8      -16.224902   1.000000
    9      -16.187765   1.000000
   10      -15.991431   1.000000
   11      -15.911855   1.000000
   12      -15.873580   1.000000
   13      -15.805304   1.000000
   14      -15.696067   1.000000
   15      -15.617323   1.000000
   16      -15.491120   1.000000
   17      -15.385004   1.000000
   18      -15.295761   1.000000
   19       -9.564023   1.000000
   20       -9.407257   1.000000
   21       -9.234728   1.000000
   22       -9.078951   1.000000
   23       -8.871451   1.000000
   24       -8.761511   1.000000
   25       -8.567858   1.000000
   26       -8.494506   1.000000
   27       -8.445442   1.000000
   28       -8.335316   1.000000
   29       -8.307462   1.000000
   30       -8.193581   1.000000
   31       -8.128266   1.000000
   32       -8.054093   1.000000
   33       -7.980014   1.000000
   34       -7.860996   1.000000
   35       -7.773086   1.000000
   36       -7.623188   1.000000
   37       -7.566914   1.000000
   38       -7.481122   1.000000
   39       -7.378663   1.000000
   40       -7.298646   1.000000
   41       -7.222127   1.000000
   42       -7.191253   1.000000
   43       -7.105701   1.000000
   44       -7.001864   1.000000
   45       -6.863781   1.000000
   46       -6.802982   1.000000
   47       -6.728425   1.000000