       N       E                     dE             d eps       ncg     rms          rms(c)
DAV:   1     0.112402619878E+04    0.11240E+04   -0.35863E+04  8160   0.577E+02
DAV:   2    -0.504102683035E+01   -0.11291E+04   -0.10875E+04 11440   0.173E+02
DAV:   3    -0.200008842633E+03   -0.19497E+03   -0.18778E+03 10880   0.818E+01
DAV:   4    -0.209016534390E+03   -0.90077E+01   -0.87458E+01 12400   0.260E+01
DAV:   5    -0.209291873548E+03   -0.27534E+00   -0.27457E+00 11080   0.328E+00    0.275E+01
DAV:   6    -0.236996191648E+03   -0.27704E+02   -0.11086E+02 12600   0.603E+01    0.595E+01
DAV:   7    -0.196522455105E+03    0.40474E+02   -0.17628E+02 13480   0.152E+02    0.201E+01
DAV:   8    -0.189546140956E+03    0.69763E+01   -0.17418E+01 12000   0.128E+01    0.127E+01
DAV:   9    -0.188239735362E+03    0.13064E+01   -0.36078E+00 12480   0.611E+00    0.930E+00
DAV:  10    -0.187048916477E+03    0.11908E+01   -0.18814E+00 13360   0.762E+00    0.289E+00
DAV:  11    -0.187022404656E+03    0.26512E-01   -0.65263E-01 13520   0.282E+00    0.323E+00
DAV:  12    -0.187177492341E+03   -0.15509E+00   -0.11010E+00 12440   0.545E+00    0.492E+00
DAV:  13    -0.186927533739E+03    0.24996E+00   -0.48368E-01 13000   0.387E+00    0.214E+00
DAV:  14    -0.186878597967E+03    0.48936E-01   -0.10427E-01 13040   0.144E+00    0.810E-01
DAV:  15    -0.186879372448E+03   -0.77448E-03   -0.43573E-02 11920   0.123E+00    0.115E+00
DAV:  16    -0.186870783987E+03    0.85885E-02   -0.20512E-02 12640   0.818E-01    0.548E-01
DAV:  17    -0.186867504395E+03    0.32796E-02   -0.97637E-03 12680   0.519E-01    0.222E-01
DAV:  18    -0.186866957474E+03    0.54692E-03   -0.15512E-03 12560   0.173E-01    0.533E-02
DAV:  19    -0.186867466275E+03   -0.50880E-03   -0.74616E-04 10640   0.701E-02    0.931E-02
DAV:  20    -0.186867814569E+03   -0.34829E-03   -0.50080E-04  8960   0.613E-02    0.545E-02
DAV:  21    -0.186868670302E+03   -0.85573E-03   -0.24622E-04  7720   0.507E-02    0.314E-02
DAV:  22    -0.186869475568E+03   -0.80527E-03   -0.12820E-04  7320   0.357E-02    0.293E-02
DAV:  23    -0.186870697943E+03   -0.12224E-02   -0.13214E-04  7480   0.325E-02    0.731E-03
DAV:  24    -0.186871283196E+03   -0.58525E-03   -0.22921E-05  6640   0.124E-02    0.844E-03
DAV:  25    -0.186871718488E+03   -0.43529E-03   -0.17446E-05  5600   0.153E-02    0.539E-03
DAV:  26    -0.186871906084E+03   -0.18760E-03   -0.80661E-06  6840   0.760E-03    0.163E-03
DAV:  27    -0.186871993954E+03   -0.87870E-04   -0.37981E-06  6960   0.445E-03
   1 F= -.18687199E+03 E0= -.18669984E+03  d E =-.186872E+03
       N       E                     dE             d eps       ncg     rms          rms(c)
DAV:   1    -0.187510865232E+03   -0.63896E+00   -0.27186E+02  8160   0.350E+01    0.468E+00
DAV:   2    -0.189613148037E+03   -0.21023E+01   -0.20497E+01 12200   0.159E+01    0.106E+01
DAV:   3    -0.189328334423E+03    0.28481E+00   -0.54637E+00 12400   0.130E+01    0.606E+00
DAV:   4    -0.188796504854E+03    0.53183E+00   -0.56343E-01 11480   0.432E+00    0.240E+00
DAV:   5    -0.188888719959E+03   -0.92215E-01   -0.48201E-01 12400   0.397E+00    0.490E+00
DAV:   6    -0.188758492099E+03    0.13023E+00   -0.61729E-01 12720   0.388E+00    0.226E+00
DAV:   7    -0.188718207185E+03    0.40285E-01   -0.21259E-01 11400   0.186E+00    0.171E+00
DAV:   8    -0.188711256735E+03    0.69504E-02   -0.11097E-01 12920   0.201E+00    0.184E+00
DAV:   9    -0.188684234714E+03    0.27022E-01   -0.49214E-02 11520   0.124E+00    0.499E-01
DAV:  10    -0.188682397929E+03    0.18368E-02   -0.51908E-03 11000   0.276E-01    0.237E-01
DAV:  11    -0.188681903665E+03    0.49426E-03   -0.26082E-03 12680   0.214E-01    0.134E-01
DAV:  12    -0.188681948823E+03   -0.45158E-04   -0.94474E-04 11240   0.978E-02
   2 F= -.18868195E+03 E0= -.18854178E+03  d E =-.180995E+01
       N       E                     dE             d eps       ncg     rms          rms(c)
DAV:   1    -0.190609438384E+03   -0.19275E+01   -0.31299E+01  9280   0.142E+01    0.445E+00
DAV:   2    -0.190561579615E+03    0.47859E-01   -0.27970E+00 11280   0.950E+00    0.723E+00
DAV:   3    -0.190088520612E+03    0.47306E+00   -0.13278E+00 12280   0.863E+00    0.422E+00
DAV:   4    -0.189877690982E+03    0.21083E+00   -0.72732E-01 12800   0.425E+00    0.247E+00
DAV:   5    -0.189788043781E+03    0.89647E-01   -0.28540E-01 11880   0.191E+00    0.817E-01
DAV:   6    -0.189774453402E+03    0.13590E-01   -0.38832E-02 10560   0.714E-01    0.358E-01
DAV:   7    -0.189775245979E+03   -0.79258E-03   -0.90007E-03 12240   0.503E-01    0.397E-01
DAV:   8    -0.189774091840E+03    0.11541E-02   -0.26485E-03 11760   0.293E-01    0.133E-01
DAV:   9    -0.189774494193E+03   -0.40235E-03   -0.10633E-03 10760   0.144E-01    0.166E-01
DAV:  10    -0.189774573741E+03   -0.79548E-04   -0.12212E-03 11200   0.230E-01    0.200E-01
DAV:  11    -0.189774242164E+03    0.33158E-03   -0.63385E-04  9040   0.167E-01    0.455E-02
DAV:  12    -0.189774236256E+03    0.59079E-05   -0.90971E-05  6200   0.409E-02
   3 F= -.18977424E+03 E0= -.18965566E+03  d E =-.109229E+01
       N       E                     dE             d eps       ncg     rms          rms(c)
DAV:   1    -0.191332496965E+03   -0.15583E+01   -0.75638E+01  8160   0.198E+01    0.460E+00
DAV:   2    -0.191201143623E+03    0.13135E+00   -0.54242E+00 13200   0.806E+00    0.496E+00
DAV:   3    -0.191305091090E+03   -0.10395E+00   -0.16246E+00 11760   0.914E+00    0.713E+00
DAV:   4    -0.190975261535E+03    0.32983E+00   -0.17404E+00 12200   0.818E+00    0.442E+00
DAV:   5    -0.190944142702E+03    0.31119E-01   -0.96150E-01 11200   0.596E+00    0.360E+00
DAV:   6    -0.190761012562E+03    0.18313E+00   -0.22212E-01 11880   0.299E+00    0.679E-01
DAV:   7    -0.190756140262E+03    0.48723E-02   -0.40938E-02 11200   0.728E-01    0.460E-01
DAV:   8    -0.190753206769E+03    0.29335E-02   -0.79438E-03 10200   0.378E-01    0.183E-01
DAV:   9    -0.190753540166E+03   -0.33340E-03   -0.19024E-03 12040   0.273E-01    0.239E-01
DAV:  10    -0.190753507145E+03    0.33020E-04   -0.16411E-03 10160   0.285E-01    0.173E-01
DAV:  11    -0.190753270096E+03    0.23705E-03   -0.86750E-04 10440   0.149E-01    0.528E-02
DAV:  12    -0.190753259938E+03    0.10157E-04   -0.16342E-04  6560   0.504E-02
   4 F= -.19075326E+03 E0= -.19065010E+03  d E =-.979024E+00
       N       E                     dE             d eps       ncg     rms          rms(c)
DAV:   1    -0.192103028384E+03   -0.13498E+01   -0.15847E+02  8160   0.281E+01    0.569E+00
DAV:   2    -0.191923221687E+03    0.17981E+00   -0.95182E+00 11920   0.898E+00    0.489E+00
DAV:   3    -0.192367404972E+03   -0.44418E+00   -0.26982E+00 12240   0.113E+01    0.957E+00
DAV:   4    -0.191588873198E+03    0.77853E+00   -0.26533E+00 12200   0.110E+01    0.330E+00
DAV:   5    -0.191413274407E+03    0.17560E+00   -0.44399E-01 12120   0.292E+00    0.122E+00
DAV:   6    -0.191415672736E+03   -0.23983E-02   -0.16163E-01 12440   0.232E+00    0.177E+00
DAV:   7    -0.191395383215E+03    0.20290E-01   -0.11728E-01 12160   0.216E+00    0.816E-01
DAV:   8    -0.191385838008E+03    0.95452E-02   -0.12360E-02 11600   0.628E-01    0.177E-01
DAV:   9    -0.191386542305E+03   -0.70430E-03   -0.31236E-03 12240   0.237E-01    0.213E-01
DAV:  10    -0.191386506846E+03    0.35459E-04   -0.24057E-03 11360   0.338E-01    0.218E-01
DAV:  11    -0.191386088467E+03    0.41838E-03   -0.10061E-03 10160   0.216E-01    0.630E-02
DAV:  12    -0.191386050108E+03    0.38359E-04   -0.13059E-04  6080   0.519E-02
   5 F= -.19138605E+03 E0= -.19128492E+03  d E =-.632790E+00
       N       E                     dE             d eps       ncg     rms          rms(c)
DAV:   1    -0.191422941743E+03   -0.36853E-01   -0.28047E+00  8160   0.355E+00    0.460E-01
DAV:   2    -0.191448152626E+03   -0.25211E-01   -0.16754E-01 12640   0.192E+00    0.123E+00
DAV:   3    -0.191433180857E+03    0.14972E-01   -0.41299E-02 12240   0.139E+00    0.369E-01
DAV:   4    -0.191433521941E+03   -0.34108E-03   -0.87464E-03 11040   0.579E-01    0.491E-01
DAV:   5    -0.191431484905E+03    0.20370E-02   -0.53153E-03 10920   0.498E-01    0.197E-01
DAV:   6    -0.191431195071E+03    0.28983E-03   -0.14276E-03 10960   0.182E-01    0.880E-02
DAV:   7    -0.191431073121E+03    0.12195E-03   -0.65357E-04  9840   0.890E-02    0.332E-02
DAV:   8    -0.191431066613E+03    0.65075E-05   -0.92277E-05  6880   0.395E-02
   6 F= -.19143107E+03 E0= -.19132809E+03  d E =-.450165E-01
       N       E                     dE             d eps       ncg     rms          rms(c)
DAV:   1    -0.191477281209E+03   -0.46208E-01   -0.55296E+00  8160   0.499E+00    0.580E-01
DAV:   2    -0.191496392715E+03   -0.19112E-01   -0.17848E-01 13160   0.152E+00    0.104E+00
DAV:   3    -0.191489146220E+03    0.72465E-02   -0.56042E-02 11840   0.155E+00    0.747E-01
DAV:   4    -0.191485078417E+03    0.40678E-02   -0.16268E-02 11760   0.782E-01    0.488E-01
DAV:   5    -0.191483609265E+03    0.14692E-02   -0.81266E-03 10960   0.646E-01    0.353E-01
DAV:   6    -0.191482388488E+03    0.12208E-02   -0.34164E-03 11080   0.355E-01    0.124E-01
DAV:   7    -0.191482540644E+03   -0.15216E-03   -0.15852E-03 10640   0.226E-01    0.185E-01
DAV:   8    -0.191482235747E+03    0.30490E-03   -0.88894E-04  8480   0.209E-01    0.706E-02
DAV:   9    -0.191482191573E+03    0.44174E-04   -0.11977E-04  5760   0.679E-02
   7 F= -.19148219E+03 E0= -.19137787E+03  d E =-.511250E-01
       N       E                     dE             d eps       ncg     rms          rms(c)
DAV:   1    -0.191507549488E+03   -0.25314E-01   -0.11067E+00  8160   0.227E+00    0.299E-01
DAV:   2    -0.191511924302E+03   -0.43748E-02   -0.42157E-02 13120   0.868E-01    0.553E-01
DAV:   3    -0.191509087578E+03    0.28367E-02   -0.10404E-02 12240   0.742E-01    0.253E-01
DAV:   4    -0.191508232301E+03    0.85528E-03   -0.21090E-03 11400   0.254E-01    0.115E-01
DAV:   5    -0.191508222356E+03    0.99455E-05   -0.12341E-03 10200   0.182E-01    0.153E-01
DAV:   6    -0.191508180229E+03    0.42127E-04   -0.12395E-03  9400   0.238E-01    0.138E-01
DAV:   7    -0.191507984258E+03    0.19597E-03   -0.38915E-04  7200   0.128E-01    0.290E-02
DAV:   8    -0.191507992010E+03   -0.77521E-05   -0.71472E-05  5960   0.499E-02
   8 F= -.19150799E+03 E0= -.19140338E+03  d E =-.258004E-01
       N       E                     dE             d eps       ncg     rms          rms(c)
DAV:   1    -0.191541667707E+03   -0.33683E-01   -0.19853E+00  8160   0.303E+00    0.341E-01
DAV:   2    -0.191547318017E+03   -0.56503E-02   -0.61063E-02 13600   0.928E-01    0.526E-01
DAV:   3    -0.191545473537E+03    0.18445E-02   -0.12166E-02 12200   0.817E-01    0.359E-01
DAV:   4    -0.191543924805E+03    0.15487E-02   -0.29133E-03 11160   0.352E-01    0.138E-01
DAV:   5    -0.191544243782E+03   -0.31898E-03   -0.18880E-03 10600   0.279E-01    0.254E-01
DAV:   6    -0.191543837204E+03    0.40658E-03   -0.20992E-03  9720   0.300E-01    0.131E-01
DAV:   7    -0.191543631950E+03    0.20525E-03   -0.40740E-04  8040   0.111E-01    0.281E-02
DAV:   8    -0.191543644137E+03   -0.12186E-04   -0.85177E-05  6520   0.566E-02
   9 F= -.19154364E+03 E0= -.19143960E+03  d E =-.356521E-01
       N       E                     dE             d eps       ncg     rms          rms(c)
DAV:   1    -0.191510121786E+03    0.33510E-01   -0.16075E+00  8160   0.272E+00    0.279E-01
DAV:   2    -0.191512950355E+03   -0.28286E-02   -0.41977E-02 12440   0.576E-01    0.278E-01
DAV:   3    -0.191513963277E+03   -0.10129E-02   -0.73568E-03 11160   0.598E-01    0.447E-01
DAV:   4    -0.191512103565E+03    0.18597E-02   -0.42751E-03 10240   0.445E-01    0.181E-01
DAV:   5    -0.191512035951E+03    0.67615E-04   -0.17500E-03  9880   0.284E-01    0.181E-01
DAV:   6    -0.191511830685E+03    0.20527E-03   -0.11832E-03  9760   0.218E-01    0.919E-02
DAV:   7    -0.191511741595E+03    0.89090E-04   -0.37049E-04  8720   0.109E-01
  10 F= -.19151174E+03 E0= -.19140694E+03  d E =0.319025E-01
       N       E                     dE             d eps       ncg     rms          rms(c)
DAV:   1    -0.191435360690E+03    0.76470E-01   -0.11765E+01  8160   0.736E+00    0.774E-01
DAV:   2    -0.191454559229E+03   -0.19199E-01   -0.30946E-01 12680   0.152E+00    0.719E-01
DAV:   3    -0.191468120457E+03   -0.13561E-01   -0.59597E-02 12080   0.165E+00    0.146E+00
DAV:   4    -0.191449300727E+03    0.18820E-01   -0.41457E-02 11600   0.135E+00    0.440E-01
DAV:   5    -0.191449201195E+03    0.99532E-04   -0.11598E-02 10880   0.690E-01    0.472E-01
DAV:   6    -0.191447961004E+03    0.12402E-02   -0.87843E-03 11960   0.634E-01    0.284E-01
DAV:   7    -0.191446641105E+03    0.13199E-02   -0.23374E-03 11560   0.267E-01    0.564E-02
DAV:   8    -0.191446709148E+03   -0.68043E-04   -0.36314E-04  9400   0.106E-01
  11 F= -.19144671E+03 E0= -.19134178E+03  d E =0.650324E-01
       N       E                     dE             d eps       ncg     rms          rms(c)
DAV:   1    -0.191435993122E+03    0.10648E-01   -0.20911E+00  8160   0.309E+00    0.318E-01
DAV:   2    -0.191438534375E+03   -0.25413E-02   -0.45711E-02 13000   0.618E-01    0.320E-01
DAV:   3    -0.191440321044E+03   -0.17867E-02   -0.11368E-02 10960   0.666E-01    0.550E-01
DAV:   4    -0.191437706035E+03    0.26150E-02   -0.70122E-03 10200   0.527E-01    0.217E-01
DAV:   5    -0.191437565994E+03    0.14004E-03   -0.23708E-03  9600   0.339E-01    0.212E-01
DAV:   6    -0.191437274848E+03    0.29115E-03   -0.14464E-03 10200   0.263E-01    0.107E-01
DAV:   7    -0.191437087668E+03    0.18718E-03   -0.29448E-04  7280   0.904E-02    0.202E-02
DAV:   8    -0.191437090897E+03   -0.32286E-05   -0.51237E-05  7160   0.324E-02
  12 F= -.19143709E+03 E0= -.19133212E+03  d E =0.961825E-02
       N       E                     dE             d eps       ncg     rms          rms(c)
DAV:   1    -0.191453303133E+03   -0.16215E-01   -0.13756E+00  8160   0.248E+00    0.247E-01
DAV:   2    -0.191456357690E+03   -0.30546E-02   -0.41199E-02 12240   0.604E-01    0.264E-01
DAV:   3    -0.191457413994E+03   -0.10563E-02   -0.88717E-03 11240   0.572E-01    0.455E-01
DAV:   4    -0.191455523563E+03    0.18904E-02   -0.38424E-03 10880   0.394E-01    0.128E-01
DAV:   5    -0.191455541968E+03   -0.18405E-04   -0.10314E-03  9760   0.219E-01    0.154E-01
DAV:   6    -0.191455397892E+03    0.14408E-03   -0.82272E-04  9800   0.205E-01    0.937E-02
DAV:   7    -0.191455317629E+03    0.80263E-04   -0.29143E-04  6840   0.105E-01
  13 F= -.19145532E+03 E0= -.19134952E+03  d E =-.182267E-01
       N       E                     dE             d eps       ncg     rms          rms(c)
DAV:   1    -0.191462051477E+03   -0.66536E-02   -0.23046E-01  8160   0.105E+00    0.143E-01
DAV:   2    -0.191462987570E+03   -0.93609E-03   -0.84218E-03 13560   0.387E-01    0.291E-01
DAV:   3    -0.191462338656E+03    0.64891E-03   -0.27214E-03 10520   0.367E-01    0.159E-01
DAV:   4    -0.191462217709E+03    0.12095E-03   -0.89525E-04  8480   0.201E-01    0.128E-01
DAV:   5    -0.191462093458E+03    0.12425E-03   -0.61233E-04  8240   0.173E-01    0.829E-02
DAV:   6    -0.191462037602E+03    0.55856E-04   -0.26961E-04  6840   0.945E-02
  14 F= -.19146204E+03 E0= -.19135600E+03  d E =-.671997E-02
       N       E                     dE             d eps       ncg     rms          rms(c)
DAV:   1    -0.191485867953E+03   -0.23774E-01   -0.19092E+00  8160   0.297E+00    0.342E-01
DAV:   2    -0.191491441684E+03   -0.55737E-02   -0.59650E-02 12640   0.928E-01    0.575E-01
DAV:   3    -0.191489490865E+03    0.19508E-02   -0.14021E-02 12120   0.833E-01    0.404E-01
DAV:   4    -0.191488757857E+03    0.73301E-03   -0.58599E-03 11040   0.491E-01    0.344E-01
DAV:   5    -0.191487749711E+03    0.10081E-02   -0.35893E-03 10240   0.395E-01    0.172E-01
DAV:   6    -0.191487523507E+03    0.22620E-03   -0.12869E-03  9760   0.179E-01    0.784E-02
DAV:   7    -0.191487504899E+03    0.18608E-04   -0.48869E-04  9000   0.129E-01
  15 F= -.19148750E+03 E0= -.19138074E+03  d E =-.254673E-01
       N       E                     dE             d eps       ncg     rms          rms(c)
DAV:   1    -0.191478376799E+03    0.91467E-02   -0.27577E-01  8160   0.113E+00    0.120E-01
DAV:   2    -0.191479349451E+03   -0.97265E-03   -0.81236E-03 13560   0.318E-01    0.262E-01
DAV:   3    -0.191478817811E+03    0.53164E-03   -0.21888E-03 10200   0.312E-01    0.130E-01
DAV:   4    -0.191478656682E+03    0.16113E-03   -0.39969E-04  7920   0.114E-01    0.528E-02
DAV:   5    -0.191478712425E+03   -0.55743E-04   -0.28920E-04  7920   0.116E-01
  16 F= -.19147871E+03 E0= -.19137201E+03  d E =0.879247E-02
       N       E                     dE             d eps       ncg     rms          rms(c)
DAV:   1    -0.191476242255E+03    0.24144E-02   -0.74858E-01  8160   0.184E+00    0.196E-01
DAV:   2    -0.191479066261E+03   -0.28240E-02   -0.20405E-02 13600   0.599E-01    0.469E-01
DAV:   3    -0.191477302493E+03    0.17638E-02   -0.61479E-03 11880   0.533E-01    0.206E-01
DAV:   4    -0.191477026694E+03    0.27580E-03   -0.11380E-03  8960   0.202E-01    0.123E-01
DAV:   5    -0.191477037685E+03   -0.10991E-04   -0.94796E-04  9880   0.208E-01
  17 F= -.19147704E+03 E0= -.19137035E+03  d E =0.167474E-02
       N       E                     dE             d eps       ncg     rms          rms(c)
DAV:   1    -0.191495246289E+03   -0.18220E-01   -0.11940E+00  8160   0.235E+00    0.262E-01
DAV:   2    -0.191499433421E+03   -0.41871E-02   -0.39993E-02 12040   0.742E-01    0.514E-01
DAV:   3    -0.191497707984E+03    0.17254E-02   -0.95652E-03 11760   0.658E-01    0.303E-01
DAV:   4    -0.191497259206E+03    0.44878E-03   -0.31297E-03 10360   0.357E-01    0.232E-01
DAV:   5    -0.191496767940E+03    0.49127E-03   -0.17758E-03  9840   0.292E-01    0.124E-01
DAV:   6    -0.191496730301E+03    0.37638E-04   -0.82376E-04  9720   0.153E-01
  18 F= -.19149673E+03 E0= -.19138947E+03  d E =-.196926E-01
       N       E                     dE             d eps       ncg     rms          rms(c)
DAV:   1    -0.191487025845E+03    0.97421E-02   -0.33076E-01  8160   0.124E+00    0.178E-01
DAV:   2    -0.191491974119E+03   -0.49483E-02   -0.17347E-02 12920   0.726E-01    0.705E-01
DAV:   3    -0.191487270132E+03    0.47040E-02   -0.91267E-03 10960   0.658E-01    0.115E-01
DAV:   4    -0.191487228561E+03    0.41572E-04   -0.63240E-04  9080   0.124E-01
  19 F= -.19148723E+03 E0= -.19138028E+03  d E =0.950174E-02
       N       E                     dE             d eps       ncg     rms          rms(c)
DAV:   1    -0.191482840764E+03    0.44294E-02   -0.44864E-01  8160   0.146E+00    0.276E-01
DAV:   2    -0.191485830254E+03   -0.29895E-02   -0.22295E-02 12000   0.766E-01    0.648E-01
DAV:   3    -0.191482117410E+03    0.37128E-02   -0.11849E-02 10600   0.717E-01    0.281E-01
DAV:   4    -0.191481884749E+03    0.23266E-03   -0.34816E-03 10880   0.390E-01    0.256E-01
DAV:   5    -0.191481476263E+03    0.40849E-03   -0.25223E-03  9640   0.365E-01    0.181E-01
DAV:   6    -0.191481060286E+03    0.41598E-03   -0.94720E-04  9920   0.178E-01    0.440E-02
DAV:   7    -0.191481049459E+03    0.10827E-04   -0.13335E-04  6240   0.475E-02
  20 F= -.19148105E+03 E0= -.19137436E+03  d E =0.617910E-02
       N       E                     dE             d eps       ncg     rms          rms(c)
DAV:   1    -0.191506970512E+03   -0.25910E-01   -0.22811E+00  8160   0.326E+00    0.383E-01
DAV:   2    -0.191509118737E+03   -0.21482E-02   -0.64069E-02 12120   0.691E-01    0.278E-01
DAV:   3    -0.191511492184E+03   -0.23734E-02   -0.11734E-02 11520   0.714E-01    0.615E-01
DAV:   4    -0.191507980090E+03    0.35121E-02   -0.90697E-03 11440   0.656E-01    0.229E-01
DAV:   5    -0.191507856354E+03    0.12374E-03   -0.27732E-03 10000   0.336E-01    0.227E-01
DAV:   6    -0.191507474039E+03    0.38232E-03   -0.19015E-03 11280   0.311E-01    0.134E-01
DAV:   7    -0.191507276876E+03    0.19716E-03   -0.49486E-04  8160   0.138E-01    0.628E-02
DAV:   8    -0.191507264910E+03    0.11966E-04   -0.20886E-04  6360   0.985E-02
  21 F= -.19150726E+03 E0= -.19139987E+03  d E =-.262155E-01
       N       E                     dE             d eps       ncg     rms          rms(c)
DAV:   1    -0.191542139700E+03   -0.34863E-01   -0.38910E+00  8160   0.425E+00    0.481E-01
DAV:   2    -0.191548049400E+03   -0.59097E-02   -0.11301E-01 12200   0.951E-01    0.477E-01
DAV:   3    -0.191552929155E+03   -0.48798E-02   -0.26741E-02 12320   0.109E+00    0.895E-01
DAV:   4    -0.191545102027E+03    0.78271E-02   -0.15049E-02 11840   0.827E-01    0.208E-01
DAV:   5    -0.191545201051E+03   -0.99024E-04   -0.31278E-03 11320   0.319E-01    0.267E-01
DAV:   6    -0.191545001356E+03    0.19969E-03   -0.34446E-03 10480   0.411E-01    0.247E-01
DAV:   7    -0.191544417085E+03    0.58427E-03   -0.14894E-03  9760   0.249E-01    0.920E-02
DAV:   8    -0.191544364032E+03    0.53053E-04   -0.36714E-04  8440   0.132E-01
  22 F= -.19154436E+03 E0= -.19143685E+03  d E =-.370991E-01
       N       E                     dE             d eps       ncg     rms          rms(c)
DAV:   1    -0.191558866374E+03   -0.14449E-01   -0.65658E-01  8160   0.173E+00    0.188E-01
DAV:   2    -0.191560347457E+03   -0.14811E-02   -0.20367E-02 11840   0.416E-01    0.230E-01
DAV:   3    -0.191560500098E+03   -0.15264E-03   -0.42610E-03 11440   0.430E-01    0.271E-01
DAV:   4    -0.191559869121E+03    0.63098E-03   -0.18731E-03  9800   0.281E-01    0.142E-01
DAV:   5    -0.191559745700E+03    0.12342E-03   -0.63170E-04  8160   0.188E-01    0.975E-02
DAV:   6    -0.191559713491E+03    0.32208E-04   -0.32489E-04  8640   0.107E-01
  23 F= -.19155971E+03 E0= -.19145223E+03  d E =-.153495E-01
       N       E                     dE             d eps       ncg     rms          rms(c)
DAV:   1    -0.191561420352E+03   -0.16747E-02   -0.25706E-02  8160   0.356E-01    0.531E-02
DAV:   2    -0.191561509213E+03   -0.88861E-04   -0.10774E-03 11600   0.145E-01    0.940E-02
DAV:   3    -0.191561433970E+03    0.75243E-04   -0.32535E-04  9200   0.129E-01
  24 F= -.19156143E+03 E0= -.19145397E+03  d E =-.172048E-02
       N       E                     dE             d eps       ncg     rms          rms(c)
DAV:   1    -0.191580695474E+03   -0.19186E-01   -0.10923E+00  8160   0.226E+00    0.272E-01
DAV:   2    -0.191582121145E+03   -0.14257E-02   -0.35619E-02 12240   0.498E-01    0.167E-01
DAV:   3    -0.191582373272E+03   -0.25213E-03   -0.34339E-03 11720   0.340E-01    0.274E-01
DAV:   4    -0.191581853109E+03    0.52016E-03   -0.29463E-03 10880   0.381E-01    0.207E-01
DAV:   5    -0.191581565551E+03    0.28756E-03   -0.14584E-03  9520   0.232E-01    0.123E-01
DAV:   6    -0.191581547887E+03    0.17664E-04   -0.10111E-03  9200   0.210E-01    0.121E-01
DAV:   7    -0.191581372825E+03    0.17506E-03   -0.37799E-04  7840   0.130E-01    0.269E-02
DAV:   8    -0.191581366310E+03    0.65155E-05   -0.48044E-05  6720   0.349E-02
  25 F= -.19158137E+03 E0= -.19147427E+03  d E =-.199323E-01
       N       E                     dE             d eps       ncg     rms          rms(c)
DAV:   1    -0.191598974830E+03   -0.17602E-01   -0.91178E-01  8160   0.204E+00    0.226E-01
DAV:   2    -0.191601893818E+03   -0.29190E-02   -0.28422E-02 11520   0.603E-01    0.411E-01
DAV:   3    -0.191600503907E+03    0.13899E-02   -0.72515E-03 11400   0.567E-01    0.240E-01
DAV:   4    -0.191600283994E+03    0.21991E-03   -0.21120E-03 10640   0.299E-01    0.206E-01
DAV:   5    -0.191599894163E+03    0.38983E-03   -0.10750E-03  9520   0.245E-01    0.103E-01
DAV:   6    -0.191599858912E+03    0.35251E-04   -0.41473E-04  9040   0.119E-01
  26 F= -.19159986E+03 E0= -.19149324E+03  d E =-.184926E-01
       N       E                     dE             d eps       ncg     rms          rms(c)
DAV:   1    -0.191583057998E+03    0.16836E-01   -0.74114E-01  8160   0.185E+00    0.221E-01
DAV:   2    -0.191585195565E+03   -0.21376E-02   -0.24748E-02 11720   0.518E-01    0.358E-01
DAV:   3    -0.191584679756E+03    0.51581E-03   -0.74896E-03 12280   0.578E-01    0.311E-01
DAV:   4    -0.191583824867E+03    0.85489E-03   -0.24075E-03 10320   0.306E-01    0.146E-01
DAV:   5    -0.191583683945E+03    0.14092E-03   -0.99690E-04  9400   0.220E-01    0.116E-01
DAV:   6    -0.191583578829E+03    0.10512E-03   -0.49026E-04  9080   0.139E-01    0.511E-02
DAV:   7    -0.191583548896E+03    0.29933E-04   -0.15322E-04  7480   0.658E-02
  27 F= -.19158355E+03 E0= -.19147662E+03  d E =0.163100E-01
       N       E                     dE             d eps       ncg     rms          rms(c)
DAV:   1    -0.191555167069E+03    0.28412E-01   -0.22955E+00  8160   0.323E+00    0.356E-01
DAV:   2    -0.191562372950E+03   -0.72059E-02   -0.71350E-02 12880   0.976E-01    0.613E-01
DAV:   3    -0.191559401623E+03    0.29713E-02   -0.17627E-02 12280   0.902E-01    0.375E-01
DAV:   4    -0.191558393536E+03    0.10081E-02   -0.47975E-03 11440   0.437E-01    0.267E-01
DAV:   5    -0.191557944205E+03    0.44933E-03   -0.26934E-03 10080   0.366E-01    0.212E-01
DAV:   6    -0.191557652963E+03    0.29124E-03   -0.14031E-03  9960   0.229E-01    0.947E-02
DAV:   7    -0.191557516011E+03    0.13695E-03   -0.37739E-04  8400   0.871E-02    0.273E-02
DAV:   8    -0.191557513585E+03    0.24255E-05   -0.73837E-05  7920   0.473E-02
  28 F= -.19155751E+03 E0= -.19145010E+03  d E =0.260353E-01
       N       E                     dE             d eps       ncg     rms          rms(c)
DAV:   1    -0.191553658814E+03    0.38572E-02   -0.85138E-01  8160   0.196E+00    0.218E-01
DAV:   2    -0.191556698371E+03   -0.30396E-02   -0.18304E-02 13520   0.621E-01    0.506E-01
DAV:   3    -0.191554402207E+03    0.22962E-02   -0.73383E-03 12160   0.612E-01    0.241E-01
DAV:   4    -0.191554166058E+03    0.23615E-03   -0.20098E-03  9640   0.281E-01    0.180E-01
DAV:   5    -0.191553993029E+03    0.17303E-03   -0.13584E-03  9680   0.258E-01    0.141E-01
DAV:   6    -0.191553767959E+03    0.22507E-03   -0.52880E-04  8840   0.149E-01    0.384E-02
DAV:   7    -0.191553779769E+03   -0.11809E-04   -0.10964E-04  6040   0.547E-02
  29 F= -.19155378E+03 E0= -.19144646E+03  d E =0.373382E-02
       N       E                     dE             d eps       ncg     rms          rms(c)
DAV:   1    -0.191567029407E+03   -0.13261E-01   -0.24077E+00  8160   0.332E+00    0.396E-01
DAV:   2    -0.191581166851E+03   -0.14137E-01   -0.77098E-02 13600   0.131E+00    0.110E+00
DAV:   3    -0.191570367105E+03    0.10800E-01   -0.28908E-02 12240   0.120E+00    0.362E-01
DAV:   4    -0.191569742823E+03    0.62428E-03   -0.48793E-03 11440   0.406E-01    0.255E-01
DAV:   5    -0.191569241445E+03    0.50138E-03   -0.31587E-03 12080   0.388E-01    0.225E-01
DAV:   6    -0.191568877577E+03    0.36387E-03   -0.18743E-03 10040   0.285E-01    0.123E-01
DAV:   7    -0.191569038804E+03   -0.16123E-03   -0.11513E-03  9480   0.226E-01    0.178E-01
DAV:   8    -0.191568692397E+03    0.34641E-03   -0.59284E-04  8440   0.174E-01    0.235E-02
DAV:   9    -0.191568701862E+03   -0.94658E-05   -0.42808E-05  5640   0.287E-02
  30 F= -.19156870E+03 E0= -.19146180E+03  d E =-.149221E-01
       N       E                     dE             d eps       ncg     rms          rms(c)
DAV:   1    -0.191592547070E+03   -0.23855E-01   -0.53519E+00  8160   0.495E+00    0.564E-01
DAV:   2    -0.191617051513E+03   -0.24504E-01   -0.16977E-01 13280   0.175E+00    0.135E+00
DAV:   3    -0.191601888822E+03    0.15163E-01   -0.50636E-02 12280   0.160E+00    0.561E-01
DAV:   4    -0.191599308809E+03    0.25800E-02   -0.88386E-03 11200   0.551E-01    0.278E-01
DAV:   5    -0.191598613927E+03    0.69488E-03   -0.49008E-03 12600   0.423E-01    0.289E-01
DAV:   6    -0.191598542708E+03    0.71219E-04   -0.43772E-03 11720   0.457E-01    0.253E-01
DAV:   7    -0.191598017419E+03    0.52529E-03   -0.20494E-03  9720   0.287E-01    0.150E-01
DAV:   8    -0.191597770538E+03    0.24688E-03   -0.59110E-04  8320   0.171E-01    0.387E-02
DAV:   9    -0.191597762297E+03    0.82413E-05   -0.72082E-05  6800   0.452E-02
  31 F= -.19159776E+03 E0= -.19149171E+03  d E =-.290604E-01
       N       E                     dE             d eps       ncg     rms          rms(c)
DAV:   1    -0.191619854051E+03   -0.22084E-01   -0.13446E+01  8160   0.785E+00    0.845E-01
DAV:   2    -0.191660730275E+03   -0.40876E-01   -0.42913E-01 12240   0.233E+00    0.143E+00
DAV:   3    -0.191650350580E+03    0.10380E-01   -0.77558E-02 12320   0.210E+00    0.102E+00
DAV:   4    -0.191638367718E+03    0.11983E-01   -0.17943E-02 12360   0.951E-01    0.265E-01
DAV:   5    -0.191638154932E+03    0.21279E-03   -0.74463E-03 10600   0.309E-01    0.229E-01
DAV:   6    -0.191637053756E+03    0.11012E-02   -0.34343E-03 11320   0.219E-01    0.103E-01
DAV:   7    -0.191637001329E+03    0.52427E-04   -0.91796E-04 10560   0.181E-01
  32 F= -.19163700E+03 E0= -.19153189E+03  d E =-.392390E-01
       N       E                     dE             d eps       ncg     rms          rms(c)
DAV:   1    -0.191641901473E+03   -0.48477E-02   -0.10234E+00  8160   0.218E+00    0.272E-01
DAV:   2    -0.191647526200E+03   -0.56247E-02   -0.37205E-02 12800   0.850E-01    0.631E-01
DAV:   3    -0.191643270819E+03    0.42554E-02   -0.12550E-02 11760   0.773E-01    0.237E-01
DAV:   4    -0.191643103453E+03    0.16737E-03   -0.27286E-03 11160   0.320E-01    0.195E-01
DAV:   5    -0.191642806124E+03    0.29733E-03   -0.17558E-03 10280   0.295E-01    0.146E-01
DAV:   6    -0.191642632220E+03    0.17390E-03   -0.74174E-04  9520   0.175E-01    0.605E-02
DAV:   7    -0.191642593413E+03    0.38807E-04   -0.16364E-04  6640   0.616E-02
  33 F= -.19164259E+03 E0= -.19153765E+03  d E =-.559208E-02
       N       E                     dE             d eps       ncg     rms          rms(c)
DAV:   1    -0.191649006708E+03   -0.63745E-02   -0.43045E-01  8160   0.139E+00    0.147E-01
DAV:   2    -0.191650092152E+03   -0.10854E-02   -0.13256E-02 12920   0.361E-01    0.172E-01
DAV:   3    -0.191650118797E+03   -0.26645E-04   -0.20221E-03 11720   0.321E-01    0.202E-01
DAV:   4    -0.191649762503E+03    0.35629E-03   -0.73947E-04  8640   0.216E-01    0.913E-02
DAV:   5    -0.191649715958E+03    0.46545E-04   -0.36404E-04  7920   0.136E-01
  34 F= -.19164972E+03 E0= -.19154580E+03  d E =-.712254E-02
       N       E                     dE             d eps       ncg     rms          rms(c)
DAV:   1    -0.191642138917E+03    0.76236E-02   -0.79672E-01  8160   0.189E+00    0.206E-01
DAV:   2    -0.191645483962E+03   -0.33450E-02   -0.21137E-02 13520   0.593E-01    0.479E-01
DAV:   3    -0.191643256629E+03    0.22273E-02   -0.62859E-03 11760   0.606E-01    0.232E-01
DAV:   4    -0.191642837336E+03    0.41929E-03   -0.15565E-03 10080   0.244E-01    0.106E-01
DAV:   5    -0.191642661091E+03    0.17624E-03   -0.45677E-04  7880   0.102E-01    0.570E-02
DAV:   6    -0.191642764458E+03   -0.10337E-03   -0.42294E-04 10160   0.151E-01    0.102E-01
DAV:   7    -0.191642648361E+03    0.11610E-03   -0.24388E-04  7160   0.114E-01    0.247E-02
DAV:   8    -0.191642649943E+03   -0.15826E-05   -0.46946E-05  6160   0.415E-02
  35 F= -.19164265E+03 E0= -.19153756E+03  d E =0.706601E-02
       N       E                     dE             d eps       ncg     rms          rms(c)
DAV:   1    -0.191636947391E+03    0.57010E-02   -0.23510E+00  8160   0.324E+00    0.350E-01
DAV:   2    -0.191643885470E+03   -0.69381E-02   -0.53560E-02 13240   0.889E-01    0.670E-01
DAV:   3    -0.191639988598E+03    0.38969E-02   -0.15093E-02 11920   0.909E-01    0.416E-01
DAV:   4    -0.191638950534E+03    0.10381E-02   -0.49342E-03 11680   0.456E-01    0.232E-01
DAV:   5    -0.191638416973E+03    0.53356E-03   -0.24196E-03 10560   0.323E-01    0.176E-01
DAV:   6    -0.191638266031E+03    0.15094E-03   -0.14623E-03 10440   0.272E-01    0.116E-01
DAV:   7    -0.191638122282E+03    0.14375E-03   -0.41874E-04  8240   0.126E-01    0.391E-02
DAV:   8    -0.191638117317E+03    0.49654E-05   -0.10356E-04  7280   0.687E-02
  36 F= -.19163812E+03 E0= -.19153187E+03  d E =0.453263E-02
       N       E                     dE             d eps       ncg     rms          rms(c)
DAV:   1    -0.191640531187E+03   -0.24089E-02   -0.70123E-02  8160   0.575E-01    0.675E-02
DAV:   2    -0.191640619888E+03   -0.88701E-04   -0.18396E-03 12920   0.132E-01    0.635E-02
DAV:   3    -0.191640624002E+03   -0.41142E-05   -0.36176E-04  9000   0.126E-01
  37 F= -.19164062E+03 E0= -.19153470E+03  d E =-.250669E-02
       N       E                     dE             d eps       ncg     rms          rms(c)
DAV:   1    -0.191644159115E+03   -0.35392E-02   -0.17219E-01  8160   0.897E-01    0.135E-01
DAV:   2    -0.191646476683E+03   -0.23176E-02   -0.90740E-03 13600   0.525E-01    0.447E-01
DAV:   3    -0.191644353228E+03    0.21235E-02   -0.35918E-03 10960   0.459E-01    0.849E-02
DAV:   4    -0.191644396493E+03   -0.43265E-04   -0.43326E-04  8600   0.132E-01
  38 F= -.19164440E+03 E0= -.19153851E+03  d E =-.377249E-02
       N       E                     dE             d eps       ncg     rms          rms(c)
DAV:   1    -0.191648700622E+03   -0.43474E-02   -0.21125E-01  8160   0.101E+00    0.133E-01
DAV:   2    -0.191649797658E+03   -0.10970E-02   -0.68114E-03 13600   0.368E-01    0.298E-01
DAV:   3    -0.191648944238E+03    0.85342E-03   -0.24152E-03 10280   0.374E-01    0.130E-01
DAV:   4    -0.191648867255E+03    0.76983E-04   -0.51898E-04  8400   0.151E-01
  39 F= -.19164887E+03 E0= -.19154392E+03  d E =-.447076E-02
       N       E                     dE             d eps       ncg     rms          rms(c)
DAV:   1    -0.191651288453E+03   -0.23442E-02   -0.24269E-01  8160   0.113E+00    0.177E-01
DAV:   2    -0.191651978401E+03   -0.68995E-03   -0.94196E-03 12680   0.399E-01    0.292E-01
DAV:   3    -0.191651343442E+03    0.63496E-03   -0.36468E-03 11440   0.444E-01    0.207E-01
DAV:   4    -0.191651011106E+03    0.33234E-03   -0.11517E-03  9600   0.238E-01    0.131E-01
DAV:   5    -0.191650908565E+03    0.10254E-03   -0.75111E-04  9000   0.208E-01    0.107E-01
DAV:   6    -0.191650784404E+03    0.12416E-03   -0.30951E-04  6840   0.118E-01    0.329E-02
DAV:   7    -0.191650771340E+03    0.13064E-04   -0.10611E-04  6080   0.444E-02
  40 F= -.19165077E+03 E0= -.19154563E+03  d E =-.190408E-02
       N       E                     dE             d eps       ncg     rms          rms(c)
DAV:   1    -0.191649304583E+03    0.14798E-02   -0.30104E-01  8160   0.118E+00    0.154E-01
DAV:   2    -0.191651063218E+03   -0.17586E-02   -0.94897E-03 13520   0.483E-01    0.400E-01
DAV:   3    -0.191649509590E+03    0.15536E-02   -0.35681E-03 11520   0.452E-01    0.131E-01
DAV:   4    -0.191649446106E+03    0.63484E-04   -0.70285E-04  9480   0.161E-01
  41 F= -.19164945E+03 E0= -.19154418E+03  d E =0.132523E-02
       N       E                     dE             d eps       ncg     rms          rms(c)
DAV:   1    -0.191649059792E+03    0.44980E-03   -0.42319E-01  8160   0.139E+00    0.177E-01
DAV:   2    -0.191650602775E+03   -0.15430E-02   -0.99881E-03 13600   0.453E-01    0.364E-01
DAV:   3    -0.191649436033E+03    0.11667E-02   -0.37880E-03 11880   0.481E-01    0.205E-01
DAV:   4    -0.191649123834E+03    0.31220E-03   -0.10919E-03  9520   0.210E-01    0.936E-02
DAV:   5    -0.191648987105E+03    0.13673E-03   -0.38150E-04  7640   0.878E-02    0.421E-02
DAV:   6    -0.191649039102E+03   -0.51997E-04   -0.26081E-04  8800   0.109E-01
  42 F= -.19164904E+03 E0= -.19154405E+03  d E =0.407004E-03
       N       E                     dE             d eps       ncg     rms          rms(c)
DAV:   1    -0.191658774584E+03   -0.97875E-02   -0.11383E+00  8160   0.230E+00    0.276E-01
DAV:   2    -0.191662717441E+03   -0.39429E-02   -0.30129E-02 12720   0.750E-01    0.544E-01
DAV:   3    -0.191659884706E+03    0.28327E-02   -0.82141E-03 11600   0.698E-01    0.263E-01
DAV:   4    -0.191659675188E+03    0.20952E-03   -0.25260E-03 11320   0.351E-01    0.225E-01
DAV:   5    -0.191659329318E+03    0.34587E-03   -0.19496E-03 10120   0.325E-01    0.164E-01
DAV:   6    -0.191659056196E+03    0.27312E-03   -0.81983E-04  9560   0.191E-01    0.545E-02
DAV:   7    -0.191659028425E+03    0.27772E-04   -0.12318E-04  6440   0.570E-02
  43 F= -.19165903E+03 E0= -.19155504E+03  d E =-.998932E-02
       N       E                     dE             d eps       ncg     rms          rms(c)
DAV:   1    -0.191669068329E+03   -0.10012E-01   -0.50200E-01  8160   0.155E+00    0.211E-01
DAV:   2    -0.191670478687E+03   -0.14104E-02   -0.17912E-02 12440   0.562E-01    0.345E-01
DAV:   3    -0.191669451268E+03    0.10274E-02   -0.47879E-03 12160   0.491E-01    0.184E-01
DAV:   4    -0.191669232501E+03    0.21877E-03   -0.17841E-03 10000   0.259E-01    0.155E-01
DAV:   5    -0.191669168165E+03    0.64336E-04   -0.14198E-03 10000   0.262E-01    0.147E-01
DAV:   6    -0.191668945262E+03    0.22290E-03   -0.67693E-04  8280   0.167E-01    0.423E-02
DAV:   7    -0.191668926393E+03    0.18869E-04   -0.98150E-05  5680   0.467E-02
  44 F= -.19166893E+03 E0= -.19156668E+03  d E =-.989797E-02
       N       E                     dE             d eps       ncg     rms          rms(c)
DAV:   1    -0.191674362862E+03   -0.54176E-02   -0.13363E-01  8160   0.797E-01    0.983E-02
DAV:   2    -0.191674560850E+03   -0.19799E-03   -0.34557E-03 12200   0.178E-01    0.109E-01
DAV:   3    -0.191674619433E+03   -0.58582E-04   -0.82329E-04 10920   0.216E-01
  45 F= -.19167462E+03 E0= -.19157263E+03  d E =-.569304E-02
       N       E                     dE             d eps       ncg     rms          rms(c)
DAV:   1    -0.191662871503E+03    0.11689E-01   -0.19405E+00  8160   0.301E+00    0.383E-01
DAV:   2    -0.191675524163E+03   -0.12653E-01   -0.55366E-02 13560   0.132E+00    0.109E+00
DAV:   3    -0.191664015970E+03    0.11508E-01   -0.21304E-02 12080   0.119E+00    0.291E-01
DAV:   4    -0.191663253984E+03    0.76199E-03   -0.29344E-03 10960   0.295E-01    0.148E-01
DAV:   5    -0.191662955145E+03    0.29884E-03   -0.14000E-03 10640   0.181E-01    0.104E-01
DAV:   6    -0.191663035094E+03   -0.79949E-04   -0.10320E-03 11120   0.226E-01    0.133E-01
DAV:   7    -0.191662831101E+03    0.20399E-03   -0.48085E-04  8760   0.162E-01    0.360E-02
DAV:   8    -0.191662820099E+03    0.11002E-04   -0.59431E-05  5840   0.390E-02
  46 F= -.19166282E+03 E0= -.19156066E+03  d E =0.117993E-01
       N       E                     dE             d eps       ncg     rms          rms(c)
DAV:   1    -0.191671350050E+03   -0.85189E-02   -0.10313E+00  8160   0.217E+00    0.260E-01
DAV:   2    -0.191675408301E+03   -0.40583E-02   -0.30810E-02 13600   0.841E-01    0.543E-01
DAV:   3    -0.191672259820E+03    0.31485E-02   -0.87041E-03 12280   0.689E-01    0.194E-01
DAV:   4    -0.191672099756E+03    0.16006E-03   -0.17477E-03 10800   0.259E-01    0.184E-01
DAV:   5    -0.191671951327E+03    0.14843E-03   -0.15091E-03 10520   0.292E-01    0.170E-01
DAV:   6    -0.191671713505E+03    0.23782E-03   -0.88065E-04  9560   0.205E-01    0.695E-02
DAV:   7    -0.191671639937E+03    0.73568E-04   -0.18840E-04  5720   0.698E-02
  47 F= -.19167164E+03 E0= -.19157079E+03  d E =-.881984E-02
       N       E                     dE             d eps       ncg     rms          rms(c)
DAV:   1    -0.191680882995E+03   -0.91695E-02   -0.47041E-01  8160   0.149E+00    0.191E-01
DAV:   2    -0.191684061778E+03   -0.31788E-02   -0.14609E-02 12480   0.636E-01    0.512E-01
DAV:   3    -0.191681229826E+03    0.28320E-02   -0.48900E-03 11840   0.564E-01    0.133E-01
DAV:   4    -0.191681292820E+03   -0.62994E-04   -0.95587E-04  9920   0.209E-01
  48 F= -.19168129E+03 E0= -.19158141E+03  d E =-.965288E-02
       N       E                     dE             d eps       ncg     rms          rms(c)
DAV:   1    -0.191687639554E+03   -0.64097E-02   -0.53068E-01  8160   0.158E+00    0.193E-01
DAV:   2    -0.191689181163E+03   -0.15416E-02   -0.14761E-02 13120   0.466E-01    0.329E-01
DAV:   3    -0.191688159177E+03    0.10220E-02   -0.48539E-03 11760   0.503E-01    0.203E-01
DAV:   4    -0.191687880938E+03    0.27824E-03   -0.11801E-03  9600   0.232E-01    0.138E-01
DAV:   5    -0.191687786343E+03    0.94594E-04   -0.67646E-04  8680   0.212E-01
  49 F= -.19168779E+03 E0= -.19158905E+03  d E =-.649352E-02
       N       E                     dE             d eps       ncg     rms          rms(c)
DAV:   1    -0.191689107414E+03   -0.12265E-02   -0.25341E-01  8160   0.108E+00    0.140E-01
DAV:   2    -0.191690521203E+03   -0.14138E-02   -0.73530E-03 13600   0.440E-01    0.329E-01
DAV:   3    -0.191689234426E+03    0.12868E-02   -0.30310E-03 12320   0.414E-01    0.106E-01
DAV:   4    -0.191689222956E+03    0.11469E-04   -0.44876E-04  8320   0.136E-01
  50 F= -.19168922E+03 E0= -.19159110E+03  d E =-.143661E-02
       N       E                     dE             d eps       ncg     rms          rms(c)
DAV:   1    -0.191699441175E+03   -0.10207E-01   -0.32554E-01  8160   0.128E+00    0.214E-01
DAV:   2    -0.191704276105E+03   -0.48349E-02   -0.18180E-02 12360   0.813E-01    0.685E-01
DAV:   3    -0.191699322420E+03    0.49537E-02   -0.93552E-03 11560   0.725E-01    0.130E-01
DAV:   4    -0.191699367555E+03   -0.45135E-04   -0.10436E-03 10120   0.187E-01    0.149E-01
DAV:   5    -0.191699135253E+03    0.23230E-03   -0.81401E-04  9840   0.218E-01    0.809E-02
DAV:   6    -0.191699068722E+03    0.66531E-04   -0.25999E-04  7000   0.961E-02
  51 F= -.19169907E+03 E0= -.19160168E+03  d E =-.984577E-02
       N       E                     dE             d eps       ncg     rms          rms(c)
DAV:   1    -0.191710618240E+03   -0.11483E-01   -0.51282E-01  8160   0.153E+00    0.168E-01
DAV:   2    -0.191712546719E+03   -0.19285E-02   -0.14943E-02 13000   0.570E-01    0.362E-01
DAV:   3    -0.191711270896E+03    0.12758E-02   -0.34285E-03 11320   0.451E-01    0.136E-01
DAV:   4    -0.191711240063E+03    0.30834E-04   -0.69899E-04  9360   0.204E-01
  52 F= -.19171124E+03 E0= -.19161550E+03  d E =-.121713E-01
       N       E                     dE             d eps       ncg     rms          rms(c)
DAV:   1    -0.191718910146E+03   -0.76393E-02   -0.25691E-01  8160   0.113E+00    0.186E-01
DAV:   2    -0.191722044078E+03   -0.31339E-02   -0.11797E-02 12400   0.645E-01    0.507E-01
DAV:   3    -0.191718862770E+03    0.31813E-02   -0.54050E-03 11880   0.577E-01    0.110E-01
DAV:   4    -0.191719035093E+03   -0.17232E-03   -0.81764E-04 10080   0.200E-01    0.160E-01
DAV:   5    -0.191718801536E+03    0.23356E-03   -0.64066E-04  9200   0.208E-01    0.789E-02
DAV:   6    -0.191718747473E+03    0.54063E-04   -0.15118E-04  5800   0.860E-02
  53 F= -.19171875E+03 E0= -.19162315E+03  d E =-.750741E-02
       N       E                     dE             d eps       ncg     rms          rms(c)
DAV:   1    -0.191698129755E+03    0.20672E-01   -0.20138E+00  8160   0.307E+00    0.416E-01
DAV:   2    -0.191713147160E+03   -0.15017E-01   -0.69521E-02 12360   0.140E+00    0.115E+00
DAV:   3    -0.191699617793E+03    0.13529E-01   -0.34167E-02 11120   0.133E+00    0.315E-01
DAV:   4    -0.191699360024E+03    0.25777E-03   -0.51370E-03 11080   0.449E-01    0.285E-01
DAV:   5    -0.191698691240E+03    0.66878E-03   -0.33761E-03 11040   0.437E-01    0.208E-01
DAV:   6    -0.191698249671E+03    0.44157E-03   -0.13766E-03 10080   0.251E-01    0.851E-02
DAV:   7    -0.191698320622E+03   -0.70951E-04   -0.55366E-04 10360   0.166E-01
  54 F= -.19169832E+03 E0= -.19160143E+03  d E =0.204269E-01
       N       E                     dE             d eps       ncg     rms          rms(c)
DAV:   1    -0.191684706203E+03    0.13543E-01   -0.27588E+00  8160   0.361E+00    0.441E-01
DAV:   2    -0.191693964872E+03   -0.92587E-02   -0.73550E-02 12840   0.113E+00    0.825E-01
DAV:   3    -0.191688388103E+03    0.55768E-02   -0.23585E-02 11600   0.115E+00    0.464E-01
DAV:   4    -0.191687020283E+03    0.13678E-02   -0.65363E-03 11080   0.555E-01    0.293E-01
DAV:   5    -0.191686314672E+03    0.70561E-03   -0.37391E-03 10840   0.448E-01    0.241E-01
DAV:   6    -0.191685861846E+03    0.45283E-03   -0.21387E-03 10960   0.336E-01    0.124E-01
DAV:   7    -0.191685790472E+03    0.71374E-04   -0.68108E-04  9640   0.176E-01
  55 F= -.19168579E+03 E0= -.19158777E+03  d E =0.125301E-01
       N       E                     dE             d eps       ncg     rms          rms(c)
DAV:   1    -0.191700857174E+03   -0.14995E-01   -0.17253E+00  8160   0.280E+00    0.287E-01
DAV:   2    -0.191703415389E+03   -0.25582E-02   -0.35627E-02 12200   0.544E-01    0.295E-01
DAV:   3    -0.191703094509E+03    0.32088E-03   -0.77463E-03 12640   0.572E-01    0.320E-01
DAV:   4    -0.191702240433E+03    0.85408E-03   -0.32133E-03 11560   0.415E-01    0.168E-01
DAV:   5    -0.191701919331E+03    0.32110E-03   -0.11746E-03 10160   0.214E-01    0.118E-01
DAV:   6    -0.191702101037E+03   -0.18171E-03   -0.10439E-03 11200   0.245E-01    0.163E-01
DAV:   7    -0.191701808927E+03    0.29211E-03   -0.44146E-04  8400   0.159E-01    0.245E-02
DAV:   8    -0.191701814127E+03   -0.52004E-05   -0.45574E-05  5680   0.413E-02
  56 F= -.19170181E+03 E0= -.19160598E+03  d E =-.160237E-01
       N       E                     dE             d eps       ncg     rms          rms(c)
DAV:   1    -0.191682109891E+03    0.19699E-01   -0.12224E+00  8160   0.238E+00    0.261E-01
DAV:   2    -0.191684821308E+03   -0.27114E-02   -0.32497E-02 12960   0.685E-01    0.388E-01
DAV:   3    -0.191684015626E+03    0.80568E-03   -0.78264E-03 12200   0.629E-01    0.298E-01
DAV:   4    -0.191683149665E+03    0.86596E-03   -0.25883E-03 10600   0.338E-01    0.143E-01
DAV:   5    -0.191683112190E+03    0.37475E-04   -0.13304E-03 10120   0.257E-01    0.143E-01
DAV:   6    -0.191682996479E+03    0.11571E-03   -0.97335E-04 10120   0.213E-01    0.857E-02
DAV:   7    -0.191682881211E+03    0.11527E-03   -0.25707E-04  6960   0.897E-02    0.294E-02
DAV:   8    -0.191682886217E+03   -0.50060E-05   -0.54739E-05  6880   0.572E-02
  57 F= -.19168289E+03 E0= -.19158500E+03  d E =0.189279E-01
       N       E                     dE             d eps       ncg     rms          rms(c)
DAV:   1    -0.191708564340E+03   -0.25683E-01   -0.21829E+00  8160   0.320E+00    0.403E-01
DAV:   2    -0.191714133137E+03   -0.55688E-02   -0.68371E-02 13600   0.108E+00    0.644E-01
DAV:   3    -0.191710729163E+03    0.34040E-02   -0.16874E-02 12240   0.975E-01    0.370E-01
DAV:   4    -0.191709418046E+03    0.13111E-02   -0.53876E-03 12280   0.482E-01    0.260E-01
DAV:   5    -0.191709226554E+03    0.19149E-03   -0.41736E-03 11520   0.463E-01    0.262E-01
DAV:   6    -0.191708602195E+03    0.62436E-03   -0.25813E-03 11520   0.333E-01    0.104E-01
DAV:   7    -0.191708424463E+03    0.17773E-03   -0.48554E-04  8160   0.107E-01    0.374E-02
DAV:   8    -0.191708422814E+03    0.16484E-05   -0.10273E-04  6880   0.760E-02
  58 F= -.19170842E+03 E0= -.19161294E+03  d E =-.255366E-01
       N       E                     dE             d eps       ncg     rms          rms(c)
DAV:   1    -0.191714232140E+03   -0.58077E-02   -0.10354E-01  8160   0.694E-01    0.844E-02
DAV:   2    -0.191714358910E+03   -0.12677E-03   -0.29150E-03 12080   0.172E-01    0.817E-02
DAV:   3    -0.191714417074E+03   -0.58164E-04   -0.63069E-04  9760   0.179E-01
  59 F= -.19171442E+03 E0= -.19161972E+03  d E =-.599426E-02
       N       E                     dE             d eps       ncg     rms          rms(c)
DAV:   1    -0.191739555193E+03   -0.25196E-01   -0.17115E+00  8160   0.280E+00    0.300E-01
DAV:   2    -0.191742678736E+03   -0.31235E-02   -0.41198E-02 12800   0.704E-01    0.391E-01
DAV:   3    -0.191742252178E+03    0.42656E-03   -0.88452E-03 12120   0.693E-01    0.369E-01
DAV:   4    -0.191740937565E+03    0.13146E-02   -0.33447E-03 12360   0.429E-01    0.152E-01
DAV:   5    -0.191740796004E+03    0.14156E-03   -0.12883E-03 10200   0.215E-01    0.130E-01
DAV:   6    -0.191740838573E+03   -0.42569E-04   -0.11791E-03 10760   0.252E-01    0.135E-01
DAV:   7    -0.191740599087E+03    0.23949E-03   -0.42353E-04  8440   0.150E-01    0.274E-02
DAV:   8    -0.191740604688E+03   -0.56008E-05   -0.60113E-05  6320   0.516E-02
  60 F= -.19174060E+03 E0= -.19164899E+03  d E =-.261876E-01
       N       E                     dE             d eps       ncg     rms          rms(c)
DAV:   1    -0.191743596078E+03   -0.29970E-02   -0.22195E-02  8160   0.324E-01    0.395E-02
DAV:   2    -0.191743677101E+03   -0.81024E-04   -0.69666E-04 12240   0.111E-01
  61 F= -.19174368E+03 E0= -.19165226E+03  d E =-.307241E-02
       N       E                     dE             d eps       ncg     rms          rms(c)
DAV:   1    -0.191740324440E+03    0.32716E-02   -0.26884E-02  8160   0.370E-01    0.536E-02
DAV:   2    -0.191740880428E+03   -0.55599E-03   -0.17358E-03 13080   0.265E-01    0.214E-01
DAV:   3    -0.191740338330E+03    0.54210E-03   -0.84461E-04  8520   0.225E-01    0.207E-02
DAV:   4    -0.191740352666E+03   -0.14336E-04   -0.37300E-05  5600   0.403E-02
  62 F= -.19174035E+03 E0= -.19164866E+03  d E =0.332444E-02
       N       E                     dE             d eps       ncg     rms          rms(c)
DAV:   1    -0.191740867979E+03   -0.52965E-03   -0.82988E-01  8160   0.195E+00    0.334E-01
DAV:   2    -0.191758209634E+03   -0.17342E-01   -0.55163E-02 12360   0.157E+00    0.121E+00
DAV:   3    -0.191740985422E+03    0.17224E-01   -0.27362E-02 11400   0.129E+00    0.167E-01
DAV:   4    -0.191741114438E+03   -0.12902E-03   -0.20402E-03 11040   0.312E-01    0.219E-01
DAV:   5    -0.191740746161E+03    0.36828E-03   -0.13136E-03 11200   0.297E-01    0.137E-01
DAV:   6    -0.191740605257E+03    0.14090E-03   -0.61501E-04  8520   0.180E-01    0.941E-02
DAV:   7    -0.191740604336E+03    0.92055E-06   -0.48915E-04  9040   0.169E-01
  63 F= -.19174060E+03 E0= -.19164941E+03  d E =-.251670E-03
       N       E                     dE             d eps       ncg     rms          rms(c)
DAV:   1    -0.191738035552E+03    0.25697E-02   -0.22620E-01  8160   0.103E+00    0.166E-01
DAV:   2    -0.191741386704E+03   -0.33512E-02   -0.12157E-02 12280   0.707E-01    0.534E-01
DAV:   3    -0.191738044454E+03    0.33422E-02   -0.59623E-03 11680   0.593E-01    0.930E-02
DAV:   4    -0.191738113191E+03   -0.68737E-04   -0.60519E-04  8960   0.168E-01
  64 F= -.19173811E+03 E0= -.19164688E+03  d E =0.249115E-02
       N       E                     dE             d eps       ncg     rms          rms(c)
DAV:   1    -0.191771023499E+03   -0.32979E-01   -0.23343E+00  8160   0.328E+00    0.375E-01
DAV:   2    -0.191778318139E+03   -0.72946E-02   -0.69233E-02 13160   0.109E+00    0.675E-01
DAV:   3    -0.191774197726E+03    0.41204E-02   -0.15217E-02 12280   0.940E-01    0.325E-01
DAV:   4    -0.191773484636E+03    0.71309E-03   -0.37856E-03 12040   0.433E-01    0.273E-01
DAV:   5    -0.191773022499E+03    0.46214E-03   -0.34164E-03 11400   0.448E-01    0.201E-01
DAV:   6    -0.191772745872E+03    0.27663E-03   -0.15477E-03 10840   0.247E-01    0.109E-01
DAV:   7    -0.191772635666E+03    0.11021E-03   -0.40786E-04  9040   0.169E-01    0.834E-02
DAV:   8    -0.191772562537E+03    0.73129E-04   -0.11527E-04  5960   0.959E-02
  65 F= -.19177256E+03 E0= -.19168364E+03  d E =-.344493E-01
       N       E                     dE             d eps       ncg     rms          rms(c)
DAV:   1    -0.191780698451E+03   -0.80628E-02   -0.13700E-01  8160   0.795E-01    0.962E-02
DAV:   2    -0.191781511638E+03   -0.81319E-03   -0.44640E-03 13080   0.338E-01    0.248E-01
DAV:   3    -0.191780828793E+03    0.68284E-03   -0.14624E-03 11160   0.297E-01    0.620E-02
DAV:   4    -0.191780819557E+03    0.92356E-05   -0.11849E-04  5920   0.806E-02
  66 F= -.19178082E+03 E0= -.19169233E+03  d E =-.825702E-02
       N       E                     dE             d eps       ncg     rms          rms(c)
DAV:   1    -0.191801627439E+03   -0.20799E-01   -0.10265E+00  8160   0.217E+00    0.230E-01
DAV:   2    -0.191803792398E+03   -0.21650E-02   -0.24435E-02 12400   0.527E-01    0.340E-01
DAV:   3    -0.191803262830E+03    0.52957E-03   -0.55739E-03 11280   0.560E-01    0.285E-01
DAV:   4    -0.191802511269E+03    0.75156E-03   -0.17847E-03 10440   0.296E-01    0.125E-01
DAV:   5    -0.191802508906E+03    0.23633E-05   -0.10184E-03 10280   0.238E-01    0.137E-01
DAV:   6    -0.191802395951E+03    0.11295E-03   -0.70242E-04 10200   0.194E-01    0.771E-02
DAV:   7    -0.191802330790E+03    0.65161E-04   -0.20464E-04  7120   0.103E-01
  67 F= -.19180233E+03 E0= -.19171530E+03  d E =-.215112E-01
       N       E                     dE             d eps       ncg     rms          rms(c)
DAV:   1    -0.191816876087E+03   -0.14480E-01   -0.53356E-01  8160   0.160E+00    0.222E-01
DAV:   2    -0.191821063968E+03   -0.41879E-02   -0.20754E-02 13560   0.795E-01    0.588E-01
DAV:   3    -0.191817163295E+03    0.39007E-02   -0.79903E-03 12160   0.706E-01    0.141E-01
DAV:   4    -0.191817067107E+03    0.96187E-04   -0.94219E-04 10120   0.178E-01
  68 F= -.19181707E+03 E0= -.19172990E+03  d E =-.147363E-01
       N       E                     dE             d eps       ncg     rms          rms(c)
DAV:   1    -0.191806229256E+03    0.10934E-01   -0.46467E+00  8160   0.468E+00    0.629E-01
DAV:   2    -0.191849287028E+03   -0.43058E-01   -0.16021E-01 12200   0.238E+00    0.198E+00
DAV:   3    -0.191808855739E+03    0.40431E-01   -0.77124E-02 11400   0.221E+00    0.381E-01
DAV:   4    -0.191809175654E+03   -0.31992E-03   -0.85919E-03 11480   0.630E-01    0.429E-01
DAV:   5    -0.191807238607E+03    0.19370E-02   -0.60971E-03 11120   0.618E-01    0.246E-01
DAV:   6    -0.191806748702E+03    0.48991E-03   -0.23981E-03 11320   0.314E-01    0.128E-01
DAV:   7    -0.191806696593E+03    0.52109E-04   -0.91161E-04 11240   0.209E-01
  69 F= -.19180670E+03 E0= -.19172102E+03  d E =0.103705E-01
       N       E                     dE             d eps       ncg     rms          rms(c)
DAV:   1    -0.191851512538E+03   -0.44764E-01   -0.32496E+00  8160   0.390E+00    0.459E-01
DAV:   2    -0.191862249579E+03   -0.10737E-01   -0.92753E-02 13440   0.135E+00    0.900E-01
DAV:   3    -0.191854656402E+03    0.75932E-02   -0.24046E-02 12280   0.123E+00    0.385E-01
DAV:   4    -0.191852755308E+03    0.19011E-02   -0.45662E-03 12280   0.417E-01    0.178E-01
DAV:   5    -0.191853010414E+03   -0.25511E-03   -0.32024E-03 11920   0.386E-01    0.261E-01
DAV:   6    -0.191852561183E+03    0.44923E-03   -0.27127E-03 11720   0.395E-01    0.166E-01
DAV:   7    -0.191852237004E+03    0.32418E-03   -0.58763E-04  8600   0.189E-01    0.716E-02
DAV:   8    -0.191852196000E+03    0.41004E-04   -0.16849E-04  7280   0.105E-01
  70 F= -.19185220E+03 E0= -.19176745E+03  d E =-.454994E-01
       N       E                     dE             d eps       ncg     rms          rms(c)
DAV:   1    -0.191876965295E+03   -0.24728E-01   -0.11885E+00  8160   0.233E+00    0.272E-01
DAV:   2    -0.191883664891E+03   -0.66996E-02   -0.37823E-02 13000   0.975E-01    0.692E-01
DAV:   3    -0.191878365143E+03    0.52997E-02   -0.10991E-02 12320   0.835E-01    0.174E-01
DAV:   4    -0.191878198227E+03    0.16692E-03   -0.11435E-03 10120   0.216E-01    0.142E-01
DAV:   5    -0.191878174722E+03    0.23506E-04   -0.93927E-04 11480   0.259E-01
  71 F= -.19187817E+03 E0= -.19179397E+03  d E =-.259787E-01
       N       E                     dE             d eps       ncg     rms          rms(c)
DAV:   1    -0.191865029018E+03    0.13169E-01   -0.71745E-01  8160   0.184E+00    0.265E-01
DAV:   2    -0.191874089119E+03   -0.90601E-02   -0.34796E-02 13600   0.109E+00    0.859E-01
DAV:   3    -0.191865461311E+03    0.86278E-02   -0.16096E-02 12240   0.980E-01    0.153E-01
DAV:   4    -0.191865402910E+03    0.58401E-04   -0.14132E-03 10080   0.208E-01    0.138E-01
DAV:   5    -0.191865268161E+03    0.13475E-03   -0.79319E-04 10400   0.220E-01    0.120E-01
DAV:   6    -0.191865140289E+03    0.12787E-03   -0.38987E-04  8640   0.157E-01    0.591E-02
DAV:   7    -0.191865161204E+03   -0.20916E-04   -0.18931E-04  7000   0.114E-01
  72 F= -.19186516E+03 E0= -.19178117E+03  d E =0.130135E-01
       N       E                     dE             d eps       ncg     rms          rms(c)
DAV:   1    -0.191894112343E+03   -0.28972E-01   -0.13696E+00  8160   0.251E+00    0.259E-01
DAV:   2    -0.191897206186E+03   -0.30938E-02   -0.35004E-02 12680   0.681E-01    0.383E-01
DAV:   3    -0.191896422596E+03    0.78359E-03   -0.58581E-03 12280   0.638E-01    0.287E-01
DAV:   4    -0.191895508317E+03    0.91428E-03   -0.15320E-03 11240   0.305E-01    0.105E-01
DAV:   5    -0.191895528562E+03   -0.20245E-04   -0.70934E-04 10480   0.171E-01
  73 F= -.19189553E+03 E0= -.19181218E+03  d E =-.303674E-01
       N       E                     dE             d eps       ncg     rms          rms(c)
DAV:   1    -0.191893732809E+03    0.17755E-02   -0.19093E-01  8160   0.100E+00    0.209E-01
DAV:   2    -0.191900405562E+03   -0.66728E-02   -0.16942E-02 12240   0.914E-01    0.795E-01
DAV:   3    -0.191893455596E+03    0.69500E-02   -0.11057E-02 10680   0.828E-01    0.116E-01
DAV:   4    -0.191893372263E+03    0.83332E-04   -0.78236E-04  9640   0.140E-01
  74 F= -.19189337E+03 E0= -.19181024E+03  d E =0.215630E-02
       N       E                     dE             d eps       ncg     rms          rms(c)
DAV:   1    -0.191931269795E+03   -0.37814E-01   -0.36895E+00  8160   0.411E+00    0.516E-01
DAV:   2    -0.191951652099E+03   -0.20382E-01   -0.12931E-01 12720   0.177E+00    0.123E+00
DAV:   3    -0.191934979787E+03    0.16672E-01   -0.44367E-02 12240   0.154E+00    0.377E-01
DAV:   4    -0.191935028747E+03   -0.48960E-04   -0.66679E-03 10160   0.624E-01    0.420E-01
DAV:   5    -0.191933426274E+03    0.16025E-02   -0.46907E-03 11040   0.592E-01    0.235E-01
DAV:   6    -0.191933185927E+03    0.24035E-03   -0.21286E-03 12480   0.319E-01    0.173E-01
DAV:   7    -0.191933048235E+03    0.13769E-03   -0.12680E-03 10240   0.299E-01    0.146E-01
DAV:   8    -0.191932790680E+03    0.25755E-03   -0.40293E-04  8600   0.155E-01    0.265E-02
DAV:   9    -0.191932787918E+03    0.27627E-05   -0.46173E-05  6120   0.287E-02
  75 F= -.19193279E+03 E0= -.19185050E+03  d E =-.394157E-01
       N       E                     dE             d eps       ncg     rms          rms(c)
DAV:   1    -0.191940175699E+03   -0.73850E-02   -0.11464E+00  8160   0.240E+00    0.396E-01
DAV:   2    -0.191945548863E+03   -0.53732E-02   -0.45766E-02 12320   0.113E+00    0.812E-01
DAV:   3    -0.191938759967E+03    0.67889E-02   -0.19535E-02 12200   0.108E+00    0.304E-01
DAV:   4    -0.191938200618E+03    0.55935E-03   -0.47583E-03 12200   0.480E-01    0.277E-01
DAV:   5    -0.191937670250E+03    0.53037E-03   -0.31631E-03 11240   0.460E-01    0.229E-01
DAV:   6    -0.191937064821E+03    0.60543E-03   -0.16450E-03 11240   0.277E-01    0.829E-02
DAV:   7    -0.191937053404E+03    0.11417E-04   -0.36901E-04  8400   0.145E-01
  76 F= -.19193705E+03 E0= -.19185443E+03  d E =-.426549E-02
       N       E                     dE             d eps       ncg     rms          rms(c)
DAV:   1    -0.191980597845E+03   -0.43533E-01   -0.32358E+00  8160   0.386E+00    0.417E-01
DAV:   2    -0.191989379664E+03   -0.87818E-02   -0.92187E-02 12160   0.114E+00    0.670E-01
DAV:   3    -0.191986317255E+03    0.30624E-02   -0.17945E-02 12360   0.107E+00    0.434E-01
DAV:   4    -0.191984052101E+03    0.22652E-02   -0.40589E-03 11440   0.449E-01    0.148E-01
DAV:   5    -0.191984297333E+03   -0.24523E-03   -0.23113E-03 12120   0.301E-01    0.217E-01
DAV:   6    -0.191984182992E+03    0.11434E-03   -0.22258E-03 11480   0.370E-01    0.189E-01
DAV:   7    -0.191983710840E+03    0.47215E-03   -0.58667E-04  8480   0.189E-01    0.427E-02
DAV:   8    -0.191983716311E+03   -0.54713E-05   -0.10041E-04  6080   0.763E-02
  77 F= -.19198372E+03 E0= -.19190132E+03  d E =-.466629E-01
       N       E                     dE             d eps       ncg     rms          rms(c)
DAV:   1    -0.192063308922E+03   -0.79598E-01   -0.14625E+01  8160   0.825E+00    0.897E-01
DAV:   2    -0.192098288088E+03   -0.34979E-01   -0.43527E-01 12040   0.222E+00    0.120E+00
DAV:   3    -0.192094862014E+03    0.34261E-02   -0.76986E-02 12280   0.221E+00    0.109E+00
DAV:   4    -0.192080135283E+03    0.14727E-01   -0.22124E-02 12400   0.114E+00    0.299E-01
DAV:   5    -0.192081706268E+03   -0.15710E-02   -0.10957E-02 12640   0.654E-01    0.486E-01
DAV:   6    -0.192080422463E+03    0.12838E-02   -0.10609E-02 12440   0.793E-01    0.363E-01
DAV:   7    -0.192078668421E+03    0.17540E-02   -0.25317E-03 12000   0.374E-01    0.946E-02
DAV:   8    -0.192078658194E+03    0.10227E-04   -0.48730E-04  9160   0.160E-01
  78 F= -.19207866E+03 E0= -.19199659E+03  d E =-.949419E-01
       N       E                     dE             d eps       ncg     rms          rms(c)
DAV:   1    -0.192124173585E+03   -0.45505E-01   -0.55420E+00  8160   0.503E+00    0.557E-01
DAV:   2    -0.192139554495E+03   -0.15381E-01   -0.18061E-01 12160   0.147E+00    0.760E-01
DAV:   3    -0.192137664082E+03    0.18904E-02   -0.27190E-02 12320   0.138E+00    0.669E-01
DAV:   4    -0.192132636328E+03    0.50278E-02   -0.71824E-03 12360   0.739E-01    0.228E-01
DAV:   5    -0.192132813349E+03   -0.17702E-03   -0.39919E-03 12360   0.446E-01    0.273E-01
DAV:   6    -0.192132408700E+03    0.40465E-03   -0.38992E-03 11760   0.445E-01    0.183E-01
DAV:   7    -0.192131982823E+03    0.42588E-03   -0.11674E-03 10080   0.226E-01    0.896E-02
DAV:   8    -0.192131913724E+03    0.69099E-04   -0.28227E-04  8640   0.124E-01
  79 F= -.19213191E+03 E0= -.19205131E+03  d E =-.532555E-01
       N       E                     dE             d eps       ncg     rms          rms(c)
DAV:   1    -0.192145946524E+03   -0.13964E-01   -0.48154E-01  8160   0.154E+00    0.234E-01
DAV:   2    -0.192146674495E+03   -0.72797E-03   -0.20094E-02 11920   0.509E-01    0.280E-01
DAV:   3    -0.192146598668E+03    0.75827E-04   -0.43596E-03 12360   0.542E-01    0.274E-01
DAV:   4    -0.192145689373E+03    0.90929E-03   -0.19333E-03 11520   0.349E-01    0.126E-01
DAV:   5    -0.192145743062E+03   -0.53689E-04   -0.13315E-03  9760   0.263E-01    0.154E-01
DAV:   6    -0.192145467862E+03    0.27520E-03   -0.81755E-04  9480   0.195E-01    0.446E-02
DAV:   7    -0.192145460502E+03    0.73602E-05   -0.11788E-04  6320   0.815E-02
  80 F= -.19214546E+03 E0= -.19206437E+03  d E =-.135468E-01
       N       E                     dE             d eps       ncg     rms          rms(c)
DAV:   1    -0.192168277287E+03   -0.22809E-01   -0.15473E+00  8160   0.265E+00    0.299E-01
DAV:   2    -0.192172808102E+03   -0.45308E-02   -0.51335E-02 11640   0.815E-01    0.430E-01
DAV:   3    -0.192171666023E+03    0.11421E-02   -0.85297E-03 12200   0.743E-01    0.324E-01
DAV:   4    -0.192170600643E+03    0.10654E-02   -0.20438E-03 11640   0.388E-01    0.159E-01
DAV:   5    -0.192170555115E+03    0.45529E-04   -0.13352E-03 10160   0.282E-01    0.154E-01
DAV:   6    -0.192170398711E+03    0.15640E-03   -0.10180E-03 11160   0.221E-01    0.819E-02
DAV:   7    -0.192170320075E+03    0.78636E-04   -0.30893E-04  7960   0.110E-01
  81 F= -.19217032E+03 E0= -.19208973E+03  d E =-.248596E-01
       N       E                     dE             d eps       ncg     rms          rms(c)
DAV:   1    -0.192189713279E+03   -0.19315E-01   -0.12818E+00  8160   0.243E+00    0.289E-01
DAV:   2    -0.192193077805E+03   -0.33645E-02   -0.45363E-02 12240   0.696E-01    0.360E-01
DAV:   3    -0.192192973040E+03    0.10477E-03   -0.70937E-03 12280   0.707E-01    0.368E-01
DAV:   4    -0.192191473716E+03    0.14993E-02   -0.23188E-03 11520   0.416E-01    0.121E-01
DAV:   5    -0.192191283909E+03    0.18981E-03   -0.79149E-04 10320   0.129E-01    0.723E-02
DAV:   6    -0.192191391770E+03   -0.10786E-03   -0.62853E-04 10560   0.173E-01    0.125E-01
DAV:   7    -0.192191209965E+03    0.18180E-03   -0.31639E-04  8480   0.144E-01    0.243E-02
DAV:   8    -0.192191206758E+03    0.32070E-05   -0.32945E-05  5960   0.307E-02
  82 F= -.19219121E+03 E0= -.19211073E+03  d E =-.208867E-01
       N       E                     dE             d eps       ncg     rms          rms(c)
DAV:   1    -0.192212128920E+03   -0.20919E-01   -0.22692E+00  8160   0.320E+00    0.357E-01
DAV:   2    -0.192219277460E+03   -0.71485E-02   -0.77783E-02 12040   0.105E+00    0.532E-01
DAV:   3    -0.192217326423E+03    0.19510E-02   -0.12541E-02 12360   0.903E-01    0.380E-01
DAV:   4    -0.192215846517E+03    0.14799E-02   -0.29060E-03 11960   0.462E-01    0.186E-01
DAV:   5    -0.192215746666E+03    0.99852E-04   -0.18401E-03 10120   0.325E-01    0.177E-01
DAV:   6    -0.192215540940E+03    0.20573E-03   -0.14104E-03 11400   0.262E-01    0.976E-02
DAV:   7    -0.192215420990E+03    0.11995E-03   -0.41330E-04  8560   0.123E-01    0.524E-02
DAV:   8    -0.192215402284E+03    0.18706E-04   -0.12962E-04  6560   0.923E-02
  83 F= -.19221540E+03 E0= -.19213553E+03  d E =-.241955E-01
       N       E                     dE             d eps       ncg     rms          rms(c)
DAV:   1    -0.192224972914E+03   -0.95519E-02   -0.46235E-01  8160   0.148E+00    0.207E-01
DAV:   2    -0.192226057057E+03   -0.10841E-02   -0.19762E-02 11360   0.471E-01    0.242E-01
DAV:   3    -0.192226052780E+03    0.42774E-05   -0.35108E-03 12160   0.484E-01    0.255E-01
DAV:   4    -0.192225308428E+03    0.74435E-03   -0.14074E-03 10360   0.318E-01    0.104E-01
DAV:   5    -0.192225239275E+03    0.69153E-04   -0.53036E-04  9840   0.167E-01
  84 F= -.19222524E+03 E0= -.19214494E+03  d E =-.983699E-02
       N       E                     dE             d eps       ncg     rms          rms(c)
DAV:   1    -0.192239041872E+03   -0.13733E-01   -0.16042E+00  8160   0.268E+00    0.295E-01
DAV:   2    -0.192242564669E+03   -0.35228E-02   -0.50699E-02 12160   0.701E-01    0.310E-01
DAV:   3    -0.192243323665E+03   -0.75900E-03   -0.66452E-03 12360   0.703E-01    0.413E-01
DAV:   4    -0.192241306919E+03    0.20167E-02   -0.24023E-03 11520   0.450E-01    0.100E-01
DAV:   5    -0.192241305274E+03    0.16456E-05   -0.79858E-04 10280   0.126E-01
  85 F= -.19224131E+03 E0= -.19216083E+03  d E =-.160660E-01
       N       E                     dE             d eps       ncg     rms          rms(c)
DAV:   1    -0.192252714404E+03   -0.11407E-01   -0.31367E+00  8160   0.374E+00    0.426E-01
DAV:   2    -0.192264782496E+03   -0.12068E-01   -0.12118E-01 12240   0.123E+00    0.662E-01
DAV:   3    -0.192261112228E+03    0.36703E-02   -0.20776E-02 11640   0.108E+00    0.432E-01
DAV:   4    -0.192259250466E+03    0.18618E-02   -0.43832E-03 12240   0.526E-01    0.218E-01
DAV:   5    -0.192258982838E+03    0.26763E-03   -0.21245E-03 10760   0.368E-01    0.188E-01
DAV:   6    -0.192258861733E+03    0.12111E-03   -0.15891E-03 11480   0.294E-01    0.125E-01
DAV:   7    -0.192258605842E+03    0.25589E-03   -0.58265E-04 10360   0.131E-01    0.247E-02
DAV:   8    -0.192258601412E+03    0.44299E-05   -0.66389E-05  7400   0.280E-02
  86 F= -.19225860E+03 E0= -.19217850E+03  d E =-.172961E-01
       N       E                     dE             d eps       ncg     rms          rms(c)
DAV:   1    -0.192260360906E+03   -0.17551E-02   -0.84077E-02  8160   0.659E-01    0.131E-01
DAV:   2    -0.192260409841E+03   -0.48935E-04   -0.41726E-03 10520   0.283E-01    0.172E-01
DAV:   3    -0.192260228021E+03    0.18182E-03   -0.12696E-03 10560   0.304E-01    0.137E-01
DAV:   4    -0.192260015188E+03    0.21283E-03   -0.55336E-04  9080   0.197E-01    0.782E-02
DAV:   5    -0.192259973147E+03    0.42041E-04   -0.33827E-04  8120   0.132E-01
  87 F= -.19225997E+03 E0= -.19217950E+03  d E =-.137173E-02
       N       E                     dE             d eps       ncg     rms          rms(c)
DAV:   1    -0.192263264904E+03   -0.32497E-02   -0.29434E-01  8160   0.114E+00    0.118E-01
DAV:   2    -0.192264141074E+03   -0.87617E-03   -0.10439E-02 11360   0.352E-01    0.145E-01
DAV:   3    -0.192264107033E+03    0.34041E-04   -0.12681E-03 11920   0.287E-01    0.141E-01
DAV:   4    -0.192263877079E+03    0.22995E-03   -0.32771E-04  8440   0.167E-01    0.548E-02
DAV:   5    -0.192263889959E+03   -0.12880E-04   -0.18393E-04  7080   0.104E-01
  88 F= -.19226389E+03 E0= -.19218341E+03  d E =-.391681E-02
       N       E                     dE             d eps       ncg     rms          rms(c)
DAV:   1    -0.192266237381E+03   -0.23603E-02   -0.17477E-01  8160   0.885E-01    0.121E-01
DAV:   2    -0.192267163378E+03   -0.92600E-03   -0.79445E-03 11520   0.428E-01    0.233E-01
DAV:   3    -0.192266559999E+03    0.60338E-03   -0.16972E-03 12240   0.323E-01    0.824E-02
DAV:   4    -0.192266490212E+03    0.69787E-04   -0.19309E-04  6240   0.115E-01
  89 F= -.19226649E+03 E0= -.19218625E+03  d E =-.260025E-02
       N       E                     dE             d eps       ncg     rms          rms(c)
DAV:   1    -0.192268721433E+03   -0.21614E-02   -0.26237E-01  8160   0.109E+00    0.130E-01
DAV:   2    -0.192270035845E+03   -0.13144E-02   -0.10357E-02 12640   0.387E-01    0.258E-01
DAV:   3    -0.192269378065E+03    0.65778E-03   -0.20785E-03 11880   0.376E-01    0.122E-01
DAV:   4    -0.192269233416E+03    0.14465E-03   -0.34866E-04  8320   0.131E-01    0.534E-02
DAV:   5    -0.192269203667E+03    0.29749E-04   -0.13055E-04  6520   0.718E-02
  90 F= -.19226920E+03 E0= -.19218895E+03  d E =-.271345E-02
       N       E                     dE             d eps       ncg     rms          rms(c)
DAV:   1    -0.192270360382E+03   -0.11270E-02   -0.54972E-02  8160   0.501E-01    0.941E-02
DAV:   2    -0.192271233738E+03   -0.87336E-03   -0.40109E-03 11600   0.404E-01    0.262E-01
DAV:   3    -0.192270348802E+03    0.88494E-03   -0.15110E-03 10240   0.309E-01    0.388E-02
DAV:   4    -0.192270371542E+03   -0.22740E-04   -0.93594E-05  6200   0.866E-02
  91 F= -.19227037E+03 E0= -.19218989E+03  d E =-.116788E-02
       N       E                     dE             d eps       ncg     rms          rms(c)
DAV:   1    -0.192272124915E+03   -0.17761E-02   -0.74850E-01  8160   0.183E+00    0.204E-01
DAV:   2    -0.192274574192E+03   -0.24493E-02   -0.28041E-02 11600   0.516E-01    0.266E-01
DAV:   3    -0.192274295338E+03    0.27885E-03   -0.38250E-03 12400   0.501E-01    0.247E-01
DAV:   4    -0.192273639127E+03    0.65621E-03   -0.11968E-03 10800   0.286E-01    0.933E-02
DAV:   5    -0.192273584385E+03    0.54742E-04   -0.60400E-04  9320   0.150E-01
  92 F= -.19227358E+03 E0= -.19219290E+03  d E =-.321284E-02
       N       E                     dE             d eps       ncg     rms          rms(c)
DAV:   1    -0.192274087619E+03   -0.44849E-03   -0.44147E-01  8160   0.141E+00    0.169E-01
DAV:   2    -0.192276406798E+03   -0.23192E-02   -0.18568E-02 11360   0.521E-01    0.322E-01
DAV:   3    -0.192275253019E+03    0.11538E-02   -0.36111E-03 12320   0.471E-01    0.134E-01
DAV:   4    -0.192275095059E+03    0.15796E-03   -0.39554E-04  8400   0.162E-01    0.882E-02
DAV:   5    -0.192275072119E+03    0.22940E-04   -0.32942E-04  9240   0.156E-01
  93 F= -.19227507E+03 E0= -.19219437E+03  d E =-.148773E-02
       N       E                     dE             d eps       ncg     rms          rms(c)
DAV:   1    -0.192275340964E+03   -0.24590E-03   -0.11403E-01  8160   0.715E-01    0.947E-02
DAV:   2    -0.192276146592E+03   -0.80563E-03   -0.58341E-03 12680   0.359E-01    0.210E-01
DAV:   3    -0.192275600544E+03    0.54605E-03   -0.13322E-03 10600   0.270E-01    0.666E-02
DAV:   4    -0.192275583733E+03    0.16811E-04   -0.20128E-04  6960   0.102E-01
  94 F= -.19227558E+03 E0= -.19219487E+03  d E =-.511614E-03
