<?xml version="1.0" encoding="ISO-8859-1"?>
<modeling>
 <generator>
  <i name="program" type="string">vasp </i>
  <i name="version" type="string">5.4.1  </i>
  <i name="subversion" type="string">05Feb16 (build Jul 05 2020 17:13:04) complex                          parallel </i>
  <i name="platform" type="string">IFC91_ompi </i>
  <i name="date" type="string">2024 04 25 </i>
  <i name="time" type="string">14:02:36 </i>
 </generator>
 <incar>
  <i type="int" name="ISTART">     0</i>
  <i type="string" name="PREC">normal</i>
  <i type="string" name="ALGO"> Normal</i>
  <i type="int" name="ISPIN">     1</i>
  <i type="int" name="ICHARG">     2</i>
  <i type="int" name="IBRION">     1</i>
  <i type="int" name="NSW">   100</i>
  <i type="int" name="ISIF">     3</i>
  <i type="int" name="ISYM">     0</i>
  <i name="SYMPREC">      0.00000001</i>
  <i name="POTIM">      0.50000000</i>
  <i type="logical" name="LREAL"> F  </i>
  <i type="logical" name="LPLANE"> F  </i>
  <i type="int" name="ISMEAR">     0</i>
  <i type="logical" name="LWAVE"> F  </i>
  <i type="logical" name="LCHARG"> F  </i>
  <v type="int" name="KPOINT_BSE">    -1     0     0     0</v>
 </incar>
 <kpoints>
  <generation param="Gamma">
   <v type="int" name="divisions">       8        8        1 </v>
   <v name="usershift">      0.00000000       0.00000000       0.00000000 </v>
   <v name="genvec1">      0.12500000       0.00000000       0.00000000 </v>
   <v name="genvec2">     -0.00000000       0.12500000       0.00000000 </v>
   <v name="genvec3">      0.00000000       0.00000000       1.00000000 </v>
   <v name="shift">      0.00000000       0.00000000       0.00000000 </v>
  </generation>
  <varray name="kpointlist" >
   <v>       0.00000000       0.00000000       0.00000000 </v>
   <v>       0.12500000       0.00000000       0.00000000 </v>
   <v>       0.25000000       0.00000000       0.00000000 </v>
   <v>       0.37500000       0.00000000       0.00000000 </v>
   <v>       0.50000000       0.00000000       0.00000000 </v>
   <v>       0.00000000       0.12500000       0.00000000 </v>
   <v>       0.12500000       0.12500000       0.00000000 </v>
   <v>       0.25000000       0.12500000       0.00000000 </v>
   <v>       0.37500000       0.12500000       0.00000000 </v>
   <v>       0.50000000       0.12500000       0.00000000 </v>
   <v>      -0.37500000       0.12500000       0.00000000 </v>
   <v>      -0.25000000       0.12500000       0.00000000 </v>
   <v>      -0.12500000       0.12500000       0.00000000 </v>
   <v>       0.00000000       0.25000000       0.00000000 </v>
   <v>       0.12500000       0.25000000       0.00000000 </v>
   <v>       0.25000000       0.25000000       0.00000000 </v>
   <v>       0.37500000       0.25000000       0.00000000 </v>
   <v>       0.50000000       0.25000000       0.00000000 </v>
   <v>      -0.37500000       0.25000000       0.00000000 </v>
   <v>      -0.25000000       0.25000000       0.00000000 </v>
   <v>      -0.12500000       0.25000000       0.00000000 </v>
   <v>      -0.00000000       0.37500000       0.00000000 </v>
   <v>       0.12500000       0.37500000       0.00000000 </v>
   <v>       0.25000000       0.37500000       0.00000000 </v>
   <v>       0.37500000       0.37500000       0.00000000 </v>
   <v>       0.50000000       0.37500000       0.00000000 </v>
   <v>      -0.37500000       0.37500000       0.00000000 </v>
   <v>      -0.25000000       0.37500000       0.00000000 </v>
   <v>      -0.12500000       0.37500000       0.00000000 </v>
   <v>       0.00000000       0.50000000       0.00000000 </v>
   <v>       0.12500000       0.50000000       0.00000000 </v>
   <v>       0.25000000       0.50000000       0.00000000 </v>
   <v>       0.37500000       0.50000000       0.00000000 </v>
   <v>       0.50000000       0.50000000       0.00000000 </v>
  </varray>
  <varray name="weights" >
   <v>       0.01562500 </v>
   <v>       0.03125000 </v>
   <v>       0.03125000 </v>
   <v>       0.03125000 </v>
   <v>       0.01562500 </v>
   <v>       0.03125000 </v>
   <v>       0.03125000 </v>
   <v>       0.03125000 </v>
   <v>       0.03125000 </v>
   <v>       0.03125000 </v>
   <v>       0.03125000 </v>
   <v>       0.03125000 </v>
   <v>       0.03125000 </v>
   <v>       0.03125000 </v>
   <v>       0.03125000 </v>
   <v>       0.03125000 </v>
   <v>       0.03125000 </v>
   <v>       0.03125000 </v>
   <v>       0.03125000 </v>
   <v>       0.03125000 </v>
   <v>       0.03125000 </v>
   <v>       0.03125000 </v>
   <v>       0.03125000 </v>
   <v>       0.03125000 </v>
   <v>       0.03125000 </v>
   <v>       0.03125000 </v>
   <v>       0.03125000 </v>
   <v>       0.03125000 </v>
   <v>       0.03125000 </v>
   <v>       0.01562500 </v>
   <v>       0.03125000 </v>
   <v>       0.03125000 </v>
   <v>       0.03125000 </v>
   <v>       0.01562500 </v>
  </varray>
 </kpoints>
 <parameters>
  <separator name="general" >
   <i type="string" name="SYSTEM">unknown system</i>
   <i type="logical" name="LCOMPAT"> F  </i>
  </separator>
  <separator name="electronic" >
   <i type="string" name="PREC">normal</i>
   <i name="ENMAX">    280.00000000</i>
   <i name="ENAUG">    373.43800000</i>
   <i name="EDIFF">      0.00010000</i>
   <i type="int" name="IALGO">    38</i>
   <i type="int" name="IWAVPR">    11</i>
   <i type="int" name="NBANDS">   120</i>
   <i name="NELECT">    159.00000000</i>
   <i type="int" name="TURBO">     0</i>
   <i type="int" name="IRESTART">     0</i>
   <i type="int" name="NREBOOT">     0</i>
   <i type="int" name="NMIN">     0</i>
   <i name="EREF">      0.00000000</i>
   <separator name="electronic smearing" >
    <i type="int" name="ISMEAR">     0</i>
    <i name="SIGMA">      0.20000000</i>
    <i name="KSPACING">      0.50000000</i>
    <i type="logical" name="KGAMMA"> T  </i>
   </separator>
   <separator name="electronic projectors" >
    <i type="logical" name="LREAL"> F  </i>
    <v name="ROPT">      0.00000000      0.00000000      0.00000000      0.00000000</v>
    <i type="int" name="LMAXPAW">  -100</i>
    <i type="int" name="LMAXMIX">     2</i>
    <i type="logical" name="NLSPLINE"> F  </i>
   </separator>
   <separator name="electronic startup" >
    <i type="int" name="ISTART">     0</i>
    <i type="int" name="ICHARG">     2</i>
    <i type="int" name="INIWAV">     1</i>
   </separator>
   <separator name="electronic spin" >
    <i type="int" name="ISPIN">     1</i>
    <i type="logical" name="LNONCOLLINEAR"> F  </i>
    <v name="MAGMOM">      1.00000000      1.00000000      1.00000000      1.00000000      1.00000000      1.00000000      1.00000000      1.00000000      1.00000000      1.00000000      1.00000000      1.00000000      1.00000000      1.00000000      1.00000000      1.00000000      1.00000000      1.00000000      1.00000000      1.00000000
      1.00000000      1.00000000      1.00000000      1.00000000      1.00000000      1.00000000      1.00000000</v>
    <i name="NUPDOWN">     -1.00000000</i>
    <i type="logical" name="LSORBIT"> F  </i>
    <v name="SAXIS">      0.00000000      0.00000000      1.00000000</v>
    <i type="logical" name="LSPIRAL"> F  </i>
    <v name="QSPIRAL">      0.00000000      0.00000000      0.00000000</v>
    <i type="logical" name="LZEROZ"> F  </i>
   </separator>
   <separator name="electronic exchange-correlation" >
    <i type="logical" name="LASPH"> F  </i>
    <i type="logical" name="LMETAGGA"> F  </i>
   </separator>
   <separator name="electronic convergence" >
    <i type="int" name="NELM">    60</i>
    <i type="int" name="NELMDL">    -5</i>
    <i type="int" name="NELMIN">     2</i>
    <i name="ENINI">    280.00000000</i>
    <separator name="electronic convergence detail" >
     <i type="logical" name="LDIAG"> T  </i>
     <i type="logical" name="LSUBROT"> F  </i>
     <i name="WEIMIN">      0.00100000</i>
     <i name="EBREAK">      0.00000021</i>
     <i name="DEPER">      0.30000000</i>
     <i type="int" name="NRMM">     4</i>
     <i name="TIME">      0.40000000</i>
    </separator>
   </separator>
   <separator name="electronic mixer" >
    <i name="AMIX">      0.40000000</i>
    <i name="BMIX">      1.00000000</i>
    <i name="AMIN">      0.10000000</i>
    <i name="AMIX_MAG">      1.60000000</i>
    <i name="BMIX_MAG">      1.00000000</i>
    <separator name="electronic mixer details" >
     <i type="int" name="IMIX">     4</i>
     <i type="logical" name="MIXFIRST"> F  </i>
     <i type="int" name="MAXMIX">   -45</i>
     <i name="WC">    100.00000000</i>
     <i type="int" name="INIMIX">     1</i>
     <i type="int" name="MIXPRE">     1</i>
     <i type="int" name="MREMOVE">     5</i>
    </separator>
   </separator>
   <separator name="electronic dipolcorrection" >
    <i type="logical" name="LDIPOL"> F  </i>
    <i type="logical" name="LMONO"> F  </i>
    <i type="int" name="IDIPOL">     0</i>
    <i name="EPSILON">      1.00000000</i>
    <v name="DIPOL">   -100.00000000   -100.00000000   -100.00000000</v>
    <i name="EFIELD">      0.00000000</i>
   </separator>
  </separator>
  <separator name="grids" >
   <i type="int" name="NGX">    42</i>
   <i type="int" name="NGY">    42</i>
   <i type="int" name="NGZ">   126</i>
   <i type="int" name="NGXF">    84</i>
   <i type="int" name="NGYF">    84</i>
   <i type="int" name="NGZF">   252</i>
   <i type="logical" name="ADDGRID"> F  </i>
  </separator>
  <separator name="ionic" >
   <i type="int" name="NSW">   100</i>
   <i type="int" name="IBRION">     1</i>
   <i type="int" name="ISIF">     3</i>
   <i name="PSTRESS">      0.00000000</i>
   <i name="EDIFFG">      0.00100000</i>
   <i type="int" name="NFREE">     0</i>
   <i name="POTIM">      0.50000000</i>
   <i name="SMASS">     -3.00000000</i>
   <i name="SCALEE">      1.00000000</i>
  </separator>
  <separator name="ionic md" >
   <i name="TEBEG">      0.00010000</i>
   <i name="TEEND">      0.00010000</i>
   <i type="int" name="NBLOCK">     1</i>
   <i type="int" name="KBLOCK">   100</i>
   <i type="int" name="NPACO">   256</i>
   <i name="APACO">     16.00000000</i>
  </separator>
  <separator name="symmetry" >
   <i type="int" name="ISYM">     0</i>
   <i name="SYMPREC">      0.00000001</i>
  </separator>
  <separator name="dos" >
   <i type="logical" name="LORBIT"> F  </i>
   <v name="RWIGS">     -1.00000000     -1.00000000     -1.00000000     -1.00000000</v>
   <i type="int" name="NEDOS">   301</i>
   <i name="EMIN">     10.00000000</i>
   <i name="EMAX">    -10.00000000</i>
   <i name="EFERMI">      0.00000000</i>
  </separator>
  <separator name="writing" >
   <i type="int" name="NWRITE">     2</i>
   <i type="logical" name="LWAVE"> F  </i>
   <i type="logical" name="LCHARG"> F  </i>
   <i type="logical" name="LPARD"> F  </i>
   <i type="logical" name="LVTOT"> F  </i>
   <i type="logical" name="LVHAR"> F  </i>
   <i type="logical" name="LELF"> F  </i>
   <i type="logical" name="LOPTICS"> F  </i>
   <v name="STM">      0.00000000      0.00000000      0.00000000      0.00000000      0.00000000      0.00000000      0.00000000</v>
  </separator>
  <separator name="performance" >
   <i type="int" name="NPAR">    40</i>
   <i type="int" name="NSIM">     4</i>
   <i type="int" name="NBLK">    -1</i>
   <i type="logical" name="LPLANE"> F  </i>
   <i type="logical" name="LSCALAPACK"> T  </i>
   <i type="logical" name="LSCAAWARE"> F  </i>
   <i type="logical" name="LSCALU"> F  </i>
   <i type="logical" name="LASYNC"> F  </i>
   <i type="logical" name="LORBITALREAL"> F  </i>
  </separator>
  <separator name="miscellaneous" >
   <i type="int" name="IDIOT">     3</i>
   <i type="logical" name="LMUSIC"> F  </i>
   <v name="POMASS">     50.94100000     95.94000000    183.85000000     32.06600000</v>
   <v name="DARWINR">      0.00000000      0.00000000      0.00000000      0.00000000</v>
   <v name="DARWINV">      1.00000000      1.00000000      1.00000000      1.00000000</v>
   <i type="logical" name="LCORR"> T  </i>
  </separator>
  <i type="logical" name="GGA_COMPAT"> T  </i>
  <i type="logical" name="LBERRY"> F  </i>
  <i type="int" name="ICORELEVEL">     0</i>
  <i type="logical" name="LDAU"> F  </i>
  <i type="int" name="I_CONSTRAINED_M">     0</i>
  <separator name="electronic exchange-correlation" >
   <i type="string" name="GGA">--</i>
   <i type="int" name="VOSKOWN">     0</i>
   <i type="logical" name="LHFCALC"> F  </i>
   <i type="string" name="PRECFOCK"></i>
   <i type="logical" name="LSYMGRAD"> F  </i>
   <i type="logical" name="LHFONE"> F  </i>
   <i type="logical" name="LRHFCALC"> F  </i>
   <i type="logical" name="LTHOMAS"> F  </i>
   <i type="logical" name="LMODELHF"> F  </i>
   <i name="ENCUT4O">     -1.00000000</i>
   <i type="int" name="EXXOEP">     0</i>
   <i type="int" name="FOURORBIT">     0</i>
   <i name="AEXX">      0.00000000</i>
   <i name="HFALPHA">      0.00000000</i>
   <i name="MCALPHA">      0.00000000</i>
   <i name="ALDAX">      1.00000000</i>
   <i name="AGGAX">      1.00000000</i>
   <i name="ALDAC">      1.00000000</i>
   <i name="AGGAC">      1.00000000</i>
   <i type="int" name="NKREDX">     1</i>
   <i type="int" name="NKREDY">     1</i>
   <i type="int" name="NKREDZ">     1</i>
   <i type="logical" name="SHIFTRED"> F  </i>
   <i type="logical" name="ODDONLY"> F  </i>
   <i type="logical" name="EVENONLY"> F  </i>
   <i type="int" name="LMAXFOCK">     0</i>
   <i type="int" name="NMAXFOCKAE">     0</i>
   <i type="logical" name="LFOCKAEDFT"> F  </i>
   <i name="HFSCREEN">      0.00000000</i>
   <i name="HFSCREENC">      0.00000000</i>
   <i type="int" name="NBANDSGWLOW">     0</i>
  </separator>
  <separator name="vdW DFT" >
   <i type="logical" name="LUSE_VDW"> F  </i>
   <i name="Zab_VDW">     -0.84910000</i>
   <i name="PARAM1">      0.12340000</i>
   <i name="PARAM2">      1.00000000</i>
   <i name="PARAM3">      0.00000000</i>
  </separator>
  <separator name="model GW" >
   <i type="int" name="MODEL_GW">     0</i>
   <i name="MODEL_EPS0">     58.26239943</i>
   <i name="MODEL_ALPHA">      1.00000000</i>
  </separator>
  <separator name="linear response parameters" >
   <i type="logical" name="LEPSILON"> F  </i>
   <i type="logical" name="LRPA"> F  </i>
   <i type="logical" name="LNABLA"> F  </i>
   <i type="logical" name="LVEL"> F  </i>
   <i type="int" name="KINTER">     0</i>
   <i name="CSHIFT">      0.10000000</i>
   <i name="OMEGAMAX">     -1.00000000</i>
   <i name="DEG_THRESHOLD">      0.00200000</i>
  </separator>
  <separator name="orbital magnetization" >
   <i type="logical" name="NUCIND"> F  </i>
   <v name="MAGPOS">      0.00000000      0.00000000      0.00000000</v>
   <i type="logical" name="LNICSALL"> T  </i>
   <i type="logical" name="ORBITALMAG"> F  </i>
   <i type="logical" name="LMAGBLOCH"> F  </i>
   <i type="logical" name="LCHIMAG"> F  </i>
   <i type="logical" name="LGAUGE"> T  </i>
   <i type="int" name="MAGATOM">     0</i>
   <v name="MAGDIPOL">      0.00000000      0.00000000      0.00000000</v>
   <v name="AVECCONST">      0.00000000      0.00000000      0.00000000</v>
  </separator>
  <separator name="response functions" >
   <i type="logical" name="LADDER"> F  </i>
   <i type="logical" name="LFXC"> F  </i>
   <i type="logical" name="LHARTREE"> T  </i>
   <i type="int" name="IBSE">     0</i>
   <v type="int" name="KPOINT">    -1     0     0     0</v>
   <i type="logical" name="LTCTE"> F  </i>
   <i type="logical" name="LTETE"> F  </i>
   <i type="logical" name="LTRIPLET"> F  </i>
   <i type="logical" name="LFXCEPS"> F  </i>
   <i type="logical" name="LFXHEG"> F  </i>
   <i type="int" name="NATURALO">     0</i>
   <i type="logical" name="L2ORDER"> F  </i>
   <i type="logical" name="LUSEW"> F  </i>
   <i name="ENCUTGW">     -2.00000000</i>
   <i name="ENCUTGWSOFT">     -2.00000000</i>
   <i name="ENCUTLF">     -1.00000000</i>
   <i type="int" name="LMAXMP2">    -1</i>
   <i name="SCISSOR">      0.00000000</i>
   <i type="int" name="NOMEGA">     0</i>
   <i type="int" name="NOMEGAR">     0</i>
   <i type="int" name="NBANDSGW">    -1</i>
   <i type="int" name="NBANDSO">    -1</i>
   <i type="int" name="NBANDSV">    -1</i>
   <i type="int" name="NELM">     1</i>
   <i type="int" name="NELMHF">     1</i>
   <i type="int" name="DIM">     3</i>
   <i type="int" name="ANTIRES">     0</i>
   <i name="OMEGAMAX">    -30.00000000</i>
   <i name="OMEGAMIN">    -30.00000000</i>
   <i name="OMEGATL">   -200.00000000</i>
   <i type="int" name="OMEGAGRID">     0</i>
   <i name="CSHIFT">     -0.10000000</i>
   <i type="logical" name="SELFENERGY"> F  </i>
   <i type="logical" name="LSPECTRAL"> F  </i>
   <i type="logical" name="LSPECTRALGW"> F  </i>
   <i type="logical" name="LSINGLES"> F  </i>
   <i type="logical" name="LFERMIGW"> F  </i>
   <i type="logical" name="ODDONLYGW"> F  </i>
   <i type="logical" name="EVENONLYGW"> F  </i>
   <i type="int" name="NKREDLFX">     1</i>
   <i type="int" name="NKREDLFY">     1</i>
   <i type="int" name="NKREDLFZ">     1</i>
   <i type="int" name="MAXMEM">  1800</i>
   <i type="int" name="TELESCOPE">     0</i>
   <i type="int" name="TAUPAR">     1</i>
   <i type="int" name="OMEGAPAR">    -1</i>
   <i name="LAMBDA">      1.00000000</i>
  </separator>
  <separator name="External order field" >
   <i name="OFIELD_KAPPA">      0.00000000</i>
   <v name="OFIELD_K">      0.00000000      0.00000000      0.00000000</v>
   <i name="OFIELD_Q6_NEAR">      0.00000000</i>
   <i name="OFIELD_Q6_FAR">      0.00000000</i>
   <i name="OFIELD_A">      0.00000000</i>
  </separator>
 </parameters>
 <atominfo>
  <atoms>      27 </atoms>
  <types>       4 </types>
  <array name="atoms" >
   <dimension dim="1">ion</dimension>
   <field type="string">element</field>
   <field type="int">atomtype</field>
   <set>
    <rc><c>V </c><c>   1</c></rc>
    <rc><c>V </c><c>   1</c></rc>
    <rc><c>V </c><c>   1</c></rc>
    <rc><c>Mo</c><c>   2</c></rc>
    <rc><c>Mo</c><c>   2</c></rc>
    <rc><c>Mo</c><c>   2</c></rc>
    <rc><c>W </c><c>   3</c></rc>
    <rc><c>W </c><c>   3</c></rc>
    <rc><c>W </c><c>   3</c></rc>
    <rc><c>S </c><c>   4</c></rc>
    <rc><c>S </c><c>   4</c></rc>
    <rc><c>S </c><c>   4</c></rc>
    <rc><c>S </c><c>   4</c></rc>
    <rc><c>S </c><c>   4</c></rc>
    <rc><c>S </c><c>   4</c></rc>
    <rc><c>S </c><c>   4</c></rc>
    <rc><c>S </c><c>   4</c></rc>
    <rc><c>S </c><c>   4</c></rc>
    <rc><c>S </c><c>   4</c></rc>
    <rc><c>S </c><c>   4</c></rc>
    <rc><c>S </c><c>   4</c></rc>
    <rc><c>S </c><c>   4</c></rc>
    <rc><c>S </c><c>   4</c></rc>
    <rc><c>S </c><c>   4</c></rc>
    <rc><c>S </c><c>   4</c></rc>
    <rc><c>S </c><c>   4</c></rc>
    <rc><c>S </c><c>   4</c></rc>
   </set>
  </array>
  <array name="atomtypes" >
   <dimension dim="1">type</dimension>
   <field type="int">atomspertype</field>
   <field type="string">element</field>
   <field>mass</field>
   <field>valence</field>
   <field type="string">pseudopotential</field>
   <set>
    <rc><c>   3</c><c>V </c><c>     50.94100000</c><c>      5.00000000</c><c> PAW_PBE V 08Apr2002                    </c></rc>
    <rc><c>   3</c><c>Mo</c><c>     95.94000000</c><c>      6.00000000</c><c> PAW_PBE Mo 08Apr2002                   </c></rc>
    <rc><c>   3</c><c>W </c><c>    183.85000000</c><c>      6.00000000</c><c> PAW_PBE W 08Apr2002                    </c></rc>
    <rc><c>  18</c><c>S </c><c>     32.06600000</c><c>      6.00000000</c><c>  PAW_PBE S 17Jan2003                   </c></rc>
   </set>
  </array>
 </atominfo>
 <structure name="initialpos" >
  <crystal>
   <varray name="basis" >
    <v>       8.66999996       5.03999989       0.00000000 </v>
    <v>      -8.66999982       5.04000013       0.00000000 </v>
    <v>       0.00000000       0.00000000      30.00000000 </v>
   </varray>
   <i name="volume">   2621.80797419 </i>
   <varray name="rec_basis" >
    <v>       0.05767013       0.09920635       0.00000000 </v>
    <v>      -0.05767013       0.09920635       0.00000000 </v>
    <v>       0.00000000       0.00000000       0.03333333 </v>
   </varray>
  </crystal>
  <varray name="positions" >
   <v>       1.00000000       0.33333334       0.00000000 </v>
   <v>       0.66666669       0.00000000       0.00000000 </v>
   <v>       0.66666669       0.66666669       0.00000000 </v>
   <v>       0.00000000       0.66666669       0.00000000 </v>
   <v>       0.00000000       0.00000000       0.00000000 </v>
   <v>       0.33333334       0.33333334       0.00000000 </v>
   <v>       0.33333334       0.00000000       0.00000000 </v>
   <v>       0.33333334       0.66666669       0.00000000 </v>
   <v>       0.66666669       0.33333334       0.00000000 </v>
   <v>       0.11068511       0.22244981       0.95539999 </v>
   <v>       0.22244981       0.11068511       0.04460000 </v>
   <v>       0.11068511       0.55578315       0.95539999 </v>
   <v>       0.22244981       0.44401845       0.04460000 </v>
   <v>       0.11068511       0.88911647       0.95539999 </v>
   <v>       0.22244981       0.77735180       0.04460000 </v>
   <v>       0.44401845       0.22244981       0.95539999 </v>
   <v>       0.55578315       0.11068511       0.04460000 </v>
   <v>       0.44401845       0.55578315       0.95539999 </v>
   <v>       0.55578315       0.44401845       0.04460000 </v>
   <v>       0.44401845       0.88911647       0.95539999 </v>
   <v>       0.55578315       0.77735180       0.04460000 </v>
   <v>       0.77735180       0.22244981       0.95539999 </v>
   <v>       0.88911647       0.11068511       0.04460000 </v>
   <v>       0.77735180       0.55578315       0.95539999 </v>
   <v>       0.88911647       0.44401845       0.04460000 </v>
   <v>       0.77735180       0.88911647       0.95539999 </v>
   <v>       0.88911647       0.77735180       0.04460000 </v>
  </varray>
 </structure>
 <calculation>
  <scstep>
   <time name="dav">   21.66   21.72</time>
   <time name="total">   21.71   21.77</time>
   <energy>
    <i name="alphaZ">     81.65567618 </i>
    <i name="ewald">  41890.23009673 </i>
    <i name="hartreedc"> -47722.86566801 </i>
    <i name="XCdc">   -242.92868360 </i>
    <i name="pawpsdc">   3467.42045192 </i>
    <i name="pawaedc">  -2871.19716117 </i>
    <i name="eentropy">     -0.52475875 </i>
    <i name="bandstr">   -239.20627880 </i>
    <i name="atom">   6761.44252427 </i>
    <i name="e_fr_energy">   1124.02619878 </i>
    <i name="e_wo_entrp">   1124.55095752 </i>
    <i name="e_0_energy">   1124.28857815 </i>
   </energy>
  </scstep>
  <scstep>
   <time name="dav">   28.72   28.79</time>
   <time name="total">   28.72   28.80</time>
   <energy>
    <i name="e_fr_energy">     -5.04102683 </i>
    <i name="e_wo_entrp">     -4.83558243 </i>
    <i name="e_0_energy">     -4.93830463 </i>
   </energy>
  </scstep>
  <scstep>
   <time name="dav">   27.49   27.56</time>
   <time name="total">   27.49   27.57</time>
   <energy>
    <i name="e_fr_energy">   -200.00884263 </i>
    <i name="e_wo_entrp">   -199.74498347 </i>
    <i name="e_0_energy">   -199.87691305 </i>
   </energy>
  </scstep>
  <scstep>
   <time name="dav">   30.64   30.72</time>
   <time name="total">   30.65   30.73</time>
   <energy>
    <i name="e_fr_energy">   -209.01653439 </i>
    <i name="e_wo_entrp">   -208.72062905 </i>
    <i name="e_0_energy">   -208.86858172 </i>
   </energy>
  </scstep>
  <scstep>
   <time name="dav">   27.79   27.85</time>
   <time name="total">   28.25   28.33</time>
   <energy>
    <i name="e_fr_energy">   -209.29187355 </i>
    <i name="e_wo_entrp">   -208.99840921 </i>
    <i name="e_0_energy">   -209.14514138 </i>
   </energy>
  </scstep>
  <scstep>
   <time name="dav">   30.91   30.98</time>
   <time name="total">   31.41   31.50</time>
   <energy>
    <i name="e_fr_energy">   -236.99619165 </i>
    <i name="e_wo_entrp">   -236.71837735 </i>
    <i name="e_0_energy">   -236.85728450 </i>
   </energy>
  </scstep>
  <scstep>
   <time name="dav">   32.83   32.91</time>
   <time name="total">   33.34   33.43</time>
   <energy>
    <i name="e_fr_energy">   -196.52245510 </i>
    <i name="e_wo_entrp">   -196.20756176 </i>
    <i name="e_0_energy">   -196.36500843 </i>
   </energy>
  </scstep>
  <scstep>
   <time name="dav">   29.75   29.82</time>
   <time name="total">   30.27   30.35</time>
   <energy>
    <i name="e_fr_energy">   -189.54614096 </i>
    <i name="e_wo_entrp">   -189.25836470 </i>
    <i name="e_0_energy">   -189.40225283 </i>
   </energy>
  </scstep>
  <scstep>
   <time name="dav">   30.73   30.80</time>
   <time name="total">   31.25   31.33</time>
   <energy>
    <i name="e_fr_energy">   -188.23973536 </i>
    <i name="e_wo_entrp">   -187.91214690 </i>
    <i name="e_0_energy">   -188.07594113 </i>
   </energy>
  </scstep>
  <scstep>
   <time name="dav">   32.58   32.66</time>
   <time name="total">   33.12   33.21</time>
   <energy>
    <i name="e_fr_energy">   -187.04891648 </i>
    <i name="e_wo_entrp">   -186.69827539 </i>
    <i name="e_0_energy">   -186.87359594 </i>
   </energy>
  </scstep>
  <scstep>
   <time name="dav">   32.91   32.99</time>
   <time name="total">   33.45   33.53</time>
   <energy>
    <i name="e_fr_energy">   -187.02240466 </i>
    <i name="e_wo_entrp">   -186.67714261 </i>
    <i name="e_0_energy">   -186.84977363 </i>
   </energy>
  </scstep>
  <scstep>
   <time name="dav">   30.65   30.72</time>
   <time name="total">   31.19   31.27</time>
   <energy>
    <i name="e_fr_energy">   -187.17749234 </i>
    <i name="e_wo_entrp">   -186.84085247 </i>
    <i name="e_0_energy">   -187.00917240 </i>
   </energy>
  </scstep>
  <scstep>
   <time name="dav">   31.79   31.86</time>
   <time name="total">   32.33   32.41</time>
   <energy>
    <i name="e_fr_energy">   -186.92753374 </i>
    <i name="e_wo_entrp">   -186.59062578 </i>
    <i name="e_0_energy">   -186.75907976 </i>
   </energy>
  </scstep>
  <scstep>
   <time name="dav">   31.91   31.99</time>
   <time name="total">   32.45   32.54</time>
   <energy>
    <i name="e_fr_energy">   -186.87859797 </i>
    <i name="e_wo_entrp">   -186.53529196 </i>
    <i name="e_0_energy">   -186.70694496 </i>
   </energy>
  </scstep>
  <scstep>
   <time name="dav">   29.57   29.64</time>
   <time name="total">   30.10   30.18</time>
   <energy>
    <i name="e_fr_energy">   -186.87937245 </i>
    <i name="e_wo_entrp">   -186.53358472 </i>
    <i name="e_0_energy">   -186.70647858 </i>
   </energy>
  </scstep>
  <scstep>
   <time name="dav">   31.05   31.13</time>
   <time name="total">   31.59   31.68</time>
   <energy>
    <i name="e_fr_energy">   -186.87078399 </i>
    <i name="e_wo_entrp">   -186.52461977 </i>
    <i name="e_0_energy">   -186.69770188 </i>
   </energy>
  </scstep>
  <scstep>
   <time name="dav">   31.05   31.12</time>
   <time name="total">   31.59   31.67</time>
   <energy>
    <i name="e_fr_energy">   -186.86750439 </i>
    <i name="e_wo_entrp">   -186.52341675 </i>
    <i name="e_0_energy">   -186.69546057 </i>
   </energy>
  </scstep>
  <scstep>
   <time name="dav">   30.84   30.92</time>
   <time name="total">   31.39   31.47</time>
   <energy>
    <i name="e_fr_energy">   -186.86695747 </i>
    <i name="e_wo_entrp">   -186.52237451 </i>
    <i name="e_0_energy">   -186.69466599 </i>
   </energy>
  </scstep>
  <scstep>
   <time name="dav">   26.80   26.86</time>
   <time name="total">   27.34   27.41</time>
   <energy>
    <i name="e_fr_energy">   -186.86746627 </i>
    <i name="e_wo_entrp">   -186.52305131 </i>
    <i name="e_0_energy">   -186.69525879 </i>
   </energy>
  </scstep>
  <scstep>
   <time name="dav">   23.34   23.41</time>
   <time name="total">   23.88   23.96</time>
   <energy>
    <i name="e_fr_energy">   -186.86781457 </i>
    <i name="e_wo_entrp">   -186.52353138 </i>
    <i name="e_0_energy">   -186.69567297 </i>
   </energy>
  </scstep>
  <scstep>
   <time name="dav">   20.82   20.87</time>
   <time name="total">   21.35   21.41</time>
   <energy>
    <i name="e_fr_energy">   -186.86867030 </i>
    <i name="e_wo_entrp">   -186.52436038 </i>
    <i name="e_0_energy">   -186.69651534 </i>
   </energy>
  </scstep>
  <scstep>
   <time name="dav">   20.02   20.07</time>
   <time name="total">   20.56   20.62</time>
   <energy>
    <i name="e_fr_energy">   -186.86947557 </i>
    <i name="e_wo_entrp">   -186.52514400 </i>
    <i name="e_0_energy">   -186.69730979 </i>
   </energy>
  </scstep>
  <scstep>
   <time name="dav">   20.35   20.40</time>
   <time name="total">   20.89   20.95</time>
   <energy>
    <i name="e_fr_energy">   -186.87069794 </i>
    <i name="e_wo_entrp">   -186.52641805 </i>
    <i name="e_0_energy">   -186.69855800 </i>
   </energy>
  </scstep>
  <scstep>
   <time name="dav">   18.68   18.72</time>
   <time name="total">   19.22   19.27</time>
   <energy>
    <i name="e_fr_energy">   -186.87128320 </i>
    <i name="e_wo_entrp">   -186.52699500 </i>
    <i name="e_0_energy">   -186.69913910 </i>
   </energy>
  </scstep>
  <scstep>
   <time name="dav">   16.51   16.55</time>
   <time name="total">   17.05   17.10</time>
   <energy>
    <i name="e_fr_energy">   -186.87171849 </i>
    <i name="e_wo_entrp">   -186.52739178 </i>
    <i name="e_0_energy">   -186.69955514 </i>
   </energy>
  </scstep>
  <scstep>
   <time name="dav">   19.12   19.16</time>
   <time name="total">   19.66   19.71</time>
   <energy>
    <i name="e_fr_energy">   -186.87190608 </i>
    <i name="e_wo_entrp">   -186.52759828 </i>
    <i name="e_0_energy">   -186.69975218 </i>
   </energy>
  </scstep>
  <scstep>
   <time name="dav">   19.36   19.40</time>
   <time name="total">   19.39   19.45</time>
   <energy>
    <i name="alphaZ">     81.65567618 </i>
    <i name="ewald">  41890.23009673 </i>
    <i name="hartreedc"> -47832.99568931 </i>
    <i name="XCdc">   -231.60040818 </i>
    <i name="pawpsdc">   4192.12193788 </i>
    <i name="pawaedc">  -3610.14094465 </i>
    <i name="eentropy">     -0.34430567 </i>
    <i name="bandstr">  -1437.24088120 </i>
    <i name="atom">   6761.44252427 </i>
    <i name="e_fr_energy">   -186.87199395 </i>
    <i name="e_wo_entrp">   -186.52768828 </i>
    <i name="e_0_energy">   -186.69984112 </i>
   </energy>
  </scstep>
  <structure>
   <crystal>
    <varray name="basis" >
     <v>       8.66999996       5.03999989       0.00000000 </v>
     <v>      -8.66999982       5.04000013       0.00000000 </v>
     <v>       0.00000000       0.00000000      30.00000000 </v>
    </varray>
    <i name="volume">   2621.80797419 </i>
    <varray name="rec_basis" >
     <v>       0.05767013       0.09920635       0.00000000 </v>
     <v>      -0.05767013       0.09920635       0.00000000 </v>
     <v>       0.00000000       0.00000000       0.03333333 </v>
    </varray>
   </crystal>
   <varray name="positions" >
    <v>       1.00000000       0.33333334       0.00000000 </v>
    <v>       0.66666669       0.00000000       0.00000000 </v>
    <v>       0.66666669       0.66666669       0.00000000 </v>
    <v>       0.00000000       0.66666669       0.00000000 </v>
    <v>       0.00000000       0.00000000       0.00000000 </v>
    <v>       0.33333334       0.33333334       0.00000000 </v>
    <v>       0.33333334       0.00000000       0.00000000 </v>
    <v>       0.33333334       0.66666669       0.00000000 </v>
    <v>       0.66666669       0.33333334       0.00000000 </v>
    <v>       0.11068511       0.22244981       0.95539999 </v>
    <v>       0.22244981       0.11068511       0.04460000 </v>
    <v>       0.11068511       0.55578315       0.95539999 </v>
    <v>       0.22244981       0.44401845       0.04460000 </v>
    <v>       0.11068511       0.88911647       0.95539999 </v>
    <v>       0.22244981       0.77735180       0.04460000 </v>
    <v>       0.44401845       0.22244981       0.95539999 </v>
    <v>       0.55578315       0.11068511       0.04460000 </v>
    <v>       0.44401845       0.55578315       0.95539999 </v>
    <v>       0.55578315       0.44401845       0.04460000 </v>
    <v>       0.44401845       0.88911647       0.95539999 </v>
    <v>       0.55578315       0.77735180       0.04460000 </v>
    <v>       0.77735180       0.22244981       0.95539999 </v>
    <v>       0.88911647       0.11068511       0.04460000 </v>
    <v>       0.77735180       0.55578315       0.95539999 </v>
    <v>       0.88911647       0.44401845       0.04460000 </v>
    <v>       0.77735180       0.88911647       0.95539999 </v>
    <v>       0.88911647       0.77735180       0.04460000 </v>
   </varray>
  </structure>
  <varray name="forces" >
   <v>       0.22684428       0.05259725      -0.08485416 </v>
   <v>       0.28655964       0.15607023      -0.00482720 </v>
   <v>       0.14409782       0.16684516       0.08474963 </v>
   <v>      -0.26290660       0.14918337      -0.05582563 </v>
   <v>       0.17664392       0.09187173       0.00753890 </v>
   <v>       0.00195794      -0.29824380       0.06254315 </v>
   <v>      -0.56276535      -0.31039797      -0.00095773 </v>
   <v>       0.08383707      -0.30090533      -0.01306812 </v>
   <v>      -0.22127399       0.19556638       0.00591883 </v>
   <v>      -0.77713556      -0.00488374      -2.12384266 </v>
   <v>       0.05327386       0.03039454       2.95696513 </v>
   <v>       0.62061087      -0.56233921      -2.17971179 </v>
   <v>      -0.60117839      -0.53854921       2.16925713 </v>
   <v>       0.23371934       0.14912890      -2.95189945 </v>
   <v>      -0.04446067       0.16995207       2.88784965 </v>
   <v>       0.30964168      -0.00624170      -2.88337474 </v>
   <v>       0.59589239      -0.00557010       2.08127734 </v>
   <v>       0.36064475       0.70753133      -2.11859520 </v>
   <v>      -0.36886071       0.71310402       2.19203598 </v>
   <v>       0.45958319       0.56967756      -2.12791644 </v>
   <v>       0.26685973       0.52901551       1.43454549 </v>
   <v>       0.75977559       0.01995379      -1.47669880 </v>
   <v>      -0.89425531      -0.00053744       1.45428848 </v>
   <v>      -0.64240778      -0.13887533      -2.13044025 </v>
   <v>       0.66269635      -0.15427843       2.06766056 </v>
   <v>      -0.32151182      -0.66325198      -1.41096388 </v>
   <v>      -0.54588224      -0.71681759       2.15834578 </v>
  </varray>
  <varray name="stress" >
   <v>       7.35665382       0.03738228      -1.53321382 </v>
   <v>       0.03738246       4.39816664      -0.03595438 </v>
   <v>      -1.53321370      -0.03595448      30.31823084 </v>
  </varray>
  <energy>
   <i name="e_fr_energy">   -186.87199395 </i>
   <i name="e_wo_entrp">   -186.69984112 </i>
   <i name="e_0_energy">     -0.34430567 </i>
  </energy>
  <time name="totalsc">  781.70  783.80</time>
 </calculation>
 <calculation>
  <scstep>
   <time name="dav">   21.64   21.69</time>
   <time name="total">   22.19   22.25</time>
   <energy>
    <i name="alphaZ">     78.92135604 </i>
    <i name="ewald">  39379.53892801 </i>
    <i name="hartreedc"> -45337.05612825 </i>
    <i name="XCdc">   -239.05838441 </i>
    <i name="pawpsdc">   4192.09298803 </i>
    <i name="pawaedc">  -3610.11266363 </i>
    <i name="eentropy">     -0.28108369 </i>
    <i name="bandstr">  -1412.99840160 </i>
    <i name="atom">   6761.44252427 </i>
    <i name="e_fr_energy">   -187.51086523 </i>
    <i name="e_wo_entrp">   -187.22978154 </i>
    <i name="e_0_energy">   -187.37032339 </i>
   </energy>
  </scstep>
  <scstep>
   <time name="dav">   30.17   30.24</time>
   <time name="total">   30.71   30.79</time>
   <energy>
    <i name="e_fr_energy">   -189.61314804 </i>
    <i name="e_wo_entrp">   -189.27316484 </i>
    <i name="e_0_energy">   -189.44315644 </i>
   </energy>
  </scstep>
  <scstep>
   <time name="dav">   30.36   30.43</time>
   <time name="total">   30.92   31.11</time>
   <energy>
    <i name="e_fr_energy">   -189.32833442 </i>
    <i name="e_wo_entrp">   -189.06306631 </i>
    <i name="e_0_energy">   -189.19570037 </i>
   </energy>
  </scstep>
  <scstep>
   <time name="dav">   28.43   28.50</time>
   <time name="total">   28.98   29.05</time>
   <energy>
    <i name="e_fr_energy">   -188.79650485 </i>
    <i name="e_wo_entrp">   -188.51196778 </i>
    <i name="e_0_energy">   -188.65423632 </i>
   </energy>
  </scstep>
  <scstep>
   <time name="dav">   30.38   30.45</time>
   <time name="total">   30.92   31.00</time>
   <energy>
    <i name="e_fr_energy">   -188.88871996 </i>
    <i name="e_wo_entrp">   -188.60305458 </i>
    <i name="e_0_energy">   -188.74588727 </i>
   </energy>
  </scstep>
  <scstep>
   <time name="dav">   31.06   31.13</time>
   <time name="total">   31.60   31.69</time>
   <energy>
    <i name="e_fr_energy">   -188.75849210 </i>
    <i name="e_wo_entrp">   -188.47327205 </i>
    <i name="e_0_energy">   -188.61588207 </i>
   </energy>
  </scstep>
  <scstep>
   <time name="dav">   28.30   28.37</time>
   <time name="total">   28.85   28.92</time>
   <energy>
    <i name="e_fr_energy">   -188.71820719 </i>
    <i name="e_wo_entrp">   -188.43399774 </i>
    <i name="e_0_energy">   -188.57610246 </i>
   </energy>
  </scstep>
  <scstep>
   <time name="dav">   31.52   31.60</time>
   <time name="total">   32.06   32.15</time>
   <energy>
    <i name="e_fr_energy">   -188.71125674 </i>
    <i name="e_wo_entrp">   -188.42889027 </i>
    <i name="e_0_energy">   -188.57007350 </i>
   </energy>
  </scstep>
  <scstep>
   <time name="dav">   28.58   28.65</time>
   <time name="total">   29.12   29.20</time>
   <energy>
    <i name="e_fr_energy">   -188.68423471 </i>
    <i name="e_wo_entrp">   -188.40190835 </i>
    <i name="e_0_energy">   -188.54307153 </i>
   </energy>
  </scstep>
  <scstep>
   <time name="dav">   27.51   27.58</time>
   <time name="total">   28.06   28.13</time>
   <energy>
    <i name="e_fr_energy">   -188.68239793 </i>
    <i name="e_wo_entrp">   -188.40100115 </i>
    <i name="e_0_energy">   -188.54169954 </i>
   </energy>
  </scstep>
  <scstep>
   <time name="dav">   31.06   31.13</time>
   <time name="total">   31.60   31.69</time>
   <energy>
    <i name="e_fr_energy">   -188.68190367 </i>
    <i name="e_wo_entrp">   -188.40159647 </i>
    <i name="e_0_energy">   -188.54175007 </i>
   </energy>
  </scstep>
  <scstep>
   <time name="dav">   28.07   28.14</time>
   <time name="total">   28.11   28.18</time>
   <energy>
    <i name="alphaZ">     78.92135604 </i>
    <i name="ewald">  39379.53892801 </i>
    <i name="hartreedc"> -45347.95928937 </i>
    <i name="XCdc">   -237.96793973 </i>
    <i name="pawpsdc">   3952.80505118 </i>
    <i name="pawaedc">  -3367.34616068 </i>
    <i name="eentropy">     -0.28034164 </i>
    <i name="bandstr">  -1407.83607690 </i>
    <i name="atom">   6761.44252427 </i>
    <i name="e_fr_energy">   -188.68194882 </i>
    <i name="e_wo_entrp">   -188.40160718 </i>
    <i name="e_0_energy">   -188.54177800 </i>
   </energy>
  </scstep>
  <structure>
   <crystal>
    <varray name="basis" >
     <v>       8.85704152       5.10576020       0.00000000 </v>
     <v>      -8.85593962       5.10386517       0.00000000 </v>
     <v>       0.00000000       0.00000000      30.00000000 </v>
    </varray>
    <i name="volume">   2712.64349307 </i>
    <varray name="rec_basis" >
     <v>       0.05644529       0.09794069       0.00000000 </v>
     <v>      -0.05646625       0.09795288       0.00000000 </v>
     <v>       0.00000000       0.00000000       0.03333333 </v>
    </varray>
   </crystal>
   <varray name="positions" >
    <v>       1.00088285       0.33295396      -0.00013645 </v>
    <v>       0.66821089      -0.00005031      -0.00000776 </v>
    <v>       0.66786611       0.66706430       0.00013628 </v>
    <v>      -0.00001746       0.66811212      -0.00008977 </v>
    <v>       0.00093115      -0.00005176       0.00001212 </v>
    <v>       0.33191140       0.33190051       0.00010057 </v>
    <v>       0.33028208       0.00008015      -0.00000154 </v>
    <v>       0.33212647       0.66499331      -0.00002101 </v>
    <v>       0.66698704       0.33488494       0.00000952 </v>
    <v>       0.10849962       0.22458855       0.95198466 </v>
    <v>       0.22274349       0.11068236       0.04935506 </v>
    <v>       0.10972041       0.55136517       0.95189482 </v>
    <v>       0.21819975       0.44311354       0.04808836 </v>
    <v>       0.11204908       0.88917995       0.95065307 </v>
    <v>       0.22313950       0.77828888       0.04924392 </v>
    <v>       0.44485005       0.22155846       0.95076327 </v>
    <v>       0.55741436       0.10900058       0.04794688 </v>
    <v>       0.44840805       0.55816601       0.95199310 </v>
    <v>       0.55816982       0.44845758       0.04812499 </v>
    <v>       0.44802355       0.89056430       0.95197811 </v>
    <v>       0.55905746       0.77914121       0.04690687 </v>
    <v>       0.77956111       0.22043149       0.95302533 </v>
    <v>       0.88662593       0.11317050       0.04693862 </v>
    <v>       0.77489986       0.55690578       0.95197405 </v>
    <v>       0.89022182       0.44143635       0.04792498 </v>
    <v>       0.77328299       0.88683665       0.95313104 </v>
    <v>       0.88416706       0.77543986       0.04807081 </v>
   </varray>
  </structure>
  <varray name="forces" >
   <v>       0.17058178       0.08962524      -0.02904694 </v>
   <v>       0.20631685       0.12516926      -0.00298951 </v>
   <v>       0.16049469       0.09507118       0.03049215 </v>
   <v>      -0.20203120       0.31628082       0.06140106 </v>
   <v>       0.49139939       0.28770843      -0.00152070 </v>
   <v>       0.17405075      -0.32733250      -0.05969407 </v>
   <v>      -0.63452832      -0.36234404       0.00311708 </v>
   <v>      -0.01678701      -0.28912463      -0.11340098 </v>
   <v>      -0.26353032       0.11378139       0.11455725 </v>
   <v>      -0.06165727      -0.01356783      -0.09951567 </v>
   <v>       0.12568820      -0.00176150       0.27407841 </v>
   <v>       0.08295265       0.04105506      -0.00466756 </v>
   <v>      -0.07607285       0.03671950       0.05998919 </v>
   <v>       0.04331371       0.10097007      -0.27790872 </v>
   <v>       0.07423989       0.11533773      -0.01012230 </v>
   <v>       0.11549180      -0.00278210      -0.00320672 </v>
   <v>      -0.10514266      -0.00072277      -0.24103422 </v>
   <v>      -0.10752620       0.05342487       0.15383793 </v>
   <v>       0.10182860       0.05974646      -0.00156512 </v>
   <v>      -0.06149369      -0.07453797       0.26430525 </v>
   <v>      -0.03789460      -0.07831786      -0.11766837 </v>
   <v>      -0.09878886       0.02196606       0.14238616 </v>
   <v>      -0.02501106       0.00392605      -0.09032988 </v>
   <v>       0.00656292      -0.09567033      -0.07425370 </v>
   <v>      -0.02190558      -0.11113956      -0.13865934 </v>
   <v>       0.00471572      -0.03489601       0.07135035 </v>
   <v>      -0.04526731      -0.06858502       0.09006894 </v>
  </varray>
  <varray name="stress" >
   <v>     -20.01027501      -0.00231649       0.06353992 </v>
   <v>      -0.00231655     -19.56272923      -0.03678563 </v>
   <v>       0.06353983      -0.03678568      -1.76371116 </v>
  </varray>
  <energy>
   <i name="e_fr_energy">   -188.68194882 </i>
   <i name="e_wo_entrp">   -188.54177800 </i>
   <i name="e_0_energy">     -0.28034164 </i>
  </energy>
  <time name="totalsc">  394.86  396.01</time>
 </calculation>
 <calculation>
  <scstep>
   <time name="dav">   23.90   23.95</time>
   <time name="total">   24.43   24.49</time>
   <energy>
    <i name="alphaZ">     82.34975539 </i>
    <i name="ewald">  41305.05386298 </i>
    <i name="hartreedc"> -47304.04897304 </i>
    <i name="XCdc">   -233.84388175 </i>
    <i name="pawpsdc">   3950.39369247 </i>
    <i name="pawaedc">  -3364.90636742 </i>
    <i name="eentropy">     -0.23487386 </i>
    <i name="bandstr">  -1386.81517743 </i>
    <i name="atom">   6761.44252427 </i>
    <i name="e_fr_energy">   -190.60943838 </i>
    <i name="e_wo_entrp">   -190.37456452 </i>
    <i name="e_0_energy">   -190.49200145 </i>
   </energy>
  </scstep>
  <scstep>
   <time name="dav">   28.07   28.13</time>
   <time name="total">   28.59   28.67</time>
   <energy>
    <i name="e_fr_energy">   -190.56157962 </i>
    <i name="e_wo_entrp">   -190.32912734 </i>
    <i name="e_0_energy">   -190.44535348 </i>
   </energy>
  </scstep>
  <scstep>
   <time name="dav">   30.11   30.18</time>
   <time name="total">   30.64   30.72</time>
   <energy>
    <i name="e_fr_energy">   -190.08852061 </i>
    <i name="e_wo_entrp">   -189.83834643 </i>
    <i name="e_0_energy">   -189.96343352 </i>
   </energy>
  </scstep>
  <scstep>
   <time name="dav">   31.25   31.32</time>
   <time name="total">   31.78   31.86</time>
   <energy>
    <i name="e_fr_energy">   -189.87769098 </i>
    <i name="e_wo_entrp">   -189.64441610 </i>
    <i name="e_0_energy">   -189.76105354 </i>
   </energy>
  </scstep>
  <scstep>
   <time name="dav">   29.24   29.31</time>
   <time name="total">   29.78   29.86</time>
   <energy>
    <i name="e_fr_energy">   -189.78804378 </i>
    <i name="e_wo_entrp">   -189.55162767 </i>
    <i name="e_0_energy">   -189.66983573 </i>
   </energy>
  </scstep>
  <scstep>
   <time name="dav">   26.60   26.66</time>
   <time name="total">   27.13   27.21</time>
   <energy>
    <i name="e_fr_energy">   -189.77445340 </i>
    <i name="e_wo_entrp">   -189.53634556 </i>
    <i name="e_0_energy">   -189.65539948 </i>
   </energy>
  </scstep>
  <scstep>
   <time name="dav">   30.01   30.08</time>
   <time name="total">   30.54   30.62</time>
   <energy>
    <i name="e_fr_energy">   -189.77524598 </i>
    <i name="e_wo_entrp">   -189.53923844 </i>
    <i name="e_0_energy">   -189.65724221 </i>
   </energy>
  </scstep>
  <scstep>
   <time name="dav">   29.08   29.15</time>
   <time name="total">   29.62   29.69</time>
   <energy>
    <i name="e_fr_energy">   -189.77409184 </i>
    <i name="e_wo_entrp">   -189.53689731 </i>
    <i name="e_0_energy">   -189.65549458 </i>
   </energy>
  </scstep>
  <scstep>
   <time name="dav">   26.95   27.02</time>
   <time name="total">   27.49   27.56</time>
   <energy>
    <i name="e_fr_energy">   -189.77449419 </i>
    <i name="e_wo_entrp">   -189.53760628 </i>
    <i name="e_0_energy">   -189.65605024 </i>
   </energy>
  </scstep>
  <scstep>
   <time name="dav">   27.92   27.99</time>
   <time name="total">   28.46   28.53</time>
   <energy>
    <i name="e_fr_energy">   -189.77457374 </i>
    <i name="e_wo_entrp">   -189.53725245 </i>
    <i name="e_0_energy">   -189.65591310 </i>
   </energy>
  </scstep>
  <scstep>
   <time name="dav">   23.52   23.58</time>
   <time name="total">   24.06   24.13</time>
   <energy>
    <i name="e_fr_energy">   -189.77424216 </i>
    <i name="e_wo_entrp">   -189.53714569 </i>
    <i name="e_0_energy">   -189.65569393 </i>
   </energy>
  </scstep>
  <scstep>
   <time name="dav">   17.76   17.80</time>
   <time name="total">   17.80   17.85</time>
   <energy>
    <i name="alphaZ">     82.34975539 </i>
    <i name="ewald">  41305.05386298 </i>
    <i name="hartreedc"> -47277.28023278 </i>
    <i name="XCdc">   -235.23860124 </i>
    <i name="pawpsdc">   4038.68041649 </i>
    <i name="pawaedc">  -3454.38915909 </i>
    <i name="eentropy">     -0.23714841 </i>
    <i name="bandstr">  -1410.15565386 </i>
    <i name="atom">   6761.44252427 </i>
    <i name="e_fr_energy">   -189.77423626 </i>
    <i name="e_wo_entrp">   -189.53708785 </i>
    <i name="e_0_energy">   -189.65566205 </i>
   </energy>
  </scstep>
  <structure>
   <crystal>
    <varray name="basis" >
     <v>       8.66859305       4.99954152       0.00000000 </v>
     <v>      -8.66753974       4.99772953       0.00000000 </v>
     <v>       0.00000000       0.00000000      30.00000000 </v>
    </varray>
    <i name="volume">   2599.71024719 </i>
    <varray name="rec_basis" >
     <v>       0.05767254       0.10002122       0.00000000 </v>
     <v>      -0.05769345       0.10003338       0.00000000 </v>
     <v>       0.00000000       0.00000000       0.03333333 </v>
    </varray>
   </crystal>
   <varray name="positions" >
    <v>       1.00119493       0.33293949      -0.00015287 </v>
    <v>       0.66861620      -0.00003995      -0.00000945 </v>
    <v>       0.66817758       0.66706854       0.00015352 </v>
    <v>       0.00031441       0.66883083      -0.00005507 </v>
    <v>       0.00187921      -0.00004439       0.00001126 </v>
    <v>       0.33153441       0.33119023       0.00006684 </v>
    <v>       0.32907310       0.00008586       0.00000022 </v>
    <v>       0.33163028       0.66452920      -0.00008511 </v>
    <v>       0.66692378       0.33532621       0.00007426 </v>
    <v>       0.10841808       0.22462505       0.95192842 </v>
    <v>       0.22286086       0.11055910       0.04950996 </v>
    <v>       0.10986797       0.55135394       0.95189218 </v>
    <v>       0.21818792       0.44324736       0.04812226 </v>
    <v>       0.11225821       0.88930617       0.95049601 </v>
    <v>       0.22340208       0.77840936       0.04923820 </v>
    <v>       0.44495596       0.22144327       0.95076146 </v>
    <v>       0.55731254       0.10910005       0.04781065 </v>
    <v>       0.44839386       0.55835768       0.95208005 </v>
    <v>       0.55836649       0.44845932       0.04812410 </v>
    <v>       0.44784092       0.89049938       0.95212749 </v>
    <v>       0.55889113       0.77904742       0.04684037 </v>
    <v>       0.77950304       0.22056255       0.95310580 </v>
    <v>       0.88660852       0.11320097       0.04688757 </v>
    <v>       0.77474727       0.55674061       0.95193209 </v>
    <v>       0.89001630       0.44127274       0.04784661 </v>
    <v>       0.77322955       0.88677418       0.95317136 </v>
    <v>       0.88400985       0.77536929       0.04812171 </v>
   </varray>
  </structure>
  <varray name="forces" >
   <v>       0.14122096       0.12293633      -0.00627502 </v>
   <v>       0.16886876       0.10091343      -0.00088496 </v>
   <v>       0.17903908       0.05858099       0.00831398 </v>
   <v>      -0.18022744       0.36105227       0.06234638 </v>
   <v>       0.57895644       0.33054447      -0.00228535 </v>
   <v>       0.22149751      -0.33086959      -0.06302430 </v>
   <v>      -0.63808916      -0.37242976       0.00172121 </v>
   <v>      -0.06039842      -0.28083681      -0.10542392 </v>
   <v>      -0.27381504       0.07698929       0.10670055 </v>
   <v>      -0.12744183      -0.02808602      -0.59735357 </v>
   <v>       0.03126930      -0.00836187       0.86474916 </v>
   <v>       0.06149502      -0.10306154      -0.50995445 </v>
   <v>      -0.06770045      -0.09864516       0.56099728 </v>
   <v>      -0.00548177       0.02396498      -0.86533424 </v>
   <v>       0.04324668       0.05993878       0.54475811 </v>
   <v>       0.05590735       0.00054473      -0.55825667 </v>
   <v>       0.03143119      -0.01748361       0.23401763 </v>
   <v>       0.01732695       0.11300096      -0.33209920 </v>
   <v>      -0.03761494       0.11499656       0.50705099 </v>
   <v>      -0.00642252       0.05137356      -0.21224501 </v>
   <v>       0.03215403       0.04471284       0.33376162 </v>
   <v>       0.04657338       0.02117755      -0.31278580 </v>
   <v>      -0.08298086       0.00517640       0.34868842 </v>
   <v>      -0.10655066      -0.01502146      -0.57209822 </v>
   <v>       0.09086590      -0.03067174       0.34543967 </v>
   <v>      -0.02186814      -0.08260787      -0.36693430 </v>
   <v>      -0.09126134      -0.11782769       0.58641003 </v>
  </varray>
  <varray name="stress" >
   <v>     -10.16063454       0.00816319       0.03488490 </v>
   <v>       0.00816323      -9.84928521      -0.02996143 </v>
   <v>       0.03488496      -0.02996136       6.52106799 </v>
  </varray>
  <energy>
   <i name="e_fr_energy">   -189.77423626 </i>
   <i name="e_wo_entrp">   -189.65566205 </i>
   <i name="e_0_energy">     -0.23714841 </i>
  </energy>
  <time name="totalsc">  372.45  373.43</time>
 </calculation>
 <calculation>
  <scstep>
   <time name="dav">   21.57   21.62</time>
   <time name="total">   22.10   22.15</time>
   <energy>
    <i name="alphaZ">     85.81132730 </i>
    <i name="ewald">  42828.24262349 </i>
    <i name="hartreedc"> -48844.80138813 </i>
    <i name="XCdc">   -232.96750867 </i>
    <i name="pawpsdc">   4038.93099517 </i>
    <i name="pawaedc">  -3454.63872591 </i>
    <i name="eentropy">     -0.20007047 </i>
    <i name="bandstr">  -1373.15227401 </i>
    <i name="atom">   6761.44252427 </i>
    <i name="e_fr_energy">   -191.33249696 </i>
    <i name="e_wo_entrp">   -191.13242650 </i>
    <i name="e_0_energy">   -191.23246173 </i>
   </energy>
  </scstep>
  <scstep>
   <time name="dav">   32.12   32.20</time>
   <time name="total">   32.63   32.72</time>
   <energy>
    <i name="e_fr_energy">   -191.20114362 </i>
    <i name="e_wo_entrp">   -190.99406937 </i>
    <i name="e_0_energy">   -191.09760649 </i>
   </energy>
  </scstep>
  <scstep>
   <time name="dav">   29.02   29.09</time>
   <time name="total">   29.53   29.61</time>
   <energy>
    <i name="e_fr_energy">   -191.30509109 </i>
    <i name="e_wo_entrp">   -191.08689694 </i>
    <i name="e_0_energy">   -191.19599401 </i>
   </energy>
  </scstep>
  <scstep>
   <time name="dav">   29.93   30.00</time>
   <time name="total">   30.44   30.52</time>
   <energy>
    <i name="e_fr_energy">   -190.97526153 </i>
    <i name="e_wo_entrp">   -190.75217327 </i>
    <i name="e_0_energy">   -190.86371740 </i>
   </energy>
  </scstep>
  <scstep>
   <time name="dav">   27.84   27.90</time>
   <time name="total">   28.36   28.44</time>
   <energy>
    <i name="e_fr_energy">   -190.94414270 </i>
    <i name="e_wo_entrp">   -190.75049027 </i>
    <i name="e_0_energy">   -190.84731649 </i>
   </energy>
  </scstep>
  <scstep>
   <time name="dav">   29.31   29.38</time>
   <time name="total">   29.83   29.91</time>
   <energy>
    <i name="e_fr_energy">   -190.76101256 </i>
    <i name="e_wo_entrp">   -190.55493564 </i>
    <i name="e_0_energy">   -190.65797410 </i>
   </energy>
  </scstep>
  <scstep>
   <time name="dav">   27.88   27.94</time>
   <time name="total">   28.40   28.47</time>
   <energy>
    <i name="e_fr_energy">   -190.75614026 </i>
    <i name="e_wo_entrp">   -190.55015067 </i>
    <i name="e_0_energy">   -190.65314547 </i>
   </energy>
  </scstep>
  <scstep>
   <time name="dav">   25.84   25.90</time>
   <time name="total">   26.35   26.42</time>
   <energy>
    <i name="e_fr_energy">   -190.75320677 </i>
    <i name="e_wo_entrp">   -190.54681974 </i>
    <i name="e_0_energy">   -190.65001325 </i>
   </energy>
  </scstep>
  <scstep>
   <time name="dav">   29.63   29.70</time>
   <time name="total">   30.15   30.23</time>
   <energy>
    <i name="e_fr_energy">   -190.75354017 </i>
    <i name="e_wo_entrp">   -190.54726895 </i>
    <i name="e_0_energy">   -190.65040456 </i>
   </energy>
  </scstep>
  <scstep>
   <time name="dav">   25.73   25.79</time>
   <time name="total">   26.25   26.32</time>
   <energy>
    <i name="e_fr_energy">   -190.75350715 </i>
    <i name="e_wo_entrp">   -190.54731798 </i>
    <i name="e_0_energy">   -190.65041256 </i>
   </energy>
  </scstep>
  <scstep>
   <time name="dav">   26.31   26.37</time>
   <time name="total">   26.83   26.90</time>
   <energy>
    <i name="e_fr_energy">   -190.75327010 </i>
    <i name="e_wo_entrp">   -190.54705917 </i>
    <i name="e_0_energy">   -190.65016463 </i>
   </energy>
  </scstep>
  <scstep>
   <time name="dav">   18.53   18.57</time>
   <time name="total">   18.56   18.62</time>
   <energy>
    <i name="alphaZ">     85.81132730 </i>
    <i name="ewald">  42828.24262349 </i>
    <i name="hartreedc"> -48816.33413372 </i>
    <i name="XCdc">   -234.29021669 </i>
    <i name="pawpsdc">   4063.56327293 </i>
    <i name="pawaedc">  -3479.44989290 </i>
    <i name="eentropy">     -0.20632140 </i>
    <i name="bandstr">  -1399.53244321 </i>
    <i name="atom">   6761.44252427 </i>
    <i name="e_fr_energy">   -190.75325994 </i>
    <i name="e_wo_entrp">   -190.54693854 </i>
    <i name="e_0_energy">   -190.65009924 </i>
   </energy>
  </scstep>
  <structure>
   <crystal>
    <varray name="basis" >
     <v>       8.48832009       4.90029874       0.00000000 </v>
     <v>      -8.48682193       4.89771343       0.00000000 </v>
     <v>       0.00000000       0.00000000      30.00000000 </v>
    </varray>
    <i name="volume">   2494.83966373 </i>
    <varray name="rec_basis" >
     <v>       0.05889413       0.10205251       0.00000000 </v>
     <v>      -0.05892521       0.10207053       0.00000000 </v>
     <v>       0.00000000       0.00000000       0.03333333 </v>
    </varray>
   </crystal>
   <varray name="positions" >
    <v>       1.00251352       0.33332360      -0.00014659 </v>
    <v>       0.66974224      -0.00002469      -0.00000950 </v>
    <v>       0.66912537       0.66667185       0.00015195 </v>
    <v>       0.00206438       0.67181866       0.00007454 </v>
    <v>       0.00626527      -0.00008480       0.00000590 </v>
    <v>       0.33032348       0.32824554      -0.00006619 </v>
    <v>       0.32441348       0.00003873       0.00000260 </v>
    <v>       0.32961473       0.66307397      -0.00029618 </v>
    <v>       0.66631172       0.33671868       0.00028808 </v>
    <v>       0.10765273       0.22496726       0.95027343 </v>
    <v>       0.22276980       0.11051281       0.05179589 </v>
    <v>       0.10905671       0.55016042       0.95041147 </v>
    <v>       0.21700284       0.44252652       0.04970481 </v>
    <v>       0.11212720       0.88935441       0.94821162 </v>
    <v>       0.22375085       0.77853495       0.05083273 </v>
    <v>       0.44508395       0.22133859       0.94913889 </v>
    <v>       0.55747041       0.10864017       0.04869568 </v>
    <v>       0.44948953       0.55897101       0.95098317 </v>
    <v>       0.55888750       0.44965098       0.04960162 </v>
    <v>       0.44853049       0.89107767       0.95128618 </v>
    <v>       0.55969244       0.77941631       0.04791152 </v>
    <v>       0.78000949       0.22031689       0.95207483 </v>
    <v>       0.88626180       0.11361877       0.04797907 </v>
    <v>       0.77430753       0.55739329       0.95032927 </v>
    <v>       0.89051342       0.44079157       0.04896950 </v>
    <v>       0.77247766       0.88625606       0.95204278 </v>
    <v>       0.88275594       0.77490523       0.04975283 </v>
   </varray>
  </structure>
  <varray name="forces" >
   <v>       0.12055556       0.12237350       0.04309598 </v>
   <v>       0.19898664       0.11667927       0.00129874 </v>
   <v>       0.16476853       0.03839094      -0.04180587 </v>
   <v>      -0.17513482       0.39993239       0.02720683 </v>
   <v>       0.58336399       0.33297156       0.00219327 </v>
   <v>       0.25642216      -0.34836310      -0.02890246 </v>
   <v>      -0.63045706      -0.36201437      -0.00351761 </v>
   <v>      -0.06572344      -0.25884886      -0.05897192 </v>
   <v>      -0.25654838       0.05573001       0.05698592 </v>
   <v>       0.00923536      -0.05067027      -0.42782670 </v>
   <v>      -0.03946349      -0.01042167       0.69524392 </v>
   <v>      -0.03748592      -0.09020866      -0.37219047 </v>
   <v>       0.01327364      -0.06206907       0.34019100 </v>
   <v>      -0.02670221      -0.02468517      -0.69747463 </v>
   <v>      -0.01153693       0.03914095       0.36806122 </v>
   <v>       0.02636425      -0.02868808      -0.36814317 </v>
   <v>      -0.05512894      -0.06383057       0.08793671 </v>
   <v>       0.04290315      -0.01077812      -0.17637925 </v>
   <v>      -0.09912201       0.01403223       0.37299257 </v>
   <v>      -0.07909077      -0.00538602      -0.07892761 </v>
   <v>       0.01860903      -0.01504870       0.24060733 </v>
   <v>       0.00020905       0.03375101      -0.23578524 </v>
   <v>       0.06199086       0.02783382       0.25130215 </v>
   <v>      -0.03634378       0.04241580      -0.34335959 </v>
   <v>      -0.00214869       0.04295199       0.17971671 </v>
   <v>       0.06611878       0.04050109      -0.25941364 </v>
   <v>      -0.04791457       0.02430809       0.42586582 </v>
  </varray>
  <varray name="stress" >
   <v>      -5.71650619       0.07945901      -0.12542118 </v>
   <v>       0.07945901      -5.80805420       0.09540500 </v>
   <v>      -0.12542116       0.09540507       4.51778530 </v>
  </varray>
  <energy>
   <i name="e_fr_energy">   -190.75325994 </i>
   <i name="e_wo_entrp">   -190.65009924 </i>
   <i name="e_0_energy">     -0.20632140 </i>
  </energy>
  <time name="totalsc">  371.22  372.21</time>
 </calculation>
 <calculation>
  <scstep>
   <time name="dav">   21.57   21.62</time>
   <time name="total">   22.08   22.14</time>
   <energy>
    <i name="alphaZ">     90.14974904 </i>
    <i name="ewald">  44656.29258731 </i>
    <i name="hartreedc"> -50699.42176093 </i>
    <i name="XCdc">   -231.83353831 </i>
    <i name="pawpsdc">   4063.61164522 </i>
    <i name="pawaedc">  -3479.49383492 </i>
    <i name="eentropy">     -0.19322544 </i>
    <i name="bandstr">  -1352.65717463 </i>
    <i name="atom">   6761.44252427 </i>
    <i name="e_fr_energy">   -192.10302838 </i>
    <i name="e_wo_entrp">   -191.90980295 </i>
    <i name="e_0_energy">   -192.00641567 </i>
   </energy>
  </scstep>
  <scstep>
   <time name="dav">   29.33   29.40</time>
   <time name="total">   29.84   29.92</time>
   <energy>
    <i name="e_fr_energy">   -191.92322169 </i>
    <i name="e_wo_entrp">   -191.71457868 </i>
    <i name="e_0_energy">   -191.81890018 </i>
   </energy>
  </scstep>
  <scstep>
   <time name="dav">   29.98   30.05</time>
   <time name="total">   30.49   30.57</time>
   <energy>
    <i name="e_fr_energy">   -192.36740497 </i>
    <i name="e_wo_entrp">   -192.15850706 </i>
    <i name="e_0_energy">   -192.26295602 </i>
   </energy>
  </scstep>
  <scstep>
   <time name="dav">   29.92   30.00</time>
   <time name="total">   30.43   30.51</time>
   <energy>
    <i name="e_fr_energy">   -191.58887320 </i>
    <i name="e_wo_entrp">   -191.38148974 </i>
    <i name="e_0_energy">   -191.48518147 </i>
   </energy>
  </scstep>
  <scstep>
   <time name="dav">   29.76   29.84</time>
   <time name="total">   30.27   30.36</time>
   <energy>
    <i name="e_fr_energy">   -191.41327441 </i>
    <i name="e_wo_entrp">   -191.21560543 </i>
    <i name="e_0_energy">   -191.31443992 </i>
   </energy>
  </scstep>
  <scstep>
   <time name="dav">   30.46   30.53</time>
   <time name="total">   30.96   31.05</time>
   <energy>
    <i name="e_fr_energy">   -191.41567274 </i>
    <i name="e_wo_entrp">   -191.20577295 </i>
    <i name="e_0_energy">   -191.31072284 </i>
   </energy>
  </scstep>
  <scstep>
   <time name="dav">   29.85   29.92</time>
   <time name="total">   30.36   30.44</time>
   <energy>
    <i name="e_fr_energy">   -191.39538322 </i>
    <i name="e_wo_entrp">   -191.19541804 </i>
    <i name="e_0_energy">   -191.29540063 </i>
   </energy>
  </scstep>
  <scstep>
   <time name="dav">   28.74   28.81</time>
   <time name="total">   29.24   29.32</time>
   <energy>
    <i name="e_fr_energy">   -191.38583801 </i>
    <i name="e_wo_entrp">   -191.18381395 </i>
    <i name="e_0_energy">   -191.28482598 </i>
   </energy>
  </scstep>
  <scstep>
   <time name="dav">   30.01   30.08</time>
   <time name="total">   30.52   30.60</time>
   <energy>
    <i name="e_fr_energy">   -191.38654230 </i>
    <i name="e_wo_entrp">   -191.18456589 </i>
    <i name="e_0_energy">   -191.28555410 </i>
   </energy>
  </scstep>
  <scstep>
   <time name="dav">   28.27   28.34</time>
   <time name="total">   28.77   28.85</time>
   <energy>
    <i name="e_fr_energy">   -191.38650685 </i>
    <i name="e_wo_entrp">   -191.18443448 </i>
    <i name="e_0_energy">   -191.28547066 </i>
   </energy>
  </scstep>
  <scstep>
   <time name="dav">   25.76   25.82</time>
   <time name="total">   26.27   26.34</time>
   <energy>
    <i name="e_fr_energy">   -191.38608847 </i>
    <i name="e_wo_entrp">   -191.18383071 </i>
    <i name="e_0_energy">   -191.28495959 </i>
   </energy>
  </scstep>
  <scstep>
   <time name="dav">   17.50   17.55</time>
   <time name="total">   17.54   17.59</time>
   <energy>
    <i name="alphaZ">     90.14974904 </i>
    <i name="ewald">  44656.29258731 </i>
    <i name="hartreedc"> -50665.76367348 </i>
    <i name="XCdc">   -233.34931036 </i>
    <i name="pawpsdc">   4086.00808488 </i>
    <i name="pawaedc">  -3502.00140841 </i>
    <i name="eentropy">     -0.20226443 </i>
    <i name="bandstr">  -1383.96233891 </i>
    <i name="atom">   6761.44252427 </i>
    <i name="e_fr_energy">   -191.38605011 </i>
    <i name="e_wo_entrp">   -191.18378567 </i>
    <i name="e_0_energy">   -191.28491789 </i>
   </energy>
  </scstep>
  <structure>
   <crystal>
    <varray name="basis" >
     <v>       8.28643837       4.78380125       0.00000000 </v>
     <v>      -8.28005261       4.77274892       0.00000000 </v>
     <v>       0.00000000       0.00000000      30.00000000 </v>
    </varray>
    <i name="volume">   2374.77647150 </i>
    <varray name="rec_basis" >
     <v>       0.06029303       0.10459998       0.00000000 </v>
     <v>      -0.06043265       0.10468065       0.00000000 </v>
     <v>       0.00000000       0.00000000       0.03333333 </v>
    </varray>
   </crystal>
   <varray name="positions" >
    <v>       1.00493111       0.33409504       0.00002148 </v>
    <v>       0.67239108      -0.00000754      -0.00000342 </v>
    <v>       0.67073254       0.66586175      -0.00000999 </v>
    <v>       0.00581892       0.67798730       0.00020257 </v>
    <v>       0.01472292      -0.00015298       0.00001154 </v>
    <v>       0.32793382       0.32214034      -0.00020277 </v>
    <v>       0.31546727       0.00002962      -0.00001003 </v>
    <v>       0.32590173       0.66042326      -0.00054822 </v>
    <v>       0.66507763       0.33917779       0.00053404 </v>
    <v>       0.10685488       0.22451545       0.94799192 </v>
    <v>       0.22225923       0.11073732       0.05523477 </v>
    <v>       0.10731221       0.54882839       0.94836146 </v>
    <v>       0.21582592       0.44128794       0.05166683 </v>
    <v>       0.11143552       0.88916084       0.94476786 </v>
    <v>       0.22402506       0.77897055       0.05293515 </v>
    <v>       0.44490634       0.22092881       0.94702890 </v>
    <v>       0.55663513       0.10796888       0.04958652 </v>
    <v>       0.45021660       0.55872818       0.94972377 </v>
    <v>       0.55851153       0.45101959       0.05165613 </v>
    <v>       0.44851939       0.89186482       0.95043657 </v>
    <v>       0.56021863       0.77942258       0.04936052 </v>
    <v>       0.78068511       0.22042183       0.95064995 </v>
    <v>       0.88677363       0.11372104       0.04946088 </v>
    <v>       0.77445317       0.55855940       0.94835350 </v>
    <v>       0.89140773       0.44116753       0.05024571 </v>
    <v>       0.77297421       0.88607289       0.95052397 </v>
    <v>       0.88222316       0.77528386       0.05202031 </v>
   </varray>
  </structure>
  <varray name="forces" >
   <v>       0.11172851       0.05274509      -0.01899850 </v>
   <v>       0.29159449       0.16973954      -0.00396552 </v>
   <v>       0.10119323       0.06555208       0.01459321 </v>
   <v>      -0.05903305       0.17979100      -0.05493576 </v>
   <v>       0.06105147       0.03271080      -0.00201553 </v>
   <v>       0.12240809      -0.13827008       0.06117931 </v>
   <v>      -0.16938889      -0.09226851       0.00531851 </v>
   <v>      -0.10063534      -0.16667306      -0.03316877 </v>
   <v>      -0.19644808      -0.01951768       0.03745286 </v>
   <v>       0.15447521      -0.07079330      -0.07118332 </v>
   <v>      -0.04412820       0.01898952       0.32358320 </v>
   <v>      -0.11391540      -0.04864113      -0.06766734 </v>
   <v>       0.08357277      -0.01404596       0.04971347 </v>
   <v>      -0.00463002      -0.04494872      -0.32972132 </v>
   <v>      -0.05981367       0.08321231       0.08795124 </v>
   <v>       0.04188054      -0.09106267      -0.09559597 </v>
   <v>      -0.16719300      -0.15028377      -0.19847276 </v>
   <v>       0.03682158      -0.17235812       0.09016480 </v>
   <v>      -0.10426815      -0.07623867       0.06693398 </v>
   <v>      -0.21004144      -0.06933429       0.19951909 </v>
   <v>       0.01627694      -0.07872537      -0.03656190 </v>
   <v>      -0.05823793       0.05410009       0.03325841 </v>
   <v>       0.20593708       0.05668507       0.04206276 </v>
   <v>       0.02989153       0.07860619      -0.04181570 </v>
   <v>      -0.13323651       0.11690169      -0.09934548 </v>
   <v>       0.14783317       0.15194707      -0.03338861 </v>
   <v>       0.01630508       0.17218085       0.07510564 </v>
  </varray>
  <varray name="stress" >
   <v>       0.27065974       0.22901764      -0.23338183 </v>
   <v>       0.22901763       0.04848514       0.38049017 </v>
   <v>      -0.23338204       0.38049013      -0.48866982 </v>
  </varray>
  <energy>
   <i name="e_fr_energy">   -191.38605011 </i>
   <i name="e_wo_entrp">   -191.28491789 </i>
   <i name="e_0_energy">     -0.20226443 </i>
  </energy>
  <time name="totalsc">  378.42  379.42</time>
 </calculation>
 <calculation>
  <scstep>
   <time name="dav">   21.57   21.62</time>
   <time name="total">   22.08   22.13</time>
   <energy>
    <i name="alphaZ">     90.03825643 </i>
    <i name="ewald">  44587.11422581 </i>
    <i name="hartreedc"> -50596.11676643 </i>
    <i name="XCdc">   -233.50276752 </i>
    <i name="pawpsdc">   4085.91644752 </i>
    <i name="pawaedc">  -3501.90481445 </i>
    <i name="eentropy">     -0.20542964 </i>
    <i name="bandstr">  -1384.20461774 </i>
    <i name="atom">   6761.44252427 </i>
    <i name="e_fr_energy">   -191.42294174 </i>
    <i name="e_wo_entrp">   -191.21751210 </i>
    <i name="e_0_energy">   -191.32022692 </i>
   </energy>
  </scstep>
  <scstep>
   <time name="dav">   30.92   30.99</time>
   <time name="total">   31.42   31.50</time>
   <energy>
    <i name="e_fr_energy">   -191.44815263 </i>
    <i name="e_wo_entrp">   -191.23844589 </i>
    <i name="e_0_energy">   -191.34329926 </i>
   </energy>
  </scstep>
  <scstep>
   <time name="dav">   30.01   30.08</time>
   <time name="total">   30.52   30.60</time>
   <energy>
    <i name="e_fr_energy">   -191.43318086 </i>
    <i name="e_wo_entrp">   -191.22894579 </i>
    <i name="e_0_energy">   -191.33106332 </i>
   </energy>
  </scstep>
  <scstep>
   <time name="dav">   27.57   27.64</time>
   <time name="total">   28.08   28.15</time>
   <energy>
    <i name="e_fr_energy">   -191.43352194 </i>
    <i name="e_wo_entrp">   -191.22617855 </i>
    <i name="e_0_energy">   -191.32985024 </i>
   </energy>
  </scstep>
  <scstep>
   <time name="dav">   27.30   27.36</time>
   <time name="total">   27.80   27.88</time>
   <energy>
    <i name="e_fr_energy">   -191.43148490 </i>
    <i name="e_wo_entrp">   -191.22551262 </i>
    <i name="e_0_energy">   -191.32849876 </i>
   </energy>
  </scstep>
  <scstep>
   <time name="dav">   27.38   27.45</time>
   <time name="total">   27.89   27.96</time>
   <energy>
    <i name="e_fr_energy">   -191.43119507 </i>
    <i name="e_wo_entrp">   -191.22527528 </i>
    <i name="e_0_energy">   -191.32823518 </i>
   </energy>
  </scstep>
  <scstep>
   <time name="dav">   25.07   25.13</time>
   <time name="total">   25.58   25.65</time>
   <energy>
    <i name="e_fr_energy">   -191.43107312 </i>
    <i name="e_wo_entrp">   -191.22519867 </i>
    <i name="e_0_energy">   -191.32813589 </i>
   </energy>
  </scstep>
  <scstep>
   <time name="dav">   19.21   19.26</time>
   <time name="total">   19.25   19.30</time>
   <energy>
    <i name="alphaZ">     90.03825643 </i>
    <i name="ewald">  44587.11422581 </i>
    <i name="hartreedc"> -50597.88660314 </i>
    <i name="XCdc">   -233.44758791 </i>
    <i name="pawpsdc">   4082.00865437 </i>
    <i name="pawaedc">  -3497.94623048 </i>
    <i name="eentropy">     -0.20594906 </i>
    <i name="bandstr">  -1382.54835691 </i>
    <i name="atom">   6761.44252427 </i>
    <i name="e_fr_energy">   -191.43106661 </i>
    <i name="e_wo_entrp">   -191.22511756 </i>
    <i name="e_0_energy">   -191.32809209 </i>
   </energy>
  </scstep>
  <structure>
   <crystal>
    <varray name="basis" >
     <v>       8.29671206       4.79025428       0.00000000 </v>
     <v>      -8.28473251       4.76951127       0.00000000 </v>
     <v>       0.00000000       0.00000000      30.00000000 </v>
    </varray>
    <i name="volume">   2377.71711072 </i>
    <varray name="rec_basis" >
     <v>       0.06017761       0.10452967       0.00000000 </v>
     <v>      -0.06043933       0.10468081       0.00000000 </v>
     <v>       0.00000000       0.00000000       0.03333333 </v>
    </varray>
   </crystal>
   <varray name="positions" >
    <v>       1.00547225       0.33402472      -0.00001073 </v>
    <v>       0.67401790      -0.00000084      -0.00000974 </v>
    <v>       0.67131950       0.66590976       0.00001520 </v>
    <v>       0.00648132       0.67895151       0.00011433 </v>
    <v>       0.01493221      -0.00016427       0.00000832 </v>
    <v>       0.32763441       0.32119946      -0.00010459 </v>
    <v>       0.31466236       0.00005727      -0.00000152 </v>
    <v>       0.32484998       0.65992610      -0.00059646 </v>
    <v>       0.66444285       0.33960520       0.00058907 </v>
    <v>       0.10695866       0.22373141       0.94791884 </v>
    <v>       0.22223590       0.11095247       0.05568628 </v>
    <v>       0.10677832       0.54893686       0.94829045 </v>
    <v>       0.21601598       0.44100267       0.05171056 </v>
    <v>       0.11121304       0.88895610       0.94430675 </v>
    <v>       0.22426226       0.77954566       0.05303655 </v>
    <v>       0.44457952       0.22036563       0.94691567 </v>
    <v>       0.55542944       0.10771640       0.04925693 </v>
    <v>       0.44945649       0.55777574       0.94988889 </v>
    <v>       0.55784416       0.45091587       0.05172591 </v>
    <v>       0.44757603       0.89210642       0.95076715 </v>
    <v>       0.55986393       0.77898511       0.04927742 </v>
    <v>       0.78077387       0.22085556       0.95072748 </v>
    <v>       0.88763242       0.11341109       0.04950077 </v>
    <v>       0.77492409       0.55884102       0.94832238 </v>
    <v>       0.89158850       0.44211878       0.05006590 </v>
    <v>       0.77413932       0.88640580       0.95049828 </v>
    <v>       0.88312975       0.77608296       0.05209981 </v>
   </varray>
  </structure>
  <varray name="forces" >
   <v>       0.15111694       0.04523832      -0.02230333 </v>
   <v>       0.33184383       0.19773609      -0.00151288 </v>
   <v>       0.11068336       0.10263111       0.02274900 </v>
   <v>      -0.05952381       0.22012070      -0.03571010 </v>
   <v>       0.12285598       0.07101860       0.00060326 </v>
   <v>       0.15273316      -0.15703532       0.03387075 </v>
   <v>      -0.28024874      -0.15684739      -0.00487871 </v>
   <v>      -0.13949545      -0.18799611      -0.02718667 </v>
   <v>      -0.22999694      -0.04905864       0.02615120 </v>
   <v>       0.08732914      -0.02581993      -0.04821268 </v>
   <v>      -0.01916271      -0.01433534       0.18152358 </v>
   <v>      -0.07093315      -0.05161156      -0.05186914 </v>
   <v>       0.03882762      -0.02159112       0.03255920 </v>
   <v>      -0.01792144      -0.00479457      -0.17910661 </v>
   <v>      -0.03242887       0.03911315       0.05181001 </v>
   <v>       0.01639044      -0.04679496      -0.05437954 </v>
   <v>      -0.08314188      -0.09428289      -0.18887123 </v>
   <v>       0.00971588      -0.10731575       0.11978502 </v>
   <v>      -0.08400455      -0.03749121       0.05432781 </v>
   <v>      -0.12054511      -0.02554654       0.19521474 </v>
   <v>       0.01501731      -0.05512464      -0.06749768 </v>
   <v>      -0.03932867       0.04305297       0.06602931 </v>
   <v>       0.11025222       0.04509801       0.05167088 </v>
   <v>       0.00485787       0.04462134      -0.02554787 </v>
   <v>      -0.08908575       0.06009340      -0.12876339 </v>
   <v>       0.09299150       0.07600696      -0.05001290 </v>
   <v>       0.02120183       0.09091531       0.04955799 </v>
  </varray>
  <varray name="stress" >
   <v>      -0.21980165      -0.03486013      -0.09072795 </v>
   <v>      -0.03486019      -0.17932595       0.12007389 </v>
   <v>      -0.09072788       0.12007373      -1.16735446 </v>
  </varray>
  <energy>
   <i name="e_fr_energy">   -191.43106661 </i>
   <i name="e_wo_entrp">   -191.32809209 </i>
   <i name="e_0_energy">     -0.20594906 </i>
  </energy>
  <time name="totalsc">  254.40  255.07</time>
 </calculation>
 <calculation>
  <scstep>
   <time name="dav">   21.56   21.61</time>
   <time name="total">   22.07   22.13</time>
   <energy>
    <i name="alphaZ">     90.21570725 </i>
    <i name="ewald">  44662.40913998 </i>
    <i name="hartreedc"> -50675.26031367 </i>
    <i name="XCdc">   -233.34805081 </i>
    <i name="pawpsdc">   4081.90093033 </i>
    <i name="pawaedc">  -3497.83706756 </i>
    <i name="eentropy">     -0.20735593 </i>
    <i name="bandstr">  -1380.79279507 </i>
    <i name="atom">   6761.44252427 </i>
    <i name="e_fr_energy">   -191.47728121 </i>
    <i name="e_wo_entrp">   -191.26992528 </i>
    <i name="e_0_energy">   -191.37360324 </i>
   </energy>
  </scstep>
  <scstep>
   <time name="dav">   32.09   32.17</time>
   <time name="total">   32.59   32.68</time>
   <energy>
    <i name="e_fr_energy">   -191.49639272 </i>
    <i name="e_wo_entrp">   -191.28407058 </i>
    <i name="e_0_energy">   -191.39023165 </i>
   </energy>
  </scstep>
  <scstep>
   <time name="dav">   29.22   29.29</time>
   <time name="total">   29.72   29.80</time>
   <energy>
    <i name="e_fr_energy">   -191.48914622 </i>
    <i name="e_wo_entrp">   -191.28383492 </i>
    <i name="e_0_energy">   -191.38649057 </i>
   </energy>
  </scstep>
  <scstep>
   <time name="dav">   29.06   29.13</time>
   <time name="total">   29.56   29.64</time>
   <energy>
    <i name="e_fr_energy">   -191.48507842 </i>
    <i name="e_wo_entrp">   -191.27633918 </i>
    <i name="e_0_energy">   -191.38070880 </i>
   </energy>
  </scstep>
  <scstep>
   <time name="dav">   27.34   27.41</time>
   <time name="total">   27.85   27.93</time>
   <energy>
    <i name="e_fr_energy">   -191.48360926 </i>
    <i name="e_wo_entrp">   -191.27510891 </i>
    <i name="e_0_energy">   -191.37935909 </i>
   </energy>
  </scstep>
  <scstep>
   <time name="dav">   27.64   27.71</time>
   <time name="total">   28.15   28.22</time>
   <energy>
    <i name="e_fr_energy">   -191.48238849 </i>
    <i name="e_wo_entrp">   -191.27393826 </i>
    <i name="e_0_energy">   -191.37816338 </i>
   </energy>
  </scstep>
  <scstep>
   <time name="dav">   26.71   26.78</time>
   <time name="total">   27.22   27.29</time>
   <energy>
    <i name="e_fr_energy">   -191.48254064 </i>
    <i name="e_wo_entrp">   -191.27403571 </i>
    <i name="e_0_energy">   -191.37828818 </i>
   </energy>
  </scstep>
  <scstep>
   <time name="dav">   22.35   22.40</time>
   <time name="total">   22.85   22.91</time>
   <energy>
    <i name="e_fr_energy">   -191.48223575 </i>
    <i name="e_wo_entrp">   -191.27351314 </i>
    <i name="e_0_energy">   -191.37787444 </i>
   </energy>
  </scstep>
  <scstep>
   <time name="dav">   16.82   16.86</time>
   <time name="total">   16.86   16.91</time>
   <energy>
    <i name="alphaZ">     90.21570725 </i>
    <i name="ewald">  44662.40913998 </i>
    <i name="hartreedc"> -50674.33967032 </i>
    <i name="XCdc">   -233.38645827 </i>
[...]
      <set comment="kpoint 31">
       <r>  -17.5060    1.0000 </r>
       <r>  -17.3105    1.0000 </r>
       <r>  -16.8959    1.0000 </r>
       <r>  -16.6646    1.0000 </r>
       <r>  -16.5074    1.0000 </r>
       <r>  -16.4287    1.0000 </r>
       <r>  -16.3340    1.0000 </r>
       <r>  -16.2286    1.0000 </r>
       <r>  -16.0913    1.0000 </r>
       <r>  -16.0684    1.0000 </r>
       <r>  -15.8971    1.0000 </r>
       <r>  -15.8153    1.0000 </r>
       <r>  -15.7599    1.0000 </r>
       <r>  -15.6623    1.0000 </r>
       <r>  -15.5961    1.0000 </r>
       <r>  -15.5112    1.0000 </r>
       <r>  -15.4300    1.0000 </r>
       <r>  -15.2932    1.0000 </r>
       <r>   -9.7780    1.0000 </r>
       <r>   -9.4321    1.0000 </r>
       <r>   -9.3133    1.0000 </r>
       <r>   -8.9574    1.0000 </r>
       <r>   -8.8690    1.0000 </r>
       <r>   -8.7532    1.0000 </r>
       <r>   -8.6290    1.0000 </r>
       <r>   -8.5183    1.0000 </r>
       <r>   -8.3873    1.0000 </r>
       <r>   -8.3078    1.0000 </r>
       <r>   -8.2367    1.0000 </r>
       <r>   -8.1661    1.0000 </r>
       <r>   -8.1217    1.0000 </r>
       <r>   -8.0671    1.0000 </r>
       <r>   -7.9701    1.0000 </r>
       <r>   -7.8800    1.0000 </r>
       <r>   -7.7789    1.0000 </r>
       <r>   -7.7125    1.0000 </r>
       <r>   -7.5941    1.0000 </r>
       <r>   -7.4466    1.0000 </r>
       <r>   -7.3975    1.0000 </r>
       <r>   -7.2791    1.0000 </r>
       <r>   -7.1736    1.0000 </r>
       <r>   -7.0890    1.0000 </r>
       <r>   -6.9785    1.0000 </r>
       <r>   -6.9431    1.0000 </r>
       <r>   -6.8088    1.0000 </r>
       <r>   -6.7084    1.0000 </r>
       <r>   -6.6620    1.0000 </r>
       <r>   -6.5991    1.0000 </r>
       <r>   -6.5561    1.0000 </r>
       <r>   -6.5335    1.0000 </r>
       <r>   -6.4545    1.0000 </r>
       <r>   -6.3645    1.0000 </r>
       <r>   -6.2432    1.0000 </r>
       <r>   -6.1998    1.0000 </r>
       <r>   -6.1200    1.0000 </r>
       <r>   -6.0635    1.0000 </r>
       <r>   -5.9576    1.0000 </r>
       <r>   -5.9066    1.0000 </r>
       <r>   -5.8714    1.0000 </r>
       <r>   -5.7687    1.0000 </r>
       <r>   -5.6984    1.0000 </r>
       <r>   -5.6719    1.0000 </r>
       <r>   -5.5438    1.0000 </r>
       <r>   -5.3829    1.0000 </r>
       <r>   -5.2942    1.0000 </r>
       <r>   -5.1535    1.0000 </r>
       <r>   -5.0520    1.0000 </r>
       <r>   -4.9036    1.0000 </r>
       <r>   -4.7302    1.0000 </r>
       <r>   -4.6900    1.0000 </r>
       <r>   -4.5948    1.0000 </r>
       <r>   -4.4216    1.0000 </r>
       <r>   -4.3657    1.0000 </r>
       <r>   -4.2260    1.0000 </r>
       <r>   -4.1496    1.0000 </r>
       <r>   -3.9532    1.0000 </r>
       <r>   -3.8603    0.9998 </r>
       <r>   -3.7406    0.9972 </r>
       <r>   -3.5799    0.9484 </r>
       <r>   -3.3037    0.3733 </r>
       <r>   -2.9332    0.0016 </r>
       <r>   -2.8545    0.0002 </r>
       <r>   -2.6597    0.0000 </r>
       <r>   -2.5939    0.0000 </r>
       <r>   -2.4782    0.0000 </r>
       <r>   -2.3430    0.0000 </r>
       <r>   -2.2846    0.0000 </r>
       <r>   -2.0987    0.0000 </r>
       <r>   -2.0389    0.0000 </r>
       <r>   -1.8858    0.0000 </r>
       <r>   -1.8169    0.0000 </r>
       <r>   -1.5761    0.0000 </r>
       <r>   -1.4014    0.0000 </r>
       <r>   -1.2905    0.0000 </r>
       <r>   -1.2194    0.0000 </r>
       <r>   -1.1742    0.0000 </r>
       <r>   -1.0789    0.0000 </r>
       <r>   -1.0175    0.0000 </r>
       <r>   -0.8764    0.0000 </r>
       <r>   -0.8503    0.0000 </r>
       <r>   -0.7965    0.0000 </r>
       <r>   -0.7308    0.0000 </r>
       <r>   -0.6872    0.0000 </r>
       <r>   -0.5549    0.0000 </r>
       <r>   -0.4704    0.0000 </r>
       <r>   -0.4421    0.0000 </r>
       <r>   -0.2960    0.0000 </r>
       <r>   -0.1447    0.0000 </r>
       <r>   -0.0065    0.0000 </r>
       <r>    0.1839    0.0000 </r>
       <r>    0.4912    0.0000 </r>
       <r>    0.6333    0.0000 </r>
       <r>    0.8091    0.0000 </r>
       <r>    0.8952    0.0000 </r>
       <r>    1.0511    0.0000 </r>
       <r>    1.2167    0.0000 </r>
       <r>    1.4201    0.0000 </r>
       <r>    2.1356    0.0000 </r>
       <r>    2.2845    0.0000 </r>
       <r>    2.3864    0.0000 </r>
      </set>
      <set comment="kpoint 32">
       <r>  -17.5214    1.0000 </r>
       <r>  -17.2543    1.0000 </r>
       <r>  -16.9890    1.0000 </r>
       <r>  -16.6652    1.0000 </r>
       <r>  -16.4488    1.0000 </r>
       <r>  -16.3745    1.0000 </r>
       <r>  -16.3206    1.0000 </r>
       <r>  -16.2447    1.0000 </r>
       <r>  -16.1335    1.0000 </r>
       <r>  -16.0547    1.0000 </r>
       <r>  -15.9334    1.0000 </r>
       <r>  -15.8316    1.0000 </r>
       <r>  -15.7582    1.0000 </r>
       <r>  -15.6710    1.0000 </r>
       <r>  -15.5882    1.0000 </r>
       <r>  -15.4922    1.0000 </r>
       <r>  -15.4381    1.0000 </r>
       <r>  -15.2810    1.0000 </r>
       <r>   -9.7485    1.0000 </r>
       <r>   -9.5217    1.0000 </r>
       <r>   -9.3520    1.0000 </r>
       <r>   -8.9566    1.0000 </r>
       <r>   -8.7314    1.0000 </r>
       <r>   -8.6736    1.0000 </r>
       <r>   -8.5946    1.0000 </r>
       <r>   -8.4340    1.0000 </r>
       <r>   -8.3898    1.0000 </r>
       <r>   -8.3433    1.0000 </r>
       <r>   -8.2840    1.0000 </r>
       <r>   -8.2046    1.0000 </r>
       <r>   -8.1431    1.0000 </r>
       <r>   -8.0990    1.0000 </r>
       <r>   -8.0502    1.0000 </r>
       <r>   -7.9686    1.0000 </r>
       <r>   -7.7701    1.0000 </r>
       <r>   -7.6929    1.0000 </r>
       <r>   -7.5391    1.0000 </r>
       <r>   -7.4470    1.0000 </r>
       <r>   -7.3612    1.0000 </r>
       <r>   -7.2501    1.0000 </r>
       <r>   -7.1998    1.0000 </r>
       <r>   -7.1052    1.0000 </r>
       <r>   -6.9838    1.0000 </r>
       <r>   -6.8967    1.0000 </r>
       <r>   -6.8061    1.0000 </r>
       <r>   -6.7812    1.0000 </r>
       <r>   -6.6778    1.0000 </r>
       <r>   -6.6241    1.0000 </r>
       <r>   -6.5551    1.0000 </r>
       <r>   -6.4891    1.0000 </r>
       <r>   -6.4487    1.0000 </r>
       <r>   -6.4090    1.0000 </r>
       <r>   -6.3102    1.0000 </r>
       <r>   -6.1979    1.0000 </r>
       <r>   -6.1185    1.0000 </r>
       <r>   -6.0281    1.0000 </r>
       <r>   -5.9695    1.0000 </r>
       <r>   -5.9048    1.0000 </r>
       <r>   -5.8457    1.0000 </r>
       <r>   -5.7483    1.0000 </r>
       <r>   -5.6662    1.0000 </r>
       <r>   -5.6010    1.0000 </r>
       <r>   -5.4882    1.0000 </r>
       <r>   -5.4263    1.0000 </r>
       <r>   -5.2943    1.0000 </r>
       <r>   -5.1017    1.0000 </r>
       <r>   -5.0129    1.0000 </r>
       <r>   -4.9064    1.0000 </r>
       <r>   -4.8762    1.0000 </r>
       <r>   -4.7267    1.0000 </r>
       <r>   -4.6055    1.0000 </r>
       <r>   -4.4535    1.0000 </r>
       <r>   -4.3355    1.0000 </r>
       <r>   -4.2272    1.0000 </r>
       <r>   -4.1291    1.0000 </r>
       <r>   -3.9376    1.0000 </r>
       <r>   -3.8492    0.9998 </r>
       <r>   -3.6972    0.9930 </r>
       <r>   -3.5735    0.9435 </r>
       <r>   -3.3547    0.5149 </r>
       <r>   -2.8976    0.0007 </r>
       <r>   -2.8393    0.0002 </r>
       <r>   -2.6513    0.0000 </r>
       <r>   -2.5949    0.0000 </r>
       <r>   -2.4535    0.0000 </r>
       <r>   -2.3460    0.0000 </r>
       <r>   -2.3125    0.0000 </r>
       <r>   -2.0985    0.0000 </r>
       <r>   -2.0759    0.0000 </r>
       <r>   -1.9111    0.0000 </r>
       <r>   -1.8204    0.0000 </r>
       <r>   -1.5365    0.0000 </r>
       <r>   -1.3950    0.0000 </r>
       <r>   -1.2869    0.0000 </r>
       <r>   -1.2247    0.0000 </r>
       <r>   -1.1910    0.0000 </r>
       <r>   -1.1055    0.0000 </r>
       <r>   -0.9865    0.0000 </r>
       <r>   -0.9232    0.0000 </r>
       <r>   -0.8742    0.0000 </r>
       <r>   -0.8321    0.0000 </r>
       <r>   -0.7553    0.0000 </r>
       <r>   -0.6409    0.0000 </r>
       <r>   -0.5578    0.0000 </r>
       <r>   -0.4605    0.0000 </r>
       <r>   -0.4090    0.0000 </r>
       <r>   -0.2590    0.0000 </r>
       <r>   -0.1165    0.0000 </r>
       <r>   -0.0297    0.0000 </r>
       <r>    0.0901    0.0000 </r>
       <r>    0.4661    0.0000 </r>
       <r>    0.6481    0.0000 </r>
       <r>    0.8048    0.0000 </r>
       <r>    0.8755    0.0000 </r>
       <r>    1.1154    0.0000 </r>
       <r>    1.2139    0.0000 </r>
       <r>    1.4500    0.0000 </r>
       <r>    2.1052    0.0000 </r>
       <r>    2.2530    0.0000 </r>
       <r>    2.5622    0.0000 </r>
      </set>
      <set comment="kpoint 33">
       <r>  -17.5023    1.0000 </r>
       <r>  -17.3173    1.0000 </r>
       <r>  -16.8952    1.0000 </r>
       <r>  -16.6659    1.0000 </r>
       <r>  -16.5022    1.0000 </r>
       <r>  -16.4368    1.0000 </r>
       <r>  -16.3121    1.0000 </r>
       <r>  -16.2471    1.0000 </r>
       <r>  -16.1050    1.0000 </r>
       <r>  -15.9986    1.0000 </r>
       <r>  -15.9187    1.0000 </r>
       <r>  -15.8510    1.0000 </r>
       <r>  -15.7563    1.0000 </r>
       <r>  -15.6799    1.0000 </r>
       <r>  -15.5927    1.0000 </r>
       <r>  -15.5048    1.0000 </r>
       <r>  -15.4457    1.0000 </r>
       <r>  -15.2695    1.0000 </r>
       <r>   -9.7942    1.0000 </r>
       <r>   -9.4711    1.0000 </r>
       <r>   -9.2688    1.0000 </r>
       <r>   -8.9788    1.0000 </r>
       <r>   -8.7919    1.0000 </r>
       <r>   -8.7236    1.0000 </r>
       <r>   -8.5737    1.0000 </r>
       <r>   -8.5303    1.0000 </r>
       <r>   -8.3929    1.0000 </r>
       <r>   -8.3324    1.0000 </r>
       <r>   -8.2464    1.0000 </r>
       <r>   -8.1934    1.0000 </r>
       <r>   -8.1533    1.0000 </r>
       <r>   -8.0795    1.0000 </r>
       <r>   -8.0389    1.0000 </r>
       <r>   -7.9082    1.0000 </r>
       <r>   -7.7832    1.0000 </r>
       <r>   -7.6981    1.0000 </r>
       <r>   -7.5105    1.0000 </r>
       <r>   -7.4298    1.0000 </r>
       <r>   -7.3721    1.0000 </r>
       <r>   -7.1977    1.0000 </r>
       <r>   -7.1577    1.0000 </r>
       <r>   -7.0832    1.0000 </r>
       <r>   -6.9899    1.0000 </r>
       <r>   -6.9395    1.0000 </r>
       <r>   -6.8589    1.0000 </r>
       <r>   -6.7882    1.0000 </r>
       <r>   -6.7194    1.0000 </r>
       <r>   -6.6308    1.0000 </r>
       <r>   -6.5461    1.0000 </r>
       <r>   -6.4950    1.0000 </r>
       <r>   -6.4115    1.0000 </r>
       <r>   -6.4021    1.0000 </r>
       <r>   -6.3409    1.0000 </r>
       <r>   -6.1884    1.0000 </r>
       <r>   -6.1573    1.0000 </r>
       <r>   -6.0373    1.0000 </r>
       <r>   -5.9848    1.0000 </r>
       <r>   -5.8996    1.0000 </r>
       <r>   -5.8523    1.0000 </r>
       <r>   -5.7938    1.0000 </r>
       <r>   -5.7310    1.0000 </r>
       <r>   -5.6290    1.0000 </r>
       <r>   -5.4760    1.0000 </r>
       <r>   -5.3237    1.0000 </r>
       <r>   -5.2465    1.0000 </r>
       <r>   -5.1236    1.0000 </r>
       <r>   -5.0839    1.0000 </r>
       <r>   -4.8768    1.0000 </r>
       <r>   -4.7784    1.0000 </r>
       <r>   -4.6752    1.0000 </r>
       <r>   -4.5795    1.0000 </r>
       <r>   -4.4730    1.0000 </r>
       <r>   -4.3573    1.0000 </r>
       <r>   -4.2382    1.0000 </r>
       <r>   -4.1291    1.0000 </r>
       <r>   -3.9491    1.0000 </r>
       <r>   -3.8293    0.9997 </r>
       <r>   -3.7023    0.9937 </r>
       <r>   -3.5564    0.9283 </r>
       <r>   -3.4141    0.6763 </r>
       <r>   -2.8532    0.0002 </r>
       <r>   -2.8244    0.0001 </r>
       <r>   -2.6736    0.0000 </r>
       <r>   -2.5821    0.0000 </r>
       <r>   -2.4417    0.0000 </r>
       <r>   -2.3934    0.0000 </r>
       <r>   -2.3169    0.0000 </r>
       <r>   -2.1274    0.0000 </r>
       <r>   -2.0603    0.0000 </r>
       <r>   -1.9156    0.0000 </r>
       <r>   -1.7633    0.0000 </r>
       <r>   -1.5110    0.0000 </r>
       <r>   -1.3870    0.0000 </r>
       <r>   -1.2793    0.0000 </r>
       <r>   -1.2597    0.0000 </r>
       <r>   -1.1868    0.0000 </r>
       <r>   -1.1390    0.0000 </r>
       <r>   -1.0430    0.0000 </r>
       <r>   -0.9478    0.0000 </r>
       <r>   -0.8688    0.0000 </r>
       <r>   -0.8571    0.0000 </r>
       <r>   -0.7410    0.0000 </r>
       <r>   -0.6289    0.0000 </r>
       <r>   -0.5666    0.0000 </r>
       <r>   -0.4716    0.0000 </r>
       <r>   -0.3581    0.0000 </r>
       <r>   -0.2610    0.0000 </r>
       <r>   -0.1105    0.0000 </r>
       <r>   -0.0513    0.0000 </r>
       <r>    0.0068    0.0000 </r>
       <r>    0.4544    0.0000 </r>
       <r>    0.6690    0.0000 </r>
       <r>    0.7640    0.0000 </r>
       <r>    0.9351    0.0000 </r>
       <r>    1.1354    0.0000 </r>
       <r>    1.2583    0.0000 </r>
       <r>    1.4953    0.0000 </r>
       <r>    2.1344    0.0000 </r>
       <r>    2.2873    0.0000 </r>
       <r>    2.3944    0.0000 </r>
      </set>
      <set comment="kpoint 34">
       <r>  -17.4723    1.0000 </r>
       <r>  -17.3771    1.0000 </r>
       <r>  -16.7640    1.0000 </r>
       <r>  -16.6660    1.0000 </r>
       <r>  -16.6391    1.0000 </r>
       <r>  -16.4465    1.0000 </r>
       <r>  -16.3098    1.0000 </r>
       <r>  -16.2431    1.0000 </r>
       <r>  -16.0944    1.0000 </r>
       <r>  -15.9754    1.0000 </r>
       <r>  -15.8718    1.0000 </r>
       <r>  -15.8652    1.0000 </r>
       <r>  -15.7532    1.0000 </r>
       <r>  -15.6929    1.0000 </r>
       <r>  -15.5986    1.0000 </r>
       <r>  -15.5181    1.0000 </r>
       <r>  -15.4490    1.0000 </r>
       <r>  -15.2649    1.0000 </r>
       <r>   -9.8237    1.0000 </r>
       <r>   -9.4132    1.0000 </r>
       <r>   -9.1655    1.0000 </r>
       <r>   -9.0304    1.0000 </r>
       <r>   -8.8418    1.0000 </r>
       <r>   -8.8221    1.0000 </r>
       <r>   -8.6085    1.0000 </r>
       <r>   -8.5422    1.0000 </r>
       <r>   -8.3897    1.0000 </r>
       <r>   -8.3106    1.0000 </r>
       <r>   -8.2347    1.0000 </r>
       <r>   -8.1779    1.0000 </r>
       <r>   -8.1595    1.0000 </r>
       <r>   -8.0642    1.0000 </r>
       <r>   -8.0136    1.0000 </r>
       <r>   -7.8289    1.0000 </r>
       <r>   -7.8261    1.0000 </r>
       <r>   -7.6896    1.0000 </r>
       <r>   -7.4983    1.0000 </r>
       <r>   -7.3941    1.0000 </r>
       <r>   -7.3551    1.0000 </r>
       <r>   -7.2653    1.0000 </r>
       <r>   -7.1044    1.0000 </r>
       <r>   -7.0864    1.0000 </r>
       <r>   -6.9612    1.0000 </r>
       <r>   -6.9351    1.0000 </r>
       <r>   -6.9073    1.0000 </r>
       <r>   -6.7713    1.0000 </r>
       <r>   -6.7143    1.0000 </r>
       <r>   -6.6587    1.0000 </r>
       <r>   -6.5496    1.0000 </r>
       <r>   -6.5269    1.0000 </r>
       <r>   -6.4195    1.0000 </r>
       <r>   -6.3915    1.0000 </r>
       <r>   -6.3368    1.0000 </r>
       <r>   -6.2071    1.0000 </r>
       <r>   -6.1094    1.0000 </r>
       <r>   -6.0512    1.0000 </r>
       <r>   -6.0143    1.0000 </r>
       <r>   -5.9267    1.0000 </r>
       <r>   -5.8636    1.0000 </r>
       <r>   -5.7947    1.0000 </r>
       <r>   -5.7811    1.0000 </r>
       <r>   -5.6273    1.0000 </r>
       <r>   -5.4442    1.0000 </r>
       <r>   -5.3733    1.0000 </r>
       <r>   -5.2624    1.0000 </r>
       <r>   -5.0843    1.0000 </r>
       <r>   -5.0572    1.0000 </r>
       <r>   -4.8849    1.0000 </r>
       <r>   -4.7149    1.0000 </r>
       <r>   -4.6381    1.0000 </r>
       <r>   -4.5342    1.0000 </r>
       <r>   -4.4449    1.0000 </r>
       <r>   -4.4056    1.0000 </r>
       <r>   -4.2486    1.0000 </r>
       <r>   -4.1470    1.0000 </r>
       <r>   -3.9624    1.0000 </r>
       <r>   -3.8204    0.9996 </r>
       <r>   -3.7160    0.9952 </r>
       <r>   -3.5452    0.9169 </r>
       <r>   -3.4377    0.7337 </r>
       <r>   -2.8608    0.0003 </r>
       <r>   -2.7752    0.0000 </r>
       <r>   -2.7111    0.0000 </r>
       <r>   -2.5671    0.0000 </r>
       <r>   -2.4591    0.0000 </r>
       <r>   -2.4010    0.0000 </r>
       <r>   -2.3244    0.0000 </r>
       <r>   -2.1280    0.0000 </r>
       <r>   -2.0552    0.0000 </r>
       <r>   -1.9110    0.0000 </r>
       <r>   -1.7154    0.0000 </r>
       <r>   -1.5060    0.0000 </r>
       <r>   -1.3911    0.0000 </r>
       <r>   -1.3051    0.0000 </r>
       <r>   -1.2475    0.0000 </r>
       <r>   -1.1855    0.0000 </r>
       <r>   -1.1532    0.0000 </r>
       <r>   -1.0639    0.0000 </r>
       <r>   -0.9751    0.0000 </r>
       <r>   -0.8843    0.0000 </r>
       <r>   -0.8306    0.0000 </r>
       <r>   -0.7208    0.0000 </r>
       <r>   -0.6631    0.0000 </r>
       <r>   -0.5704    0.0000 </r>
       <r>   -0.4666    0.0000 </r>
       <r>   -0.3624    0.0000 </r>
       <r>   -0.2348    0.0000 </r>
       <r>   -0.1133    0.0000 </r>
       <r>   -0.0680    0.0000 </r>
       <r>   -0.0259    0.0000 </r>
       <r>    0.4452    0.0000 </r>
       <r>    0.6953    0.0000 </r>
       <r>    0.7411    0.0000 </r>
       <r>    0.9684    0.0000 </r>
       <r>    1.1349    0.0000 </r>
       <r>    1.2866    0.0000 </r>
       <r>    1.5193    0.0000 </r>
       <r>    2.2034    0.0000 </r>
       <r>    2.2611    0.0000 </r>
       <r>    2.3682    0.0000 </r>
      </set>
     </set>
    </set>
   </array>
  </eigenvalues>
  <separator name="orbital magnetization" >
   <v name="MAGDIPOLOUT">      0.00000000      0.00000000      0.00000000</v>
  </separator>
 </calculation>
 <structure name="finalpos" >
  <crystal>
   <varray name="basis" >
    <v>       8.33989612       4.84943333       0.00000000 </v>
    <v>      -8.32960182       4.83113770       0.00000000 </v>
    <v>       0.00000000       0.00000000      30.00000000 </v>
   </varray>
   <i name="volume">   2420.55105747 </i>
   <varray name="rec_basis" >
    <v>       0.05987650       0.10323602       0.00000000 </v>
    <v>      -0.06010326       0.10336361       0.00000000 </v>
    <v>       0.00000000       0.00000000       0.03333333 </v>
   </varray>
  </crystal>
  <varray name="positions" >
   <v>       1.02002378       0.32592317      -0.00029589 </v>
   <v>       0.70665707       0.01486621      -0.00263575 </v>
   <v>       0.62715746       0.64504221       0.00227294 </v>
   <v>       0.03676651       0.69954807      -0.00256455 </v>
   <v>       0.02600041       0.01303327      -0.00071218 </v>
   <v>       0.32911722       0.32708511       0.00038863 </v>
   <v>       0.31538651       0.01088924      -0.00002039 </v>
   <v>       0.31167856       0.63888715       0.00085264 </v>
   <v>       0.62788677       0.32038647       0.00161685 </v>
   <v>       0.10907391       0.22342346       0.94519346 </v>
   <v>       0.22376467       0.11442829       0.05701931 </v>
   <v>       0.10655814       0.54702953       0.94709941 </v>
   <v>       0.21372223       0.43815229       0.05510915 </v>
   <v>       0.11841254       0.89728634       0.94185832 </v>
   <v>       0.23158362       0.78597788       0.05298071 </v>
   <v>       0.43696341       0.22045083       0.94424143 </v>
   <v>       0.55700539       0.10449593       0.04890116 </v>
   <v>       0.43977481       0.55381261       0.94764423 </v>
   <v>       0.54885835       0.44594144       0.05514901 </v>
   <v>       0.45286518       0.89282185       0.95906592 </v>
   <v>       0.55703197       0.78083452       0.04882413 </v>
   <v>       0.78293915       0.22737012       0.95300621 </v>
   <v>       0.89794651       0.11706357       0.05130813 </v>
   <v>       0.77431277       0.55851393       0.95566782 </v>
   <v>       0.88745878       0.44461699       0.04081242 </v>
   <v>       0.77759063       0.87769314       0.95226859 </v>
   <v>       0.88167812       0.77264084       0.04494820 </v>
  </varray>
 </structure>
</modeling>
