unknown system                          
           1
     8.857042    5.105760    0.000000
    -8.855940    5.103865    0.000000
     0.000000    0.000000   30.000000
   V    Mo   W    S 
   3   3   3  18
Direct configuration=     1
   1.00000000  0.33333334  0.00000000
   0.66666669  0.00000000  0.00000000
   0.66666669  0.66666669  0.00000000
   0.00000000  0.66666669  0.00000000
   0.00000000  0.00000000  0.00000000
   0.33333334  0.33333334  0.00000000
   0.33333334  0.00000000  0.00000000
   0.33333334  0.66666669  0.00000000
   0.66666669  0.33333334  0.00000000
   0.11068511  0.22244981  0.95539999
   0.22244981  0.11068511  0.04460000
   0.11068511  0.55578315  0.95539999
   0.22244981  0.44401845  0.04460000
   0.11068511  0.88911647  0.95539999
   0.22244981  0.77735180  0.04460000
   0.44401845  0.22244981  0.95539999
   0.55578315  0.11068511  0.04460000
   0.44401845  0.55578315  0.95539999
   0.55578315  0.44401845  0.04460000
   0.44401845  0.88911647  0.95539999
   0.55578315  0.77735180  0.04460000
   0.77735180  0.22244981  0.95539999
   0.88911647  0.11068511  0.04460000
   0.77735180  0.55578315  0.95539999
   0.88911647  0.44401845  0.04460000
   0.77735180  0.88911647  0.95539999
   0.88911647  0.77735180  0.04460000
unknown system                          
           1
     8.668593    4.999542    0.000000
    -8.667540    4.997730    0.000000
     0.000000    0.000000   30.000000
   V    Mo   W    S 
   3   3   3  18
Direct configuration=     2
   1.00088285  0.33295396 -0.00013645
   0.66821089 -0.00005031 -0.00000776
   0.66786611  0.66706430  0.00013628
  -0.00001746  0.66811212 -0.00008977
   0.00093115 -0.00005176  0.00001212
   0.33191140  0.33190051  0.00010057
   0.33028208  0.00008015 -0.00000154
   0.33212647  0.66499331 -0.00002101
   0.66698704  0.33488494  0.00000952
   0.10849962  0.22458855  0.95198466
   0.22274349  0.11068236  0.04935506
   0.10972041  0.55136517  0.95189482
   0.21819975  0.44311354  0.04808836
   0.11204908  0.88917995  0.95065307
   0.22313950  0.77828888  0.04924392
   0.44485005  0.22155846  0.95076327
   0.55741436  0.10900058  0.04794688
   0.44840805  0.55816601  0.95199310
   0.55816982  0.44845758  0.04812499
   0.44802355  0.89056430  0.95197811
   0.55905746  0.77914121  0.04690687
   0.77956111  0.22043149  0.95302533
   0.88662593  0.11317050  0.04693862
   0.77489986  0.55690578  0.95197405
   0.89022182  0.44143635  0.04792498
   0.77328299  0.88683665  0.95313104
   0.88416706  0.77543986  0.04807081
unknown system                          
           1
     8.488320    4.900299    0.000000
    -8.486822    4.897713    0.000000
     0.000000    0.000000   30.000000
   V    Mo   W    S 
   3   3   3  18
Direct configuration=     3
   1.00119493  0.33293949 -0.00015287
   0.66861620 -0.00003995 -0.00000945
   0.66817758  0.66706854  0.00015352
   0.00031441  0.66883083 -0.00005507
   0.00187921 -0.00004439  0.00001126
   0.33153441  0.33119023  0.00006684
   0.32907310  0.00008586  0.00000022
   0.33163028  0.66452920 -0.00008511
   0.66692378  0.33532621  0.00007426
   0.10841808  0.22462505  0.95192842
   0.22286086  0.11055910  0.04950996
   0.10986797  0.55135394  0.95189218
   0.21818792  0.44324736  0.04812226
   0.11225821  0.88930617  0.95049601
   0.22340208  0.77840936  0.04923820
   0.44495596  0.22144327  0.95076146
   0.55731254  0.10910005  0.04781065
   0.44839386  0.55835768  0.95208005
   0.55836649  0.44845932  0.04812410
   0.44784092  0.89049938  0.95212749
   0.55889113  0.77904742  0.04684037
   0.77950304  0.22056255  0.95310580
   0.88660852  0.11320097  0.04688757
   0.77474727  0.55674061  0.95193209
   0.89001630  0.44127274  0.04784661
   0.77322955  0.88677418  0.95317136
   0.88400985  0.77536929  0.04812171
unknown system                          
           1
     8.286438    4.783801    0.000000
    -8.280053    4.772749    0.000000
     0.000000    0.000000   30.000000
   V    Mo   W    S 
   3   3   3  18
Direct configuration=     4
   1.00251352  0.33332360 -0.00014659
   0.66974224 -0.00002469 -0.00000950
   0.66912537  0.66667185  0.00015195
   0.00206438  0.67181866  0.00007454
   0.00626527 -0.00008480  0.00000590
   0.33032348  0.32824554 -0.00006619
   0.32441348  0.00003873  0.00000260
   0.32961473  0.66307397 -0.00029618
   0.66631172  0.33671868  0.00028808
   0.10765273  0.22496726  0.95027343
   0.22276980  0.11051281  0.05179589
   0.10905671  0.55016042  0.95041147
   0.21700284  0.44252652  0.04970481
   0.11212720  0.88935441  0.94821162
   0.22375085  0.77853495  0.05083273
   0.44508395  0.22133859  0.94913889
   0.55747041  0.10864017  0.04869568
   0.44948953  0.55897101  0.95098317
   0.55888750  0.44965098  0.04960162
   0.44853049  0.89107767  0.95128618
   0.55969244  0.77941631  0.04791152
   0.78000949  0.22031689  0.95207483
   0.88626180  0.11361877  0.04797907
   0.77430753  0.55739329  0.95032927
   0.89051342  0.44079157  0.04896950
   0.77247766  0.88625606  0.95204278
   0.88275594  0.77490523  0.04975283
unknown system                          
           1
     8.296712    4.790254    0.000000
    -8.284733    4.769511    0.000000
     0.000000    0.000000   30.000000
   V    Mo   W    S 
   3   3   3  18
Direct configuration=     5
   1.00493111  0.33409504  0.00002148
   0.67239108 -0.00000754 -0.00000342
   0.67073254  0.66586175 -0.00000999
   0.00581892  0.67798730  0.00020257
   0.01472292 -0.00015298  0.00001154
   0.32793382  0.32214034 -0.00020277
   0.31546727  0.00002962 -0.00001003
   0.32590173  0.66042326 -0.00054822
   0.66507763  0.33917779  0.00053404
   0.10685488  0.22451545  0.94799192
   0.22225923  0.11073732  0.05523477
   0.10731221  0.54882839  0.94836146
   0.21582592  0.44128794  0.05166683
   0.11143552  0.88916084  0.94476786
   0.22402506  0.77897055  0.05293515
   0.44490634  0.22092881  0.94702890
   0.55663513  0.10796888  0.04958652
   0.45021660  0.55872818  0.94972377
   0.55851153  0.45101959  0.05165613
   0.44851939  0.89186482  0.95043657
   0.56021863  0.77942258  0.04936052
   0.78068511  0.22042183  0.95064995
   0.88677363  0.11372104  0.04946088
   0.77445317  0.55855940  0.94835350
   0.89140773  0.44116753  0.05024571
   0.77297421  0.88607289  0.95052397
   0.88222316  0.77528386  0.05202031
unknown system                          
           1
     8.287891    4.785191    0.000000
    -8.276554    4.765561    0.000000
     0.000000    0.000000   30.000000
   V    Mo   W    S 
   3   3   3  18
Direct configuration=     6
   1.00547225  0.33402472 -0.00001073
   0.67401790 -0.00000084 -0.00000974
   0.67131950  0.66590976  0.00001520
   0.00648132  0.67895151  0.00011433
   0.01493221 -0.00016427  0.00000832
   0.32763441  0.32119946 -0.00010459
   0.31466236  0.00005727 -0.00000152
   0.32484998  0.65992610 -0.00059646
   0.66444285  0.33960520  0.00058907
   0.10695866  0.22373141  0.94791884
   0.22223590  0.11095247  0.05568628
   0.10677832  0.54893686  0.94829045
   0.21601598  0.44100267  0.05171056
   0.11121304  0.88895610  0.94430675
   0.22426226  0.77954566  0.05303655
   0.44457952  0.22036563  0.94691567
   0.55542944  0.10771640  0.04925693
   0.44945649  0.55777574  0.94988889
   0.55784416  0.45091587  0.05172591
   0.44757603  0.89210642  0.95076715
   0.55986393  0.77898511  0.04927742
   0.78077387  0.22085556  0.95072748
   0.88763242  0.11341109  0.04950077
   0.77492409  0.55884102  0.94832238
   0.89158850  0.44211878  0.05006590
   0.77413932  0.88640580  0.95049828
   0.88312975  0.77608296  0.05209981
unknown system                          
           1
     8.295174    4.789538    0.000000
    -8.283094    4.768621    0.000000
     0.000000    0.000000   30.000000
   V    Mo   W    S 
   3   3   3  18
Direct configuration=     7
   1.00633992  0.33379929 -0.00004921
   0.67643857  0.00003583 -0.00001267
   0.67236440  0.66611400  0.00005438
   0.00770620  0.68066046  0.00004754
   0.01601257 -0.00016662  0.00000940
   0.32715054  0.31954779 -0.00004104
   0.31251225  0.00008674 -0.00001054
   0.32312611  0.65920029 -0.00065678
   0.66331528  0.34018376  0.00064764
   0.10707966  0.22323992  0.94775093
   0.22207019  0.11095103  0.05615458
   0.10615675  0.54883298  0.94812246
   0.21598680  0.44068965  0.05183954
   0.11109111  0.88897212  0.94384245
   0.22439828  0.77992117  0.05320862
   0.44434051  0.22000069  0.94673792
   0.55452456  0.10740948  0.04892430
   0.44885675  0.55706656  0.95007438
   0.55730314  0.45102313  0.05189857
   0.44698780  0.89240331  0.95111291
   0.55960109  0.77859720  0.04919733
   0.78092122  0.22125820  0.95080533
   0.88831692  0.11329451  0.04964944
   0.77522534  0.55913910  0.94820666
   0.89168070  0.44282397  0.04986352
   0.77495664  0.88654299  0.95035224
   0.88375116  0.77658692  0.05227002
unknown system                          
           1
     8.299925    4.792503    0.000000
    -8.286668    4.769544    0.000000
     0.000000    0.000000   30.000000
   V    Mo   W    S 
   3   3   3  18
Direct configuration=     8
   1.00679162  0.33355216 -0.00006967
   0.67787308  0.00006074 -0.00001546
   0.67303127  0.66634967  0.00007608
   0.00816557  0.68123187  0.00001040
   0.01595804 -0.00016850  0.00001064
   0.32704639  0.31902090 -0.00000064
   0.31194615  0.00011207 -0.00000999
   0.32219052  0.65891808 -0.00069008
   0.66256777  0.34037363  0.00068353
   0.10718220  0.22307301  0.94774221
   0.22197011  0.11093296  0.05626219
   0.10585885  0.54876531  0.94810562
   0.21599194  0.44061309  0.05182886
   0.11102177  0.88899713  0.94373256
   0.22446500  0.78010853  0.05322180
   0.44421720  0.21982274  0.94671606
   0.55420021  0.10725296  0.04867860
   0.44857079  0.55680426  0.95026840
   0.55706700  0.45108920  0.05191502
   0.44681646  0.89254748  0.95136658
   0.55948669  0.77843966  0.04907314
   0.78096798  0.22142256  0.95092693
   0.88861675  0.11332856  0.04970086
   0.77531046  0.55920931  0.94822818
   0.89164794  0.44308350  0.04965711
   0.77522454  0.88651642  0.95030553
   0.88402817  0.77675716  0.05227544
unknown system                          
           1
     8.298563    4.791496    0.000000
    -8.285585    4.769024    0.000000
     0.000000    0.000000   30.000000
   V    Mo   W    S 
   3   3   3  18
Direct configuration=     9
   1.00746628  0.33317002 -0.00009007
   0.67978886  0.00010359 -0.00002025
   0.67403199  0.66671769  0.00009750
   0.00880376  0.68203794 -0.00003153
   0.01590865 -0.00017003  0.00001125
   0.32688378  0.31828582  0.00004420
   0.31116039  0.00014971 -0.00001027
   0.32086926  0.65857019 -0.00073722
   0.66144740  0.34056897  0.00073299
   0.10730250  0.22292432  0.94766977
   0.22181710  0.11090174  0.05645213
   0.10543425  0.54861392  0.94803060
   0.21596616  0.44053055  0.05186533
   0.11091521  0.88903990  0.94354109
   0.22453842  0.78032696  0.05329439
   0.44406451  0.21961959  0.94663061
   0.55390250  0.10702761  0.04839461
   0.44829924  0.55658403  0.95049613
   0.55678904  0.45123629  0.05199153
   0.44674146  0.89275782  0.95166514
   0.55939160  0.77829655  0.04894192
   0.78102560  0.22157899  0.95105601
   0.88895225  0.11344101  0.04982988
   0.77537333  0.55927982  0.94820739
   0.89158318  0.44330302  0.04941149
   0.77545361  0.88641098  0.95018178
   0.88430410  0.77690747  0.05234349
unknown system                          
           1
     8.292908    4.787211    0.000000
    -8.280186    4.765186    0.000000
     0.000000    0.000000   30.000000
   V    Mo   W    S 
   3   3   3  18
Direct configuration=    10
   1.00671829  0.33357900 -0.00007415
   0.67814879  0.00004515 -0.00001440
   0.67294688  0.66631605  0.00008017
   0.00830322  0.68137864  0.00000833
   0.01610872 -0.00017754  0.00001013
   0.32705013  0.31886489  0.00000291
   0.31173092  0.00010759 -0.00000695
   0.32212868  0.65882118 -0.00070776
   0.66262119  0.34050928  0.00070181
   0.10718102  0.22299426  0.94773302
   0.22197249  0.11095264  0.05633917
   0.10582375  0.54878372  0.94809301
   0.21598616  0.44055949  0.05184035
   0.11100040  0.88897514  0.94365353
   0.22450792  0.78017352  0.05323050
   0.44419904  0.21975886  0.94670726
   0.55405447  0.10722948  0.04862552
   0.44848201  0.55665906  0.95026894
   0.55701602  0.45107889  0.05192568
   0.44669650  0.89257257  0.95141556
   0.55946354  0.77840848  0.04907284
   0.78096875  0.22144825  0.95092538
   0.88864428  0.11326990  0.04969149
   0.77535328  0.55926717  0.94821500
   0.89170265  0.44323525  0.04966168
   0.77530703  0.88657089  0.95031641
   0.88409836  0.77683264  0.05228447
unknown system                          
           1
     8.298291    4.790343    0.000000
    -8.283681    4.765046    0.000000
     0.000000    0.000000   30.000000
   V    Mo   W    S 
   3   3   3  18
Direct configuration=    11
   1.00454165  0.33515831 -0.00005510
   0.67421190 -0.00017121  0.00000917
   0.66947568  0.66476937  0.00005376
   0.00713173  0.67995781  0.00008891
   0.01752068 -0.00018910  0.00000515
   0.32730253  0.31996797 -0.00008776
   0.31235735 -0.00006107 -0.00000234
   0.32537421  0.65885347 -0.00064686
   0.66645226  0.34117402  0.00062804
   0.10682384  0.22305382  0.94798512
   0.22236575  0.11109153  0.05614819
   0.10681237  0.54922165  0.94827031
   0.21590553  0.44043671  0.05172027
   0.11120529  0.88878509  0.94384709
   0.22458548  0.77989082  0.05301150
   0.44461321  0.21998434  0.94697562
   0.55406815  0.10776825  0.04910205
   0.44877743  0.55646780  0.94962197
   0.55758735  0.45069785  0.05174718
   0.44619543  0.89210266  0.95086984
   0.55952544  0.77849600  0.04944525
   0.78088755  0.22129636  0.95056090
   0.88805675  0.11275224  0.04926347
   0.77537621  0.55945868  0.94825925
   0.89223053  0.44345197  0.05039439
   0.77520980  0.88704811  0.95072575
   0.88362037  0.77675104  0.05205880
unknown system                          
           1
     8.298763    4.790715    0.000000
    -8.282190    4.762018    0.000000
     0.000000    0.000000   30.000000
   V    Mo   W    S 
   3   3   3  18
Direct configuration=    12
   1.00339647  0.33581728 -0.00005224
   0.67311224 -0.00034662  0.00001982
   0.66784606  0.66410198  0.00004673
   0.00667532  0.67947921  0.00011660
   0.01831967 -0.00020383  0.00000566
   0.32739508  0.32025172 -0.00011293
   0.31218587 -0.00014731  0.00000599
   0.32670411  0.65861448 -0.00062741
   0.66834169  0.34187395  0.00060903
   0.10668803  0.22298452  0.94807498
   0.22253908  0.11122979  0.05624093
   0.10705605  0.54938210  0.94826688
   0.21580267  0.44029797  0.05169941
   0.11120054  0.88860920  0.94374893
   0.22475164  0.77984443  0.05291649
   0.44487054  0.22000101  0.94709447
   0.55399334  0.10797684  0.04909548
   0.44870365  0.55615423  0.94939708
   0.55769512  0.45057931  0.05174310
   0.44594744  0.89194852  0.95083318
   0.55948233  0.77847540  0.04954277
   0.78081764  0.22127968  0.95046957
   0.88796654  0.11253004  0.04908646
   0.77539646  0.55964708  0.94823560
   0.89248359  0.44378387  0.05066875
   0.77531579  0.88723913  0.95089576
   0.88352750  0.77681048  0.05197882
unknown system                          
           1
     8.301714    4.792533    0.000000
    -8.285214    4.763963    0.000000
     0.000000    0.000000   30.000000
   V    Mo   W    S 
   3   3   3  18
Direct configuration=    13
   1.00321545  0.33596608 -0.00007990
   0.67443184 -0.00039451  0.00002456
   0.66764370  0.66402234  0.00007485
   0.00686152  0.67984161  0.00005561
   0.01895400 -0.00013044  0.00000127
   0.32709845  0.31968013 -0.00005707
   0.31094710 -0.00020899  0.00000343
   0.32618432  0.65779222 -0.00065205
   0.66886980  0.34283082  0.00063363
   0.10671871  0.22285504  0.94812402
   0.22252885  0.11128991  0.05642551
   0.10683766  0.54932172  0.94822977
   0.21560506  0.44013705  0.05168257
   0.11110947  0.88852043  0.94357167
   0.22494651  0.77996351  0.05285904
   0.44499608  0.21986114  0.94716735
   0.55378767  0.10794400  0.04870983
   0.44835566  0.55574035  0.94949032
   0.55752189  0.45062726  0.05179559
   0.44582417  0.89202798  0.95119673
   0.55931451  0.77830914  0.04944871
   0.78082735  0.22145451  0.95058406
   0.88832087  0.11259147  0.04907765
   0.77539669  0.55983343  0.94820586
   0.89256567  0.44417214  0.05058938
   0.77563196  0.88720366  0.95088462
   0.88371948  0.77696245  0.05195287
unknown system                          
           1
     8.306047    4.795116    0.000000
    -8.289465    4.766403    0.000000
     0.000000    0.000000   30.000000
   V    Mo   W    S 
   3   3   3  18
Direct configuration=    14
   1.00348823  0.33578099 -0.00008807
   0.67506920 -0.00037297  0.00002298
   0.66808091  0.66420933  0.00008467
   0.00701234  0.68002578  0.00004550
   0.01875480 -0.00013514  0.00000240
   0.32706124  0.31952710 -0.00004564
   0.31084440 -0.00019139  0.00000311
   0.32571410  0.65772782 -0.00066465
   0.66840879  0.34283083  0.00064738
   0.10676388  0.22284624  0.94809044
   0.22246516  0.11126282  0.05646284
   0.10669958  0.54925683  0.94820097
   0.21559348  0.44012795  0.05170696
   0.11107618  0.88855146  0.94353382
   0.22493332  0.78000765  0.05288884
   0.44493196  0.21982244  0.94713410
   0.55375158  0.10785407  0.04863491
   0.44831197  0.55573679  0.94956808
   0.55744639  0.45068370  0.05182020
   0.44587434  0.89210862  0.95127891
   0.55930564  0.77828444  0.04940633
   0.78085095  0.22148700  0.95062323
   0.88841877  0.11266670  0.04914505
   0.77539459  0.55983285  0.94819156
   0.89252254  0.44417261  0.05050568
   0.77565793  0.88713527  0.95081935
   0.88378218  0.77697467  0.05198094
unknown system                          
           1
     8.307096    4.795776    0.000000
    -8.290221    4.766555    0.000000
     0.000000    0.000000   30.000000
   V    Mo   W    S 
   3   3   3  18
Direct configuration=    15
   1.00382994  0.33557290 -0.00013728
   0.67730811 -0.00043963  0.00002662
   0.66869805  0.66442882  0.00013432
   0.00733896  0.68051951 -0.00001265
   0.01869329 -0.00014010  0.00000278
   0.32690328  0.31896261  0.00001087
   0.30988412 -0.00021016  0.00000309
   0.32448532  0.65698286 -0.00071454
   0.66800541  0.34371279  0.00069567
   0.10687384  0.22278385  0.94806375
   0.22230445  0.11119370  0.05661547
   0.10635514  0.54912555  0.94812992
   0.21541999  0.43999202  0.05175493
   0.11097094  0.88860357  0.94338436
   0.22497885  0.78014876  0.05289294
   0.44485529  0.21967411  0.94713895
   0.55352392  0.10763565  0.04823121
   0.44806232  0.55549694  0.94975913
   0.55723356  0.45082433  0.05187727
   0.44588532  0.89233909  0.95167270
   0.55920488  0.77811934  0.04927949
   0.78090740  0.22165251  0.95074764
   0.88881518  0.11286528  0.04930127
   0.77534871  0.55997595  0.94814215
   0.89250768  0.44441034  0.05033610
   0.77585807  0.88693725  0.95066267
   0.88396243  0.77704661  0.05200107
unknown system                          
           1
     8.308179    4.796779    0.000000
    -8.290046    4.765377    0.000000
     0.000000    0.000000   30.000000
   V    Mo   W    S 
   3   3   3  18
Direct configuration=    16
   1.00358329  0.33574575 -0.00012200
   0.67651798 -0.00041206  0.00002689
   0.66829002  0.66428114  0.00012117
   0.00719622  0.68031360  0.00000457
   0.01884736 -0.00012363  0.00000246
   0.32691586  0.31914140 -0.00000643
   0.31011097 -0.00021677  0.00000240
   0.32498285  0.65712435 -0.00069938
   0.66840053  0.34354343  0.00068137
   0.10681382  0.22279134  0.94808270
   0.22238103  0.11123845  0.05659450
   0.10648316  0.54916970  0.94815023
   0.21543458  0.43999992  0.05174135
   0.11100017  0.88855789  0.94340570
   0.22499696  0.78010598  0.05288207
   0.44491712  0.21971428  0.94715255
   0.55356721  0.10772175  0.04834946
   0.44811438  0.55550528  0.94966834
   0.55731247  0.45076258  0.05186080
   0.44584398  0.89225562  0.95155459
   0.55922332  0.77816073  0.04933461
   0.78089834  0.22161632  0.95069526
   0.88870820  0.11278646  0.04922845
   0.77536724  0.55996432  0.94814792
   0.89256320  0.44439333  0.05042323
   0.77583703  0.88702992  0.95073011
   0.88390714  0.77704337  0.05198698
unknown system                          
           1
     8.312462    4.799070    0.000000
    -8.293080    4.765504    0.000000
     0.000000    0.000000   30.000000
   V    Mo   W    S 
   3   3   3  18
Direct configuration=    17
   1.00312990  0.33626880 -0.00013124
   0.67629948 -0.00037986  0.00003166
   0.66745576  0.66389383  0.00013567
   0.00693753  0.68012489 -0.00000291
   0.01941098 -0.00006033 -0.00000084
   0.32664258  0.31911795 -0.00000577
   0.30970922 -0.00025209  0.00000173
   0.32532139  0.65653434 -0.00070004
   0.66959275  0.34418976  0.00068158
   0.10670425  0.22277781  0.94818663
   0.22247595  0.11127968  0.05659986
   0.10660366  0.54916270  0.94819246
   0.21528304  0.43987738  0.05170322
   0.11102001  0.88848572  0.94340559
   0.22508709  0.78009852  0.05278271
   0.44503370  0.21970274  0.94727877
   0.55346680  0.10783345  0.04830623
   0.44809035  0.55531155  0.94957321
   0.55742833  0.45072260  0.05179868
   0.44566102  0.89215863  0.95158586
   0.55914942  0.77806051  0.04936852
   0.78096097  0.22172677  0.95065651
   0.88881528  0.11279819  0.04910777
   0.77535970  0.56007857  0.94816664
   0.89276518  0.44456084  0.05054930
   0.77595057  0.88706597  0.95083991
   0.88385955  0.77707554  0.05188820
unknown system                          
           1
     8.310258    4.797792    0.000000
    -8.290963    4.764379    0.000000
     0.000000    0.000000   30.000000
   V    Mo   W    S 
   3   3   3  18
Direct configuration=    18
   1.00304269  0.33630088 -0.00018660
   0.67808907 -0.00050120  0.00004288
   0.66751773  0.66391502  0.00018844
   0.00694841  0.68029090 -0.00002791
   0.01941181 -0.00009449 -0.00000205
   0.32646522  0.31880546  0.00001708
   0.30891771 -0.00031507  0.00000554
   0.32467554  0.65574168 -0.00073795
   0.66998270  0.34527703  0.00071902
   0.10676077  0.22271080  0.94818088
   0.22235370  0.11123895  0.05674563
   0.10638686  0.54911895  0.94810415
   0.21509382  0.43971346  0.05178157
   0.11091093  0.88848834  0.94326289
   0.22513378  0.78015895  0.05272868
   0.44505332  0.21962361  0.94735451
   0.55331660  0.10773938  0.04791237
   0.44787210  0.55501869  0.94965220
   0.55726518  0.45079465  0.05185416
   0.44562511  0.89226969  0.95195541
   0.55902224  0.77790642  0.04928622
   0.78097828  0.22187690  0.95072716
   0.88913320  0.11294033  0.04923337
   0.77531976  0.56027128  0.94807956
   0.89284143  0.44486409  0.05052288
   0.77611552  0.88691589  0.95071626
   0.88398100  0.77714389  0.05188356
unknown system                          
           1
     8.301539    4.792182    0.000000
    -8.283468    4.760893    0.000000
     0.000000    0.000000   30.000000
   V    Mo   W    S 
   3   3   3  18
Direct configuration=    19
   1.00313669  0.33620220 -0.00016027
   0.67717888 -0.00047808  0.00003482
   0.66758147  0.66391131  0.00016301
   0.00702388  0.68032137 -0.00000297
   0.01938582 -0.00013357  0.00000125
   0.32665616  0.31893052 -0.00000278
   0.30933388 -0.00027815  0.00000276
   0.32497603  0.65627625 -0.00072117
   0.66954138  0.34465335  0.00070269
   0.10676396  0.22272606  0.94816377
   0.22241355  0.11126795  0.05669648
   0.10645754  0.54914603  0.94812891
   0.21523067  0.43980976  0.05175977
   0.11096136  0.88848175  0.94331174
   0.22511375  0.78015994  0.05276395
   0.44501819  0.21963634  0.94729986
   0.55336192  0.10777571  0.04810648
   0.44797393  0.55516540  0.94963888
   0.55733087  0.45078405  0.05183871
   0.44561917  0.89222230  0.95177657
   0.55908654  0.77797134  0.04931472
   0.78096201  0.22180963  0.95069662
   0.88898651  0.11285276  0.04918700
   0.77534482  0.56016213  0.94812375
   0.89277896  0.44473705  0.05050937
   0.77604626  0.88698197  0.95077484
   0.88395027  0.77711910  0.05189117
unknown system                          
           1
     8.310150    4.797399    0.000000
    -8.291817    4.765655    0.000000
     0.000000    0.000000   30.000000
   V    Mo   W    S 
   3   3   3  18
Direct configuration=    20
   1.00343869  0.33598546 -0.00012698
   0.67655536 -0.00051302  0.00002384
   0.66786445  0.66389588  0.00012064
   0.00728468  0.68051165 -0.00001059
   0.01933455 -0.00018110  0.00000491
   0.32705015  0.31899374  0.00000972
   0.30962821 -0.00022756  0.00000847
   0.32492351  0.65677653 -0.00071021
   0.66862013  0.34407771  0.00068936
   0.10685710  0.22272902  0.94812723
   0.22246482  0.11130865  0.05668643
   0.10645160  0.54920632  0.94813259
   0.21540250  0.43990120  0.05174084
   0.11099186  0.88846378  0.94331146
   0.22510318  0.78019571  0.05282707
   0.44497621  0.21962027  0.94719934
   0.55335137  0.10776520  0.04824557
   0.44802859  0.55528852  0.94968001
   0.55729662  0.45080262  0.05187597
   0.44561073  0.89224180  0.95164262
   0.55912700  0.77799157  0.04932773
   0.78091800  0.22176348  0.95069829
   0.88890118  0.11277194  0.04918634
   0.77538765  0.56009234  0.94815449
   0.89266278  0.44466579  0.05043190
   0.77602248  0.88699139  0.95079050
   0.88396104  0.77709556  0.05193234
unknown system                          
           1
     8.318198    4.802070    0.000000
    -8.299693    4.770028    0.000000
     0.000000    0.000000   30.000000
   V    Mo   W    S 
   3   3   3  18
Direct configuration=    21
   1.00325791  0.33614146 -0.00020271
   0.67912515 -0.00054768  0.00004622
   0.66790126  0.66406503  0.00019764
   0.00706668  0.68042919 -0.00006758
   0.01923882 -0.00007304 -0.00000404
   0.32645271  0.31864155  0.00005357
   0.30859861 -0.00032391  0.00001196
   0.32407479  0.65544160 -0.00075507
   0.66969633  0.34561918  0.00073416
   0.10683694  0.22270459  0.94816379
   0.22226550  0.11119881  0.05678698
   0.10624777  0.54909753  0.94807521
   0.21504138  0.43967623  0.05179679
   0.11085672  0.88852092  0.94321522
   0.22512042  0.78018119  0.05274274
   0.44502955  0.21959913  0.94734039
   0.55328625  0.10764166  0.04773759
   0.44777803  0.55496130  0.94973418
   0.55713308  0.45084034  0.05189887
   0.44570041  0.89238192  0.95211695
   0.55898624  0.77786163  0.04923749
   0.78096642  0.22190809  0.95078889
   0.88925967  0.11302995  0.04932765
   0.77530468  0.56033512  0.94804460
   0.89279661  0.44492382  0.05044728
   0.77615330  0.88681033  0.95061466
   0.88403922  0.77714853  0.05191646
unknown system                          
           1
     8.318127    4.801862    0.000000
    -8.300086    4.770625    0.000000
     0.000000    0.000000   30.000000
   V    Mo   W    S 
   3   3   3  18
Direct configuration=    22
   1.00320562  0.33602768 -0.00030110
   0.68269295 -0.00065184  0.00007468
   0.66848399  0.66451079  0.00030099
   0.00686548  0.68044913 -0.00013308
   0.01878108 -0.00005324 -0.00001436
   0.32581912  0.31813781  0.00010788
   0.30734604 -0.00048573  0.00000947
   0.32269430  0.65392608 -0.00081313
   0.67058436  0.34754668  0.00079268
   0.10687399  0.22272035  0.94817395
   0.22197103  0.11103910  0.05691435
   0.10586763  0.54893840  0.94797812
   0.21463584  0.43941710  0.05189252
   0.11067561  0.88861724  0.94310435
   0.22506769  0.78018028  0.05266507
   0.44502271  0.21956130  0.94748926
   0.55326553  0.10741608  0.04706535
   0.44748086  0.55462230  0.94986530
   0.55687748  0.45094809  0.05194081
   0.44594989  0.89265611  0.95274001
   0.55886778  0.77775526  0.04909505
   0.78098032  0.22201922  0.95092793
   0.88970487  0.11340359  0.04958511
   0.77520814  0.56062146  0.94789486
   0.89289843  0.44522623  0.05040448
   0.77624518  0.88651172  0.95032245
   0.88414854  0.77715326  0.05191690
unknown system                          
           1
     8.316796    4.801134    0.000000
    -8.298588    4.769606    0.000000
     0.000000    0.000000   30.000000
   V    Mo   W    S 
   3   3   3  18
Direct configuration=    23
   1.00342231  0.33590655 -0.00033292
   0.68392824 -0.00073816  0.00008807
   0.66908349  0.66472922  0.00032603
   0.00673582  0.68048865 -0.00016466
   0.01847370 -0.00007393 -0.00001829
   0.32554478  0.31790766  0.00012918
   0.30696722 -0.00055561  0.00002003
   0.32197551  0.65338202 -0.00083920
   0.67072363  0.34832798  0.00081691
   0.10691569  0.22274795  0.94816068
   0.22182106  0.11094269  0.05694051
   0.10566245  0.54886219  0.94793605
   0.21451384  0.43934268  0.05193359
   0.11058713  0.88866464  0.94307297
   0.22500932  0.78017860  0.05265355
   0.44499609  0.21955287  0.94753260
   0.55332433  0.10735020  0.04680343
   0.44738987  0.55456564  0.94995956
   0.55676046  0.45103817  0.05196176
   0.44609953  0.89275620  0.95296992
   0.55882557  0.77772360  0.04903403
   0.78094515  0.22203774  0.95098726
   0.88995984  0.11359550  0.04973527
   0.77517852  0.56072845  0.94782716
   0.89289402  0.44530586  0.05035929
   0.77629636  0.88632792  0.95016171
   0.88418050  0.77711916  0.05194541
unknown system                          
           1
     8.321348    4.803633    0.000000
    -8.304432    4.774345    0.000000
     0.000000    0.000000   30.000000
   V    Mo   W    S 
   3   3   3  18
Direct configuration=    24
   1.00335906  0.33595623 -0.00034110
   0.68416326 -0.00072804  0.00008912
   0.66899676  0.66470399  0.00033488
   0.00673522  0.68049267 -0.00016886
   0.01851473 -0.00007038 -0.00001871
   0.32549874  0.31786649  0.00013192
   0.30684440 -0.00056194  0.00002196
   0.32192868  0.65324924 -0.00084442
   0.67085982  0.34847268  0.00082202
   0.10691231  0.22274446  0.94817226
   0.22180539  0.11093407  0.05694427
   0.10566016  0.54886276  0.94793723
   0.21447804  0.43932096  0.05193343
   0.11057075  0.88866396  0.94307029
   0.22501530  0.78018124  0.05263645
   0.44500493  0.21955194  0.94755303
   0.55330549  0.10733824  0.04675541
   0.44736559  0.55452669  0.94995733
   0.55675455  0.45102593  0.05195619
   0.44609498  0.89276929  0.95301645