   27   27  100    1
  0.9710400E+02  0.1002848E-08  0.1002848E-08  0.3000000E-08  0.5000000E-15
  1.000000000000000E-004
  CAR 
 unknown system                          
    159     34    120
 
  0.0000000E+00  0.0000000E+00  0.0000000E+00  0.1562500E-01
    1      -17.825359   1.000000
    2      -16.764362   1.000000
    3      -16.638724   1.000000
    4      -16.619914   1.000000
    5      -16.582318   1.000000
    6      -16.487933   1.000000
    7      -16.418149   1.000000
    8      -16.237858   1.000000
    9      -16.133767   1.000000
   10      -16.119614   1.000000
   11      -16.096077   1.000000
   12      -15.950660   1.000000
   13      -15.880115   1.000000
   14      -15.774122   1.000000
   15      -15.606670   1.000000
   16      -15.396776   1.000000
   17      -15.391058   1.000000
   18      -15.179055   1.000000
   19       -9.350986   1.000000
   20       -9.026786   1.000000
   21       -8.972791   1.000000
   22       -8.918566   1.000000
   23       -8.746806   1.000000
   24       -8.668021   1.000000
   25       -8.600376   1.000000
   26       -8.587510   1.000000
   27       -8.531788   1.000000
   28       -8.504714   1.000000
   29       -8.464655   1.000000
   30       -8.441800   1.000000
   31       -8.337703   1.000000
   32       -8.125389   1.000000
   33       -8.076944   1.000000
   34       -7.998916   1.000000
   35       -7.806127   1.000000
   36       -7.757373   1.000000
   37       -7.691662   1.000000
   38       -7.588308   1.000000
   39       -7.491540   1.000000
   40       -7.406156   1.000000
   41       -7.354499   1.000000
   42       -7.216806   1.000000
   43       -7.085859   1.000000
   44       -6.879406   1.000000
   45       -6.812215   1.000000
   46       -6.790259   1.000000
   47       -6.774033   1.000000
   48       -6.646265   1.000000
   49       -6.535707   1.000000
   50       -6.496762   1.000000
   51       -6.416068   1.000000
   52       -6.348793   1.000000
   53       -6.308246   1.000000
   54       -6.250310   1.000000
   55       -6.215676   1.000000
   56       -6.161844   1.000000
   57       -6.052484   1.000000
   58       -5.976340   1.000000
   59       -5.846258   1.000000
   60       -5.531028   1.000000
   61       -5.403306   1.000000
   62       -5.315469   1.000000
   63       -5.262195   1.000000
   64       -5.222241   1.000000
   65       -5.091717   1.000000
   66       -4.999041   1.000000
   67       -4.970750   1.000000
   68       -4.845933   1.000000
   69       -4.828294   1.000000
   70       -4.696734   1.000000
   71       -4.661200   1.000000
   72       -4.625618   1.000000
   73       -4.540550   1.000000
   74       -4.370429   1.000000
   75       -4.078184   1.000000
   76       -3.991717   0.999998
   77       -3.844292   0.999807
   78       -3.573286   0.948814
   79       -3.495305   0.860386
   80       -3.457181   0.791740
   81       -3.208920   0.172842
   82       -2.961003   0.003509
   83       -2.837164   0.000177
   84       -2.704736   0.000003
   85       -2.559731   0.000000
   86       -2.410698   0.000000
   87       -2.389704   0.000000
   88       -2.311170   0.000000
   89       -2.228067   0.000000
   90       -2.168951   0.000000
   91       -1.702055   0.000000
   92       -1.513423   0.000000
   93       -1.456832   0.000000
   94       -1.266218   0.000000
   95       -1.137424   0.000000
   96       -1.054670   0.000000
   97       -0.959381   0.000000
   98       -0.898994   0.000000
   99       -0.709760   0.000000
  100       -0.670726   0.000000
  101       -0.578552   0.000000
  102       -0.523939   0.000000
  103       -0.508260   0.000000
  104       -0.343680   0.000000
  105       -0.225839   0.000000
  106       -0.172494   0.000000
  107       -0.103750   0.000000
  108       -0.028280   0.000000
  109        0.025942   0.000000
  110        0.217441   0.000000
  111        0.339226   0.000000
  112        0.642332   0.000000
  113        0.770836   0.000000
  114        0.852122   0.000000
  115        0.910978   0.000000
  116        0.959448   0.000000
  117        1.272102   0.000000
  118        1.645751   0.000000
  119        1.835006   0.000000
  120        2.155160   0.000000
 
  0.1250000E+00  0.2775558E-16  0.0000000E+00  0.3125000E-01
    1      -17.800661   1.000000
    2      -16.786570   1.000000
    3      -16.751286   1.000000
    4      -16.661563   1.000000
    5      -16.557808   1.000000
    6      -16.435908   1.000000
    7      -16.385910   1.000000
    8      -16.293299   1.000000
    9      -16.158648   1.000000
   10      -16.093020   1.000000
   11      -16.001191   1.000000
   12      -15.934145   1.000000
   13      -15.860561   1.000000
   14      -15.761134   1.000000
   15      -15.613497   1.000000
   16      -15.411672   1.000000
   17      -15.397501   1.000000
   18      -15.186488   1.000000
   19       -9.344590   1.000000
   20       -9.164666   1.000000
   21       -9.078575   1.000000
   22       -9.026196   1.000000
   23       -8.751804   1.000000
   24       -8.715165   1.000000
   25       -8.635825   1.000000
   26       -8.577066   1.000000
   27       -8.531262   1.000000
   28       -8.465819   1.000000
   29       -8.387953   1.000000
   30       -8.340204   1.000000
   31       -8.291435   1.000000
   32       -8.030428   1.000000
   33       -7.964801   1.000000
   34       -7.913437   1.000000
   35       -7.811536   1.000000
   36       -7.783067   1.000000
   37       -7.703128   1.000000
   38       -7.523023   1.000000
   39       -7.495787   1.000000
   40       -7.391173   1.000000
   41       -7.315609   1.000000
   42       -7.267135   1.000000
   43       -7.093276   1.000000
   44       -6.946016   1.000000
   45       -6.878231   1.000000
   46       -6.792797   1.000000
   47       -6.750686   1.000000
   48       -6.665954   1.000000
   49       -6.550970   1.000000
   50       -6.491785   1.000000
   51       -6.402276   1.000000
   52       -6.362598   1.000000
   53       -6.305984   1.000000
   54       -6.251034   1.000000
   55       -6.180729   1.000000
   56       -6.128891   1.000000
   57       -6.044202   1.000000
   58       -5.940420   1.000000
   59       -5.791680   1.000000
   60       -5.528610   1.000000
   61       -5.429797   1.000000
   62       -5.373844   1.000000
   63       -5.305020   1.000000
   64       -5.227091   1.000000
   65       -5.194175   1.000000
   66       -5.022835   1.000000
   67       -4.998792   1.000000
   68       -4.906835   1.000000
   69       -4.842434   1.000000
   70       -4.674595   1.000000
   71       -4.607841   1.000000
   72       -4.557192   1.000000
   73       -4.507033   1.000000
   74       -4.330412   1.000000
   75       -4.047558   1.000000
   76       -3.921268   0.999979
   77       -3.883938   0.999936
   78       -3.734990   0.997256
   79       -3.600218   0.965916
   80       -3.341461   0.497690
   81       -3.164093   0.103840
   82       -2.974714   0.004674
   83       -2.807154   0.000077
   84       -2.698708   0.000003
   85       -2.566161   0.000000
   86       -2.424264   0.000000
   87       -2.346084   0.000000
   88       -2.290151   0.000000
   89       -2.221625   0.000000
   90       -2.129095   0.000000
   91       -1.713730   0.000000
   92       -1.517350   0.000000
   93       -1.456617   0.000000
   94       -1.254838   0.000000
   95       -1.129832   0.000000
   96       -1.060412   0.000000
   97       -0.986090   0.000000
   98       -0.899353   0.000000
   99       -0.743251   0.000000
  100       -0.705916   0.000000
  101       -0.624320   0.000000
  102       -0.574109   0.000000
  103       -0.507194   0.000000
  104       -0.421780   0.000000
  105       -0.376878   0.000000
  106       -0.260886   0.000000
  107       -0.156615   0.000000
  108        0.040437   0.000000
  109        0.169795   0.000000
  110        0.262493   0.000000
  111        0.343394   0.000000
  112        0.616975   0.000000
  113        0.722099   0.000000
  114        0.846071   0.000000
  115        0.935522   0.000000
  116        0.985678   0.000000
  117        1.320355   0.000000
  118        1.690468   0.000000
  119        1.873061   0.000000
  120        2.190450   0.000000
 
  0.2500000E+00  0.5551115E-16  0.0000000E+00  0.3125000E-01
    1      -17.728423   1.000000
    2      -16.988101   1.000000
    3      -16.749038   1.000000
    4      -16.720707   1.000000
    5      -16.578743   1.000000
    6      -16.432776   1.000000
    7      -16.358915   1.000000
    8      -16.253025   1.000000
    9      -16.161004   1.000000
   10      -16.029331   1.000000
   11      -15.988842   1.000000
   12      -15.864468   1.000000
   13      -15.806548   1.000000
   14      -15.703075   1.000000
   15      -15.629504   1.000000
   16      -15.456017   1.000000
   17      -15.409506   1.000000
   18      -15.204310   1.000000
   19       -9.527846   1.000000
   20       -9.230911   1.000000
   21       -9.209849   1.000000
   22       -9.168378   1.000000
   23       -8.807268   1.000000
   24       -8.742333   1.000000
   25       -8.687499   1.000000
   26       -8.553031   1.000000
   27       -8.513313   1.000000
   28       -8.429684   1.000000
   29       -8.264684   1.000000
   30       -8.208303   1.000000
   31       -8.123799   1.000000
   32       -8.046503   1.000000
   33       -7.913532   1.000000
   34       -7.858200   1.000000
   35       -7.771117   1.000000
   36       -7.725189   1.000000
   37       -7.560895   1.000000
   38       -7.506666   1.000000
   39       -7.464317   1.000000
   40       -7.377684   1.000000
   41       -7.273707   1.000000
   42       -7.219589   1.000000
   43       -7.148897   1.000000
   44       -6.980968   1.000000
   45       -6.856331   1.000000
   46       -6.839773   1.000000
   47       -6.751050   1.000000
   48       -6.685041   1.000000
   49       -6.533481   1.000000
   50       -6.504487   1.000000
   51       -6.461629   1.000000
   52       -6.342719   1.000000
   53       -6.289372   1.000000
   54       -6.172681   1.000000
   55       -6.138519   1.000000
   56       -6.105847   1.000000
   57       -5.978584   1.000000
   58       -5.893978   1.000000
   59       -5.743858   1.000000
   60       -5.652201   1.000000
   61       -5.558570   1.000000
   62       -5.483821   1.000000
   63       -5.448061   1.000000
   64       -5.324853   1.000000
   65       -5.248239   1.000000
   66       -5.121207   1.000000
   67       -4.912422   1.000000
   68       -4.894369   1.000000
   69       -4.817971   1.000000
   70       -4.702752   1.000000
   71       -4.521758   1.000000
   72       -4.469311   1.000000
   73       -4.387360   1.000000
   74       -4.318215   1.000000
   75       -4.167014   1.000000
   76       -3.982445   0.999997
   77       -3.942623   0.999989
   78       -3.734306   0.997215
   79       -3.606734   0.969256
   80       -3.239703   0.234126
   81       -3.144023   0.080474
   82       -2.991054   0.006504
   83       -2.768905   0.000025
   84       -2.681067   0.000001
   85       -2.567360   0.000000
   86       -2.467733   0.000000
   87       -2.289879   0.000000
   88       -2.217610   0.000000
   89       -2.157973   0.000000
   90       -2.047364   0.000000
   91       -1.740099   0.000000
   92       -1.527323   0.000000
   93       -1.460892   0.000000
   94       -1.240181   0.000000
   95       -1.143646   0.000000
   96       -1.082457   0.000000
   97       -1.024659   0.000000
   98       -0.912597   0.000000
   99       -0.860120   0.000000
  100       -0.785336   0.000000
  101       -0.740190   0.000000
  102       -0.659078   0.000000
  103       -0.553677   0.000000
  104       -0.526219   0.000000
  105       -0.480926   0.000000
  106       -0.367322   0.000000
  107       -0.272094   0.000000
  108        0.062563   0.000000
  109        0.179205   0.000000
  110        0.289987   0.000000
  111        0.424785   0.000000
  112        0.584678   0.000000
  113        0.676300   0.000000
  114        0.882116   0.000000
  115        0.987013   0.000000
  116        1.057482   0.000000
  117        1.410536   0.000000
  118        1.815296   0.000000
  119        1.983233   0.000000
  120        2.295174   0.000000
 
  0.3750000E+00  0.0000000E+00  0.0000000E+00  0.3125000E-01
    1      -17.617576   1.000000
    2      -17.193149   1.000000
    3      -16.773351   1.000000
    4      -16.724403   1.000000
    5      -16.613589   1.000000
    6      -16.465044   1.000000
    7      -16.325944   1.000000
    8      -16.208497   1.000000
    9      -16.148619   1.000000
   10      -15.998925   1.000000
   11      -15.929150   1.000000
   12      -15.827689   1.000000
   13      -15.780648   1.000000
   14      -15.670200   1.000000
   15      -15.621193   1.000000
   16      -15.490391   1.000000
   17      -15.422428   1.000000
   18      -15.222135   1.000000
   19       -9.742201   1.000000
   20       -9.336669   1.000000
   21       -9.290566   1.000000
   22       -9.108128   1.000000
   23       -8.865593   1.000000
   24       -8.799172   1.000000
   25       -8.667763   1.000000
   26       -8.562362   1.000000
   27       -8.435166   1.000000
   28       -8.303808   1.000000
   29       -8.256181   1.000000
   30       -8.164830   1.000000
   31       -8.121595   1.000000
   32       -8.005983   1.000000
   33       -7.914308   1.000000
   34       -7.824695   1.000000
   35       -7.809543   1.000000
   36       -7.715094   1.000000
   37       -7.625804   1.000000
   38       -7.463979   1.000000
   39       -7.377076   1.000000
   40       -7.359642   1.000000
   41       -7.191427   1.000000
   42       -7.109947   1.000000
   43       -7.075362   1.000000
   44       -6.948505   1.000000
   45       -6.854920   1.000000
   46       -6.799708   1.000000
   47       -6.749512   1.000000
   48       -6.592070   1.000000
   49       -6.555656   1.000000
   50       -6.487214   1.000000
   51       -6.387810   1.000000
   52       -6.331793   1.000000
   53       -6.227527   1.000000
   54       -6.149208   1.000000
   55       -6.121912   1.000000
   56       -6.042191   1.000000
   57       -6.021508   1.000000
   58       -5.940114   1.000000
   59       -5.922358   1.000000
   60       -5.740514   1.000000
   61       -5.648076   1.000000
   62       -5.610610   1.000000
   63       -5.523120   1.000000
   64       -5.344682   1.000000
   65       -5.310586   1.000000
   66       -5.137731   1.000000
   67       -4.942498   1.000000
   68       -4.804559   1.000000
   69       -4.772263   1.000000
   70       -4.700514   1.000000
   71       -4.623542   1.000000
   72       -4.450080   1.000000
   73       -4.378870   1.000000
   74       -4.290519   1.000000
   75       -4.206762   1.000000
   76       -4.101722   1.000000
   77       -3.941363   0.999989
   78       -3.572386   0.948142
   79       -3.545995   0.925135
   80       -3.233522   0.220936
   81       -3.117843   0.056256
   82       -2.980854   0.005299
   83       -2.791614   0.000049
   84       -2.645473   0.000000
   85       -2.560677   0.000000
   86       -2.501881   0.000000
   87       -2.224625   0.000000
   88       -2.176911   0.000000
   89       -2.094951   0.000000
   90       -1.944267   0.000000
   91       -1.762362   0.000000
   92       -1.541482   0.000000
   93       -1.459235   0.000000
   94       -1.287535   0.000000
   95       -1.149153   0.000000
   96       -1.115148   0.000000
   97       -1.050778   0.000000
   98       -1.016679   0.000000
   99       -0.902468   0.000000
  100       -0.870662   0.000000
  101       -0.850511   0.000000
  102       -0.705187   0.000000
  103       -0.617739   0.000000
  104       -0.601125   0.000000
  105       -0.501692   0.000000
  106       -0.431002   0.000000
  107       -0.374487   0.000000
  108        0.029691   0.000000
  109        0.101085   0.000000
  110        0.253681   0.000000
  111        0.491235   0.000000
  112        0.560121   0.000000
  113        0.679653   0.000000
  114        0.971916   0.000000
  115        1.044935   0.000000
  116        1.123416   0.000000
  117        1.483730   0.000000
  118        2.002054   0.000000
  119        2.158150   0.000000
  120        2.466062   0.000000
 
  0.5000000E+00  0.1110223E-15  0.0000000E+00  0.1562500E-01
    1      -17.529556   1.000000
    2      -17.314550   1.000000
    3      -16.787976   1.000000
    4      -16.715765   1.000000
    5      -16.631235   1.000000
    6      -16.474956   1.000000
    7      -16.318123   1.000000
    8      -16.194640   1.000000
    9      -16.138871   1.000000
   10      -16.003028   1.000000
   11      -15.863072   1.000000
   12      -15.817887   1.000000
   13      -15.776827   1.000000
   14      -15.681765   1.000000
   15      -15.634135   1.000000
   16      -15.478917   1.000000
   17      -15.429652   1.000000
   18      -15.229579   1.000000
   19       -9.820988   1.000000
   20       -9.373531   1.000000
   21       -9.332823   1.000000
   22       -9.055849   1.000000
   23       -8.883445   1.000000
   24       -8.801349   1.000000
   25       -8.673400   1.000000
   26       -8.607955   1.000000
   27       -8.358380   1.000000
   28       -8.283505   1.000000
   29       -8.227300   1.000000
   30       -8.137957   1.000000
   31       -8.081292   1.000000
   32       -8.062315   1.000000
   33       -7.926913   1.000000
   34       -7.872425   1.000000
   35       -7.772486   1.000000
   36       -7.755692   1.000000
   37       -7.630734   1.000000
   38       -7.481539   1.000000
   39       -7.426982   1.000000
   40       -7.351678   1.000000
   41       -7.094430   1.000000
   42       -7.042156   1.000000
   43       -6.986321   1.000000
   44       -6.895395   1.000000
   45       -6.813302   1.000000
   46       -6.755999   1.000000
   47       -6.673740   1.000000
   48       -6.609214   1.000000
   49       -6.557285   1.000000
   50       -6.504398   1.000000
   51       -6.458747   1.000000
   52       -6.329831   1.000000
   53       -6.275611   1.000000
   54       -6.194682   1.000000
   55       -6.134482   1.000000
   56       -6.018272   1.000000
   57       -5.987633   1.000000
   58       -5.933253   1.000000
   59       -5.814016   1.000000
   60       -5.743488   1.000000
   61       -5.727233   1.000000
   62       -5.581756   1.000000
   63       -5.560288   1.000000
   64       -5.499862   1.000000
   65       -5.316507   1.000000
   66       -5.131107   1.000000
   67       -5.107759   1.000000
   68       -4.806892   1.000000
   69       -4.734712   1.000000
   70       -4.702976   1.000000
   71       -4.527238   1.000000
   72       -4.430412   1.000000
   73       -4.419020   1.000000
   74       -4.356073   1.000000
   75       -4.210884   1.000000
   76       -4.056301   1.000000
   77       -3.953347   0.999992
   78       -3.545356   0.924493
   79       -3.441560   0.758667
   80       -3.303260   0.391308
   81       -3.087422   0.035764
   82       -2.944526   0.002458
   83       -2.836280   0.000173
   84       -2.603696   0.000000
   85       -2.594613   0.000000
   86       -2.493074   0.000000
   87       -2.188045   0.000000
   88       -2.170122   0.000000
   89       -2.078772   0.000000
   90       -1.897671   0.000000
   91       -1.766935   0.000000
   92       -1.552682   0.000000
   93       -1.457783   0.000000
   94       -1.294468   0.000000
   95       -1.169462   0.000000
   96       -1.144899   0.000000
   97       -1.069496   0.000000
   98       -1.052113   0.000000
   99       -0.927922   0.000000
  100       -0.912673   0.000000
  101       -0.870264   0.000000
  102       -0.685856   0.000000
  103       -0.670457   0.000000
  104       -0.634234   0.000000
  105       -0.494477   0.000000
  106       -0.472682   0.000000
  107       -0.401953   0.000000
  108       -0.000973   0.000000
  109        0.078175   0.000000
  110        0.235775   0.000000
  111        0.522041   0.000000
  112        0.531450   0.000000
  113        0.690254   0.000000
  114        1.013403   0.000000
  115        1.069770   0.000000
  116        1.148759   0.000000
  117        1.510724   0.000000
  118        2.224349   0.000000
  119        2.253098   0.000000
  120        2.383800   0.000000
 
  0.0000000E+00  0.1250000E+00  0.0000000E+00  0.3125000E-01
    1      -17.801697   1.000000
    2      -16.784606   1.000000
    3      -16.746278   1.000000
    4      -16.646669   1.000000
    5      -16.587943   1.000000
    6      -16.428104   1.000000
    7      -16.408491   1.000000
    8      -16.261402   1.000000
    9      -16.139470   1.000000
   10      -16.093569   1.000000
   11      -16.001471   1.000000
   12      -15.955791   1.000000
   13      -15.866256   1.000000
   14      -15.764945   1.000000
   15      -15.614350   1.000000
   16      -15.413171   1.000000
   17      -15.393191   1.000000
   18      -15.184365   1.000000
   19       -9.348682   1.000000
   20       -9.174367   1.000000
   21       -9.026951   1.000000
   22       -9.004619   1.000000
   23       -8.788852   1.000000
   24       -8.723201   1.000000
   25       -8.647810   1.000000
   26       -8.583324   1.000000
   27       -8.545024   1.000000
   28       -8.506080   1.000000
   29       -8.406537   1.000000
   30       -8.274217   1.000000
   31       -8.234867   1.000000
   32       -8.074462   1.000000
   33       -8.007673   1.000000
   34       -7.894357   1.000000
   35       -7.799749   1.000000
   36       -7.747513   1.000000
   37       -7.664386   1.000000
   38       -7.577866   1.000000
   39       -7.481496   1.000000
   40       -7.463648   1.000000
   41       -7.302596   1.000000
   42       -7.219386   1.000000
   43       -7.137191   1.000000
   44       -6.940712   1.000000
   45       -6.837964   1.000000
   46       -6.789547   1.000000
   47       -6.730919   1.000000
   48       -6.680336   1.000000
   49       -6.502233   1.000000
   50       -6.453062   1.000000
   51       -6.425170   1.000000
   52       -6.398744   1.000000
   53       -6.334038   1.000000
   54       -6.255443   1.000000
   55       -6.217199   1.000000
   56       -6.111322   1.000000
   57       -6.046681   1.000000
   58       -5.964087   1.000000
   59       -5.801798   1.000000
   60       -5.504807   1.000000
   61       -5.443366   1.000000
   62       -5.404120   1.000000
   63       -5.321508   1.000000
   64       -5.254969   1.000000
   65       -5.086381   1.000000
   66       -5.031094   1.000000
   67       -4.946861   1.000000
   68       -4.887821   1.000000
   69       -4.825340   1.000000
   70       -4.731456   1.000000
   71       -4.676680   1.000000
   72       -4.601954   1.000000
   73       -4.452923   1.000000
   74       -4.274201   1.000000
   75       -4.074429   1.000000
   76       -3.953950   0.999992
   77       -3.860205   0.999875
   78       -3.694958   0.993681
   79       -3.627165   0.978018
   80       -3.404940   0.671143
   81       -3.112339   0.051983
   82       -2.947770   0.002639
   83       -2.796832   0.000057
   84       -2.708768   0.000004
   85       -2.550046   0.000000
   86       -2.400708   0.000000
   87       -2.375026   0.000000
   88       -2.306341   0.000000
   89       -2.221622   0.000000
   90       -2.135543   0.000000
   91       -1.707461   0.000000
   92       -1.516792   0.000000
   93       -1.445323   0.000000
   94       -1.272228   0.000000
   95       -1.128623   0.000000
   96       -1.056694   0.000000
   97       -0.962137   0.000000
   98       -0.909848   0.000000
   99       -0.774595   0.000000
  100       -0.721146   0.000000
  101       -0.621258   0.000000
  102       -0.603375   0.000000
  103       -0.540078   0.000000
  104       -0.403020   0.000000
  105       -0.370080   0.000000
  106       -0.140908   0.000000
  107       -0.086362   0.000000
  108       -0.013465   0.000000
  109        0.096101   0.000000
  110        0.202111   0.000000
  111        0.409010   0.000000
  112        0.519027   0.000000
  113        0.749134   0.000000
  114        0.876345   0.000000
  115        0.933353   0.000000
  116        1.048323   0.000000
  117        1.281828   0.000000
  118        1.688605   0.000000
  119        1.875288   0.000000
  120        2.190154   0.000000
 
  0.1250000E+00  0.1250000E+00  0.0000000E+00  0.3125000E-01
    1      -17.753632   1.000000
    2      -16.903886   1.000000
    3      -16.788658   1.000000
    4      -16.720127   1.000000
    5      -16.539589   1.000000
    6      -16.433846   1.000000
    7      -16.364369   1.000000
    8      -16.254327   1.000000
    9      -16.155410   1.000000
   10      -16.074048   1.000000
   11      -15.980546   1.000000
   12      -15.881465   1.000000
   13      -15.822697   1.000000
   14      -15.734832   1.000000
   15      -15.620938   1.000000
   16      -15.439235   1.000000
   17      -15.404042   1.000000
   18      -15.199995   1.000000
   19       -9.434836   1.000000
   20       -9.274480   1.000000
   21       -9.209297   1.000000
   22       -9.079552   1.000000
   23       -8.805377   1.000000
   24       -8.734502   1.000000
   25       -8.631981   1.000000
   26       -8.558331   1.000000
   27       -8.481378   1.000000
   28       -8.439311   1.000000
   29       -8.378770   1.000000
   30       -8.291052   1.000000
   31       -8.146178   1.000000
   32       -8.048288   1.000000
   33       -7.930319   1.000000
   34       -7.858868   1.000000
   35       -7.749731   1.000000
   36       -7.673129   1.000000
   37       -7.629848   1.000000
   38       -7.516212   1.000000
   39       -7.441971   1.000000
   40       -7.377604   1.000000
   41       -7.306711   1.000000
   42       -7.240370   1.000000
   43       -7.125023   1.000000
   44       -7.041620   1.000000
   45       -6.866882   1.000000
   46       -6.814013   1.000000
   47       -6.752369   1.000000
   48       -6.677219   1.000000
   49       -6.523688   1.000000
   50       -6.493931   1.000000
   51       -6.415660   1.000000
   52       -6.395808   1.000000
   53       -6.295865   1.000000
   54       -6.250623   1.000000
   55       -6.150242   1.000000
   56       -6.102036   1.000000
   57       -5.964835   1.000000
   58       -5.916422   1.000000
   59       -5.751558   1.000000
   60       -5.631894   1.000000
   61       -5.502543   1.000000
   62       -5.433073   1.000000
   63       -5.382213   1.000000
   64       -5.311299   1.000000
   65       -5.220576   1.000000
   66       -5.109880   1.000000
   67       -4.959585   1.000000
   68       -4.895612   1.000000
   69       -4.788907   1.000000
   70       -4.733172   1.000000
   71       -4.596863   1.000000
   72       -4.505383   1.000000
   73       -4.340243   1.000000
   74       -4.276941   1.000000
   75       -4.122862   1.000000
   76       -4.029858   0.999999
   77       -3.836310   0.999761
   78       -3.807609   0.999500
   79       -3.647356   0.984505
   80       -3.304140   0.393700
   81       -3.093791   0.039452
   82       -2.961944   0.003579
   83       -2.752542   0.000015
   84       -2.710781   0.000004
   85       -2.561888   0.000000
   86       -2.426239   0.000000
   87       -2.331522   0.000000
   88       -2.253022   0.000000
   89       -2.188912   0.000000
   90       -2.062578   0.000000
   91       -1.729315   0.000000
   92       -1.518062   0.000000
   93       -1.451644   0.000000
   94       -1.254001   0.000000
   95       -1.136651   0.000000
   96       -1.081210   0.000000
   97       -0.995406   0.000000
   98       -0.918616   0.000000
   99       -0.837978   0.000000
  100       -0.787380   0.000000
  101       -0.671195   0.000000
  102       -0.633662   0.000000
  103       -0.592697   0.000000
  104       -0.531921   0.000000
  105       -0.484679   0.000000
  106       -0.241974   0.000000
  107       -0.160553   0.000000
  108        0.000155   0.000000
  109        0.183427   0.000000
  110        0.292175   0.000000
  111        0.403838   0.000000
  112        0.511888   0.000000
  113        0.701033   0.000000
  114        0.891064   0.000000
  115        0.958421   0.000000
  116        1.107652   0.000000
  117        1.342936   0.000000
  118        1.773509   0.000000
  119        1.949254   0.000000
  120        2.260296   0.000000
 
  0.2500000E+00  0.1250000E+00  0.0000000E+00  0.3125000E-01
    1      -17.661773   1.000000
    2      -17.085407   1.000000
    3      -16.876363   1.000000
    4      -16.722433   1.000000
    5      -16.509406   1.000000
    6      -16.447502   1.000000
    7      -16.335034   1.000000
    8      -16.227619   1.000000
    9      -16.145058   1.000000
   10      -16.028622   1.000000
   11      -15.967915   1.000000
   12      -15.846939   1.000000
   13      -15.788186   1.000000
   14      -15.665463   1.000000
   15      -15.622966   1.000000
   16      -15.476274   1.000000
   17      -15.417133   1.000000
   18      -15.218292   1.000000
   19       -9.637945   1.000000
   20       -9.429001   1.000000
   21       -9.253587   1.000000
   22       -9.134350   1.000000
   23       -8.802790   1.000000
   24       -8.708873   1.000000
   25       -8.618395   1.000000
   26       -8.521996   1.000000
   27       -8.477335   1.000000
   28       -8.363773   1.000000
   29       -8.254711   1.000000
   30       -8.220689   1.000000
   31       -8.126395   1.000000
   32       -8.097803   1.000000
   33       -7.959685   1.000000
   34       -7.902627   1.000000
   35       -7.796692   1.000000
   36       -7.652423   1.000000
   37       -7.525890   1.000000
   38       -7.453958   1.000000
   39       -7.364511   1.000000
   40       -7.304623   1.000000
   41       -7.249641   1.000000
   42       -7.196959   1.000000
   43       -7.126483   1.000000
   44       -6.963012   1.000000
   45       -6.857164   1.000000
   46       -6.804619   1.000000
   47       -6.745291   1.000000