       N       E                     dE             d eps       ncg     rms          rms(c)
DAV:   1     0.112442997607E+04    0.11244E+04   -0.35858E+04  8160   0.577E+02
DAV:   2    -0.198907895806E+01   -0.11264E+04   -0.10839E+04 11240   0.173E+02
DAV:   3    -0.199738217681E+03   -0.19775E+03   -0.19000E+03 10920   0.821E+01
DAV:   4    -0.208960321220E+03   -0.92221E+01   -0.89426E+01 12280   0.261E+01
DAV:   5    -0.209247809858E+03   -0.28749E+00   -0.28666E+00 11320   0.343E+00    0.274E+01
DAV:   6    -0.236666868684E+03   -0.27419E+02   -0.10840E+02 12920   0.604E+01    0.592E+01
DAV:   7    -0.196772052410E+03    0.39895E+02   -0.17611E+02 12760   0.152E+02    0.205E+01
DAV:   8    -0.190222785387E+03    0.65493E+01   -0.21391E+01 11840   0.135E+01    0.139E+01
DAV:   9    -0.188305560805E+03    0.19172E+01   -0.35783E+00 12000   0.635E+00    0.939E+00
DAV:  10    -0.187164137983E+03    0.11414E+01   -0.18015E+00 13360   0.746E+00    0.375E+00
DAV:  11    -0.187000300301E+03    0.16384E+00   -0.73110E-01 12560   0.269E+00    0.225E+00
DAV:  12    -0.187081743442E+03   -0.81443E-01   -0.53065E-01 13280   0.372E+00    0.441E+00
DAV:  13    -0.186936727210E+03    0.14502E+00   -0.48216E-01 13120   0.374E+00    0.198E+00
DAV:  14    -0.186903098797E+03    0.33628E-01   -0.10521E-01 13440   0.172E+00    0.113E+00
DAV:  15    -0.186896587600E+03    0.65112E-02   -0.52906E-02 12840   0.133E+00    0.100E+00
DAV:  16    -0.186889159461E+03    0.74281E-02   -0.18823E-02 12880   0.727E-01    0.484E-01
DAV:  17    -0.186886863715E+03    0.22957E-02   -0.66539E-03 13080   0.293E-01    0.216E-01
DAV:  18    -0.186885940378E+03    0.92334E-03   -0.35249E-03 12840   0.259E-01    0.201E-01
DAV:  19    -0.186885630629E+03    0.30975E-03   -0.10196E-03 11520   0.158E-01    0.479E-02
DAV:  20    -0.186886429245E+03   -0.79862E-03   -0.75073E-04  9200   0.602E-02    0.531E-02
DAV:  21    -0.186887000128E+03   -0.57088E-03   -0.22353E-04  8320   0.460E-02    0.285E-02
DAV:  22    -0.186888101269E+03   -0.11011E-02   -0.16220E-04  7600   0.379E-02    0.350E-02
DAV:  23    -0.186889338066E+03   -0.12368E-02   -0.13593E-04  7480   0.431E-02    0.149E-02
DAV:  24    -0.186889920206E+03   -0.58214E-03   -0.26078E-05  6840   0.151E-02    0.536E-03
DAV:  25    -0.186890301222E+03   -0.38102E-03   -0.16347E-05  5480   0.921E-03    0.431E-03
DAV:  26    -0.186890541019E+03   -0.23980E-03   -0.89248E-06  6800   0.709E-03    0.149E-03
DAV:  27    -0.186890639477E+03   -0.98457E-04   -0.34263E-06  7240   0.403E-03
   1 F= -.18689064E+03 E0= -.18671981E+03  d E =-.186891E+03
       N       E                     dE             d eps       ncg     rms          rms(c)
DAV:   1    -0.187533064502E+03   -0.64252E+00   -0.27225E+02  8160   0.351E+01    0.467E+00
DAV:   2    -0.189546218054E+03   -0.20132E+01   -0.20394E+01 12320   0.157E+01    0.968E+00
DAV:   3    -0.189357481430E+03    0.18874E+00   -0.43413E+00 12440   0.124E+01    0.640E+00
DAV:   4    -0.188787997331E+03    0.56948E+00   -0.57671E-01 12560   0.442E+00    0.173E+00
DAV:   5    -0.188889203047E+03   -0.10121E+00   -0.45377E-01 11840   0.332E+00    0.509E+00
DAV:   6    -0.188755101766E+03    0.13410E+00   -0.69493E-01 12880   0.422E+00    0.207E+00
DAV:   7    -0.188730472232E+03    0.24630E-01   -0.14097E-01 11760   0.181E+00    0.163E+00
DAV:   8    -0.188712274236E+03    0.18198E-01   -0.73406E-02 13560   0.159E+00    0.111E+00
DAV:   9    -0.188701874650E+03    0.10400E-01   -0.21879E-02 12000   0.768E-01    0.326E-01
DAV:  10    -0.188701287534E+03    0.58712E-03   -0.41924E-03 11600   0.214E-01    0.199E-01
DAV:  11    -0.188700676978E+03    0.61056E-03   -0.23112E-03 12560   0.159E-01    0.933E-02
DAV:  12    -0.188700811739E+03   -0.13476E-03   -0.70104E-04 10480   0.790E-02    0.568E-02
DAV:  13    -0.188700799941E+03    0.11798E-04   -0.13342E-04  8160   0.377E-02
   2 F= -.18870080E+03 E0= -.18856183E+03  d E =-.181016E+01
       N       E                     dE             d eps       ncg     rms          rms(c)
DAV:   1    -0.190629073620E+03   -0.19283E+01   -0.31481E+01  9000   0.143E+01    0.444E+00
DAV:   2    -0.190575446936E+03    0.53627E-01   -0.27707E+00 11240   0.947E+00    0.721E+00
DAV:   3    -0.190110836836E+03    0.46461E+00   -0.13383E+00 12360   0.861E+00    0.422E+00
DAV:   4    -0.189901174879E+03    0.20966E+00   -0.72669E-01 12800   0.426E+00    0.253E+00
DAV:   5    -0.189881396959E+03    0.19778E-01   -0.38542E-01 12280   0.318E+00    0.287E+00
DAV:   6    -0.189802502887E+03    0.78894E-01   -0.15289E-01 12640   0.251E+00    0.707E-01
DAV:   7    -0.189796100820E+03    0.64021E-02   -0.13851E-02 11560   0.519E-01    0.212E-01
DAV:   8    -0.189796725615E+03   -0.62479E-03   -0.38931E-03 12200   0.310E-01    0.324E-01
DAV:   9    -0.189796092920E+03    0.63269E-03   -0.20404E-03 10480   0.296E-01    0.146E-01
DAV:  10    -0.189796391131E+03   -0.29821E-03   -0.86897E-04  9760   0.131E-01    0.126E-01
DAV:  11    -0.189796115692E+03    0.27544E-03   -0.44160E-04  9080   0.737E-02    0.204E-02
DAV:  12    -0.189796140804E+03   -0.25111E-04   -0.68145E-05  7280   0.268E-02
   3 F= -.18979614E+03 E0= -.18967783E+03  d E =-.109534E+01
       N       E                     dE             d eps       ncg     rms          rms(c)
DAV:   1    -0.191367169848E+03   -0.15711E+01   -0.77796E+01  8160   0.201E+01    0.458E+00
DAV:   2    -0.191203597097E+03    0.16357E+00   -0.53898E+00 13200   0.781E+00    0.471E+00
DAV:   3    -0.191312539490E+03   -0.10894E+00   -0.15966E+00 12200   0.909E+00    0.650E+00
DAV:   4    -0.190938907121E+03    0.37363E+00   -0.13549E+00 12440   0.748E+00    0.298E+00
DAV:   5    -0.190894271230E+03    0.44636E-01   -0.44614E-01 12560   0.399E+00    0.291E+00
DAV:   6    -0.190806069846E+03    0.88201E-01   -0.21069E-01 12280   0.318E+00    0.123E+00
DAV:   7    -0.190791958253E+03    0.14112E-01   -0.46907E-02 12680   0.112E+00    0.423E-01
DAV:   8    -0.190790308077E+03    0.16502E-02   -0.85138E-03 11360   0.485E-01    0.385E-01
DAV:   9    -0.190789205096E+03    0.11030E-02   -0.30765E-03 10840   0.377E-01    0.167E-01
DAV:  10    -0.190789436033E+03   -0.23094E-03   -0.12978E-03 11440   0.152E-01    0.102E-01
DAV:  11    -0.190789280614E+03    0.15542E-03   -0.53509E-04  9560   0.851E-02    0.446E-02
DAV:  12    -0.190789280441E+03    0.17331E-06   -0.10358E-04  7080   0.397E-02
   4 F= -.19078928E+03 E0= -.19068445E+03  d E =-.993140E+00
       N       E                     dE             d eps       ncg     rms          rms(c)
DAV:   1    -0.192096477261E+03   -0.13072E+01   -0.15687E+02  8160   0.279E+01    0.553E+00
DAV:   2    -0.191855637826E+03    0.24084E+00   -0.89916E+00 11520   0.798E+00    0.386E+00
DAV:   3    -0.192050827085E+03   -0.19519E+00   -0.20223E+00 11120   0.865E+00    0.797E+00
DAV:   4    -0.191743148120E+03    0.30768E+00   -0.28458E+00 11480   0.107E+01    0.444E+00
DAV:   5    -0.191572928501E+03    0.17022E+00   -0.74330E-01 12360   0.550E+00    0.322E+00
DAV:   6    -0.191445462659E+03    0.12747E+00   -0.27132E-01 12280   0.374E+00    0.123E+00
DAV:   7    -0.191431853014E+03    0.13610E-01   -0.60078E-02 12280   0.128E+00    0.506E-01
DAV:   8    -0.191427961442E+03    0.38916E-02   -0.10497E-02 10800   0.497E-01    0.265E-01
DAV:   9    -0.191428827714E+03   -0.86627E-03   -0.48901E-03 12640   0.476E-01    0.376E-01
DAV:  10    -0.191427736468E+03    0.10912E-02   -0.32285E-03 11400   0.336E-01    0.606E-02
DAV:  11    -0.191427800876E+03   -0.64408E-04   -0.34312E-04  9080   0.696E-02
   5 F= -.19142780E+03 E0= -.19132268E+03  d E =-.638520E+00
       N       E                     dE             d eps       ncg     rms          rms(c)
DAV:   1    -0.191474615471E+03   -0.46879E-01   -0.35325E+00  8160   0.398E+00    0.574E-01
DAV:   2    -0.191524984556E+03   -0.50369E-01   -0.23081E-01 12600   0.265E+00    0.197E+00
DAV:   3    -0.191484075593E+03    0.40909E-01   -0.83075E-02 12440   0.203E+00    0.344E-01
DAV:   4    -0.191485639016E+03   -0.15634E-02   -0.10973E-02 11440   0.660E-01    0.568E-01
DAV:   5    -0.191482483474E+03    0.31555E-02   -0.71236E-03 10240   0.555E-01    0.182E-01
DAV:   6    -0.191482404597E+03    0.78876E-04   -0.17683E-03 10600   0.174E-01    0.121E-01
DAV:   7    -0.191482128904E+03    0.27569E-03   -0.87067E-04 10280   0.121E-01    0.651E-02
DAV:   8    -0.191482138915E+03   -0.10011E-04   -0.28112E-04  7800   0.110E-01
   6 F= -.19148214E+03 E0= -.19137478E+03  d E =-.543380E-01
       N       E                     dE             d eps       ncg     rms          rms(c)
DAV:   1    -0.191541161794E+03   -0.59033E-01   -0.58820E+00  8160   0.513E+00    0.645E-01
DAV:   2    -0.191580508857E+03   -0.39347E-01   -0.21361E-01 13600   0.212E+00    0.170E+00
DAV:   3    -0.191549611464E+03    0.30897E-01   -0.82059E-02 12400   0.204E+00    0.527E-01
DAV:   4    -0.191548777249E+03    0.83422E-03   -0.12230E-02 11200   0.642E-01    0.513E-01
DAV:   5    -0.191546973065E+03    0.18042E-02   -0.95951E-03 10680   0.644E-01    0.341E-01
DAV:   6    -0.191546007425E+03    0.96564E-03   -0.34205E-03  9920   0.318E-01    0.129E-01
DAV:   7    -0.191545806806E+03    0.20062E-03   -0.10239E-03 10520   0.133E-01    0.740E-02
DAV:   8    -0.191545826177E+03   -0.19371E-04   -0.43289E-04  9520   0.134E-01
   7 F= -.19154583E+03 E0= -.19143640E+03  d E =-.636873E-01
       N       E                     dE             d eps       ncg     rms          rms(c)
DAV:   1    -0.191560103173E+03   -0.14296E-01   -0.29482E-01  8160   0.117E+00    0.179E-01
DAV:   2    -0.191562305044E+03   -0.22019E-02   -0.14000E-02 12680   0.586E-01    0.433E-01
DAV:   3    -0.191560285407E+03    0.20196E-02   -0.47746E-03 11520   0.499E-01    0.114E-01
DAV:   4    -0.191560175565E+03    0.10984E-03   -0.66667E-04 10000   0.128E-01    0.984E-02
DAV:   5    -0.191560221931E+03   -0.46366E-04   -0.76287E-04  8880   0.176E-01
   8 F= -.19156022E+03 E0= -.19145047E+03  d E =-.143958E-01
       N       E                     dE             d eps       ncg     rms          rms(c)
DAV:   1    -0.191499908194E+03    0.60267E-01   -0.61996E+00  8160   0.534E+00    0.778E-01
DAV:   2    -0.191551092864E+03   -0.51185E-01   -0.28261E-01 13560   0.283E+00    0.204E+00
DAV:   3    -0.191503901364E+03    0.47191E-01   -0.92223E-02 12040   0.222E+00    0.563E-01
DAV:   4    -0.191507803261E+03   -0.39019E-02   -0.29042E-02 10640   0.106E+00    0.946E-01
DAV:   5    -0.191499908150E+03    0.78951E-02   -0.22057E-02 10520   0.959E-01    0.310E-01
DAV:   6    -0.191498778479E+03    0.11297E-02   -0.46884E-03 10960   0.327E-01    0.129E-01
DAV:   7    -0.191498609155E+03    0.16932E-03   -0.14305E-03 12000   0.171E-01    0.107E-01
DAV:   8    -0.191498585398E+03    0.23757E-04   -0.70858E-04  9000   0.176E-01
   9 F= -.19149859E+03 E0= -.19139042E+03  d E =0.616365E-01
       N       E                     dE             d eps       ncg     rms          rms(c)
DAV:   1    -0.191517410571E+03   -0.18801E-01   -0.86570E-01  8160   0.198E+00    0.286E-01
DAV:   2    -0.191530015049E+03   -0.12604E-01   -0.51482E-02 13200   0.131E+00    0.102E+00
DAV:   3    -0.191519121620E+03    0.10893E-01   -0.22828E-02 11280   0.104E+00    0.208E-01
DAV:   4    -0.191519459987E+03   -0.33837E-03   -0.31276E-03 10520   0.362E-01    0.280E-01
DAV:   5    -0.191518658179E+03    0.80181E-03   -0.15407E-03  9600   0.264E-01    0.718E-02
DAV:   6    -0.191518671631E+03   -0.13452E-04   -0.31555E-04  7600   0.766E-02
  10 F= -.19151867E+03 E0= -.19140924E+03  d E =-.200862E-01
       N       E                     dE             d eps       ncg     rms          rms(c)
DAV:   1    -0.191577117774E+03   -0.58460E-01   -0.53473E+00  8160   0.493E+00    0.667E-01
DAV:   2    -0.191626154516E+03   -0.49037E-01   -0.23071E-01 13600   0.260E+00    0.201E+00
DAV:   3    -0.191583682520E+03    0.42472E-01   -0.91971E-02 12280   0.220E+00    0.417E-01
DAV:   4    -0.191585275278E+03   -0.15928E-02   -0.13153E-02 12320   0.727E-01    0.651E-01
DAV:   5    -0.191581304374E+03    0.39709E-02   -0.11503E-02 11240   0.715E-01    0.245E-01
DAV:   6    -0.191580991620E+03    0.31275E-03   -0.29718E-03 11080   0.258E-01    0.133E-01
DAV:   7    -0.191580712730E+03    0.27889E-03   -0.11520E-03 10760   0.158E-01    0.108E-01
DAV:   8    -0.191580635429E+03    0.77301E-04   -0.48487E-04  8560   0.138E-01
  11 F= -.19158064E+03 E0= -.19146973E+03  d E =-.619638E-01
       N       E                     dE             d eps       ncg     rms          rms(c)
DAV:   1    -0.191568317346E+03    0.12395E-01   -0.23584E-01  8160   0.104E+00    0.120E-01
DAV:   2    -0.191569309104E+03   -0.99176E-03   -0.74030E-03 13360   0.328E-01    0.258E-01
DAV:   3    -0.191568646642E+03    0.66246E-03   -0.24762E-03 10640   0.339E-01    0.132E-01
DAV:   4    -0.191568561543E+03    0.85099E-04   -0.59257E-04  8320   0.149E-01
  12 F= -.19156856E+03 E0= -.19145757E+03  d E =0.120739E-01
       N       E                     dE             d eps       ncg     rms          rms(c)
DAV:   1    -0.191565463059E+03    0.31836E-02   -0.87559E-01  8160   0.215E+00    0.523E-01
DAV:   2    -0.191561003135E+03    0.44599E-02   -0.54957E-02 11360   0.739E-01    0.463E-01
DAV:   3    -0.191563461728E+03   -0.24586E-02   -0.24109E-02 11280   0.106E+00    0.729E-01
DAV:   4    -0.191558505647E+03    0.49561E-02   -0.17691E-02 11160   0.889E-01    0.397E-01
DAV:   5    -0.191558513631E+03   -0.79842E-05   -0.91039E-03 10880   0.603E-01    0.451E-01
DAV:   6    -0.191556403906E+03    0.21097E-02   -0.42619E-03 11040   0.441E-01    0.822E-02
DAV:   7    -0.191556401149E+03    0.27568E-05   -0.41404E-04  8960   0.982E-02
  13 F= -.19155640E+03 E0= -.19144510E+03  d E =0.121604E-01
       N       E                     dE             d eps       ncg     rms          rms(c)
DAV:   1    -0.191537695155E+03    0.18709E-01   -0.53610E-01  8160   0.155E+00    0.207E-01
DAV:   2    -0.191542567452E+03   -0.48723E-02   -0.24254E-02 13520   0.775E-01    0.592E-01
DAV:   3    -0.191538663932E+03    0.39035E-02   -0.83424E-03 11600   0.662E-01    0.163E-01
DAV:   4    -0.191538836635E+03   -0.17270E-03   -0.16809E-03  9960   0.249E-01    0.214E-01
DAV:   5    -0.191538410772E+03    0.42586E-03   -0.11577E-03  9520   0.218E-01    0.774E-02
DAV:   6    -0.191538392464E+03    0.18308E-04   -0.20848E-04  6280   0.742E-02
  14 F= -.19153839E+03 E0= -.19142738E+03  d E =0.180087E-01
       N       E                     dE             d eps       ncg     rms          rms(c)
DAV:   1    -0.191528902913E+03    0.95079E-02   -0.60299E-01  8160   0.166E+00    0.229E-01
DAV:   2    -0.191536105750E+03   -0.72028E-02   -0.36021E-02 12520   0.938E-01    0.753E-01
DAV:   3    -0.191530534864E+03    0.55709E-02   -0.13123E-02 11600   0.774E-01    0.192E-01
DAV:   4    -0.191530542204E+03   -0.73400E-05   -0.17650E-03  9880   0.270E-01    0.184E-01
DAV:   5    -0.191530214559E+03    0.32764E-03   -0.90159E-04  9840   0.221E-01    0.889E-02
DAV:   6    -0.191530180802E+03    0.33757E-04   -0.30773E-04  8320   0.965E-02
  15 F= -.19153018E+03 E0= -.19141916E+03  d E =0.821166E-02
       N       E                     dE             d eps       ncg     rms          rms(c)
DAV:   1    -0.191575438818E+03   -0.45224E-01   -0.33416E+00  8160   0.388E+00    0.468E-01
DAV:   2    -0.191598266696E+03   -0.22828E-01   -0.12204E-01 13600   0.159E+00    0.133E+00
DAV:   3    -0.191581179362E+03    0.17087E-01   -0.51389E-02 12120   0.150E+00    0.454E-01
DAV:   4    -0.191581914089E+03   -0.73473E-03   -0.10999E-02 11040   0.660E-01    0.535E-01
DAV:   5    -0.191579053816E+03    0.28603E-02   -0.60968E-03 10680   0.535E-01    0.168E-01
DAV:   6    -0.191578902447E+03    0.15137E-03   -0.12616E-03 10200   0.156E-01    0.956E-02
DAV:   7    -0.191578776075E+03    0.12637E-03   -0.52271E-04 10880   0.910E-02    0.491E-02
DAV:   8    -0.191578768366E+03    0.77086E-05   -0.15889E-04  6880   0.821E-02
  16 F= -.19157877E+03 E0= -.19146747E+03  d E =-.485876E-01
       N       E                     dE             d eps       ncg     rms          rms(c)
DAV:   1    -0.191554889477E+03    0.23887E-01   -0.93205E-01  8160   0.207E+00    0.288E-01
DAV:   2    -0.191562884197E+03   -0.79947E-02   -0.39335E-02 13200   0.110E+00    0.811E-01
DAV:   3    -0.191555497707E+03    0.73865E-02   -0.14546E-02 12040   0.872E-01    0.191E-01
DAV:   4    -0.191556104884E+03   -0.60718E-03   -0.35032E-03 10120   0.363E-01    0.334E-01
DAV:   5    -0.191555130852E+03    0.97403E-03   -0.29117E-03  9600   0.347E-01    0.129E-01
DAV:   6    -0.191555004942E+03    0.12591E-03   -0.67608E-04  9880   0.122E-01    0.570E-02
DAV:   7    -0.191554969360E+03    0.35581E-04   -0.18590E-04  7480   0.730E-02
  17 F= -.19155497E+03 E0= -.19144370E+03  d E =0.237990E-01
       N       E                     dE             d eps       ncg     rms          rms(c)
DAV:   1    -0.191500373085E+03    0.54632E-01   -0.49814E+00  8160   0.474E+00    0.541E-01
DAV:   2    -0.191524319304E+03   -0.23946E-01   -0.14926E-01 13600   0.162E+00    0.126E+00
DAV:   3    -0.191506909371E+03    0.17410E-01   -0.46533E-02 12240   0.153E+00    0.502E-01
DAV:   4    -0.191507635009E+03   -0.72564E-03   -0.13536E-02 11520   0.692E-01    0.597E-01
DAV:   5    -0.191504583489E+03    0.30515E-02   -0.96844E-03 10520   0.628E-01    0.246E-01
DAV:   6    -0.191504126722E+03    0.45677E-03   -0.23890E-03 10320   0.244E-01    0.123E-01
DAV:   7    -0.191503947739E+03    0.17898E-03   -0.84931E-04 10800   0.128E-01    0.778E-02
DAV:   8    -0.191503918467E+03    0.29272E-04   -0.33831E-04  8120   0.122E-01
  18 F= -.19150392E+03 E0= -.19139329E+03  d E =0.510509E-01
       N       E                     dE             d eps       ncg     rms          rms(c)
DAV:   1    -0.191527329611E+03   -0.23382E-01   -0.12499E+00  8160   0.239E+00    0.298E-01
DAV:   2    -0.191533674724E+03   -0.63451E-02   -0.45348E-02 13400   0.846E-01    0.664E-01
DAV:   3    -0.191529463535E+03    0.42112E-02   -0.14900E-02 11880   0.854E-01    0.310E-01
DAV:   4    -0.191529099710E+03    0.36382E-03   -0.36571E-03 10800   0.369E-01    0.284E-01
DAV:   5    -0.191528360591E+03    0.73912E-03   -0.23141E-03  9720   0.323E-01    0.125E-01
DAV:   6    -0.191528256729E+03    0.10386E-03   -0.73872E-04  9760   0.133E-01    0.681E-02
DAV:   7    -0.191528270255E+03   -0.13526E-04   -0.41897E-04  8480   0.117E-01
  19 F= -.19152827E+03 E0= -.19141641E+03  d E =-.243518E-01
       N       E                     dE             d eps       ncg     rms          rms(c)
DAV:   1    -0.191555212156E+03   -0.26955E-01   -0.13587E+00  8160   0.248E+00    0.325E-01
DAV:   2    -0.191564668418E+03   -0.94563E-02   -0.49824E-02 13600   0.116E+00    0.868E-01
DAV:   3    -0.191556505350E+03    0.81631E-02   -0.18697E-02 12240   0.986E-01    0.214E-01
DAV:   4    -0.191556296600E+03    0.20875E-03   -0.21144E-03 11480   0.249E-01    0.195E-01
DAV:   5    -0.191556238669E+03    0.57930E-04   -0.23180E-03 10440   0.311E-01    0.218E-01
DAV:   6    -0.191555855548E+03    0.38312E-03   -0.13925E-03  9680   0.223E-01    0.770E-02
DAV:   7    -0.191555827861E+03    0.27687E-04   -0.33699E-04  7080   0.951E-02
  20 F= -.19155583E+03 E0= -.19144342E+03  d E =-.275576E-01
       N       E                     dE             d eps       ncg     rms          rms(c)
DAV:   1    -0.191568550793E+03   -0.12695E-01   -0.48016E-01  8160   0.150E+00    0.209E-01
DAV:   2    -0.191573042428E+03   -0.44916E-02   -0.23397E-02 13240   0.793E-01    0.601E-01
DAV:   3    -0.191569246712E+03    0.37957E-02   -0.82637E-03 11440   0.647E-01    0.144E-01
DAV:   4    -0.191569554548E+03   -0.30784E-03   -0.18079E-03  9800   0.262E-01    0.241E-01
DAV:   5    -0.191568989036E+03    0.56551E-03   -0.12567E-03  9400   0.232E-01    0.656E-02
DAV:   6    -0.191569009135E+03   -0.20099E-04   -0.26717E-04  5720   0.874E-02
  21 F= -.19156901E+03 E0= -.19145586E+03  d E =-.131813E-01
       N       E                     dE             d eps       ncg     rms          rms(c)
DAV:   1    -0.191606641211E+03   -0.37652E-01   -0.24954E+00  8160   0.335E+00    0.377E-01
DAV:   2    -0.191617009694E+03   -0.10368E-01   -0.67900E-02 13560   0.107E+00    0.867E-01
DAV:   3    -0.191609681902E+03    0.73278E-02   -0.25171E-02 12240   0.108E+00    0.364E-01
DAV:   4    -0.191609720636E+03   -0.38735E-04   -0.63971E-03 11040   0.486E-01    0.380E-01
DAV:   5    -0.191608372130E+03    0.13485E-02   -0.36665E-03 10960   0.428E-01    0.166E-01
DAV:   6    -0.191608236208E+03    0.13592E-03   -0.12230E-03 10160   0.188E-01    0.106E-01
DAV:   7    -0.191608357721E+03   -0.12151E-03   -0.10527E-03 10800   0.198E-01    0.170E-01
DAV:   8    -0.191608082724E+03    0.27500E-03   -0.60647E-04  8480   0.158E-01    0.341E-02
DAV:   9    -0.191608084327E+03   -0.16029E-05   -0.44590E-05  5680   0.314E-02
  22 F= -.19160808E+03 E0= -.19149592E+03  d E =-.390752E-01
       N       E                     dE             d eps       ncg     rms          rms(c)
DAV:   1    -0.191604346813E+03    0.37359E-02   -0.81064E-01  8160   0.195E+00    0.243E-01
DAV:   2    -0.191606241072E+03   -0.18943E-02   -0.22829E-02 12720   0.589E-01    0.407E-01
DAV:   3    -0.191605216420E+03    0.10247E-02   -0.71880E-03 11880   0.565E-01    0.284E-01
DAV:   4    -0.191604803405E+03    0.41302E-03   -0.32067E-03 10280   0.350E-01    0.209E-01
DAV:   5    -0.191604552465E+03    0.25094E-03   -0.17725E-03  9600   0.295E-01    0.166E-01
DAV:   6    -0.191604317064E+03    0.23540E-03   -0.90495E-04  9800   0.188E-01    0.708E-02
DAV:   7    -0.191604313618E+03    0.34460E-05   -0.34253E-04  7720   0.107E-01
  23 F= -.19160431E+03 E0= -.19149139E+03  d E =0.377071E-02
       N       E                     dE             d eps       ncg     rms          rms(c)
DAV:   1    -0.191667235066E+03   -0.62918E-01   -0.62428E+00  8160   0.533E+00    0.643E-01
DAV:   2    -0.191699015202E+03   -0.31780E-01   -0.18941E-01 13600   0.217E+00    0.158E+00
DAV:   3    -0.191673520423E+03    0.25495E-01   -0.65067E-02 12240   0.186E+00    0.473E-01
DAV:   4    -0.191673482009E+03    0.38415E-04   -0.13786E-02 11760   0.663E-01    0.565E-01
DAV:   5    -0.191671351026E+03    0.21310E-02   -0.12164E-02 12160   0.729E-01    0.373E-01
DAV:   6    -0.191670127243E+03    0.12238E-02   -0.43061E-03 11160   0.378E-01    0.144E-01
DAV:   7    -0.191670193868E+03   -0.66624E-04   -0.18361E-03 11320   0.244E-01    0.196E-01
DAV:   8    -0.191669819557E+03    0.37431E-03   -0.94750E-04  8680   0.206E-01    0.580E-02
DAV:   9    -0.191669790812E+03    0.28745E-04   -0.10109E-04  6000   0.553E-02
  24 F= -.19166979E+03 E0= -.19156021E+03  d E =-.654772E-01
       N       E                     dE             d eps       ncg     rms          rms(c)
DAV:   1    -0.191684966069E+03   -0.15147E-01   -0.70992E-01  8160   0.183E+00    0.241E-01
DAV:   2    -0.191689586430E+03   -0.46204E-02   -0.27931E-02 12720   0.791E-01    0.643E-01
DAV:   3    -0.191685893459E+03    0.36930E-02   -0.10799E-02 11800   0.702E-01    0.221E-01
DAV:   4    -0.191686080962E+03   -0.18750E-03   -0.27974E-03 10000   0.342E-01    0.267E-01
DAV:   5    -0.191685352175E+03    0.72879E-03   -0.15975E-03  9560   0.291E-01    0.901E-02
DAV:   6    -0.191685386541E+03   -0.34366E-04   -0.58533E-04  9440   0.137E-01
  25 F= -.19168539E+03 E0= -.19157627E+03  d E =-.155957E-01
       N       E                     dE             d eps       ncg     rms          rms(c)
DAV:   1    -0.191732474873E+03   -0.47123E-01   -0.37717E+00  8160   0.414E+00    0.458E-01
DAV:   2    -0.191747416072E+03   -0.14941E-01   -0.96080E-02 13600   0.127E+00    0.109E+00
DAV:   3    -0.191736611721E+03    0.10804E-01   -0.36651E-02 12320   0.132E+00    0.451E-01
DAV:   4    -0.191736156771E+03    0.45495E-03   -0.91472E-03 10880   0.581E-01    0.397E-01
DAV:   5    -0.191734776157E+03    0.13806E-02   -0.49112E-03 11080   0.530E-01    0.242E-01
DAV:   6    -0.191734407507E+03    0.36865E-03   -0.23845E-03 11960   0.305E-01    0.169E-01
DAV:   7    -0.191734626805E+03   -0.21930E-03   -0.20579E-03  9880   0.307E-01    0.233E-01
DAV:   8    -0.191734082858E+03    0.54395E-03   -0.10036E-03  8480   0.218E-01    0.368E-02
DAV:   9    -0.191734083369E+03   -0.51115E-06   -0.64969E-05  5720   0.354E-02
  26 F= -.19173408E+03 E0= -.19162913E+03  d E =-.486968E-01
       N       E                     dE             d eps       ncg     rms          rms(c)
DAV:   1    -0.191756896268E+03   -0.22813E-01   -0.16964E+00  8160   0.280E+00    0.349E-01
DAV:   2    -0.191766497973E+03   -0.96017E-02   -0.58194E-02 12440   0.109E+00    0.906E-01
DAV:   3    -0.191759097663E+03    0.74003E-02   -0.21670E-02 12360   0.103E+00    0.309E-01
DAV:   4    -0.191758839946E+03    0.25772E-03   -0.38389E-03 10880   0.376E-01    0.280E-01
DAV:   5    -0.191758095957E+03    0.74399E-03   -0.22462E-03 10400   0.357E-01    0.151E-01
DAV:   6    -0.191758150605E+03   -0.54648E-04   -0.13578E-03  9840   0.231E-01    0.155E-01
DAV:   7    -0.191758063727E+03    0.86878E-04   -0.11039E-03  9240   0.232E-01    0.134E-01
DAV:   8    -0.191757856004E+03    0.20772E-03   -0.36951E-04  8080   0.132E-01    0.173E-02
DAV:   9    -0.191757862061E+03   -0.60568E-05   -0.33708E-05  6480   0.221E-02
  27 F= -.19175786E+03 E0= -.19165413E+03  d E =-.237787E-01
       N       E                     dE             d eps       ncg     rms          rms(c)
DAV:   1    -0.191809807606E+03   -0.51952E-01   -0.39329E+00  8160   0.425E+00    0.486E-01
DAV:   2    -0.191826015619E+03   -0.16208E-01   -0.11463E-01 13360   0.153E+00    0.112E+00
DAV:   3    -0.191814907675E+03    0.11108E-01   -0.36457E-02 11760   0.134E+00    0.456E-01
DAV:   4    -0.191815068559E+03   -0.16088E-03   -0.11780E-02 11440   0.706E-01    0.502E-01
DAV:   5    -0.191812704999E+03    0.23636E-02   -0.67120E-03 11360   0.623E-01    0.240E-01
DAV:   6    -0.191812263947E+03    0.44105E-03   -0.24647E-03 10400   0.289E-01    0.156E-01
DAV:   7    -0.191812538415E+03   -0.27447E-03   -0.19544E-03 10680   0.324E-01    0.233E-01
DAV:   8    -0.191811949015E+03    0.58940E-03   -0.89212E-04  8840   0.222E-01    0.318E-02
DAV:   9    -0.191811950696E+03   -0.16811E-05   -0.66009E-05  5760   0.342E-02
  28 F= -.19181195E+03 E0= -.19171245E+03  d E =-.540886E-01
       N       E                     dE             d eps       ncg     rms          rms(c)
DAV:   1    -0.191873336593E+03   -0.61388E-01   -0.48476E+00  8160   0.468E+00    0.514E-01
DAV:   2    -0.191894602599E+03   -0.21266E-01   -0.15418E-01 11760   0.160E+00    0.123E+00
DAV:   3    -0.191882752969E+03    0.11850E-01   -0.48681E-02 12080   0.151E+00    0.555E-01
DAV:   4    -0.191880780449E+03    0.19725E-02   -0.10189E-02 11280   0.647E-01    0.388E-01
DAV:   5    -0.191879325232E+03    0.14552E-02   -0.42686E-03 11440   0.530E-01    0.214E-01
DAV:   6    -0.191879012538E+03    0.31269E-03   -0.20585E-03 12400   0.272E-01    0.129E-01
DAV:   7    -0.191879152929E+03   -0.14039E-03   -0.12849E-03 10400   0.252E-01    0.190E-01
DAV:   8    -0.191878773060E+03    0.37987E-03   -0.66083E-04  8400   0.202E-01    0.350E-02
DAV:   9    -0.191878768635E+03    0.44258E-05   -0.61572E-05  5920   0.394E-02
  29 F= -.19187877E+03 E0= -.19178386E+03  d E =-.668179E-01
       N       E                     dE             d eps       ncg     rms          rms(c)
DAV:   1    -0.191945224018E+03   -0.66451E-01   -0.68788E+00  8160   0.562E+00    0.658E-01
DAV:   2    -0.191982568324E+03   -0.37344E-01   -0.25490E-01 12240   0.223E+00    0.169E+00
DAV:   3    -0.191959137098E+03    0.23431E-01   -0.80979E-02 12000   0.198E+00    0.632E-01
DAV:   4    -0.191957233555E+03    0.19035E-02   -0.16326E-02 11560   0.879E-01    0.537E-01
DAV:   5    -0.191954255121E+03    0.29784E-02   -0.78412E-03 11480   0.739E-01    0.281E-01
DAV:   6    -0.191953578328E+03    0.67679E-03   -0.36357E-03 11680   0.344E-01    0.151E-01
DAV:   7    -0.191953725596E+03   -0.14727E-03   -0.18780E-03 12200   0.305E-01    0.224E-01
DAV:   8    -0.191953182425E+03    0.54317E-03   -0.86202E-04  9080   0.239E-01    0.405E-02
DAV:   9    -0.191953169945E+03    0.12480E-04   -0.83689E-05  6120   0.464E-02
  30 F= -.19195317E+03 E0= -.19186209E+03  d E =-.744013E-01
       N       E                     dE             d eps       ncg     rms          rms(c)
DAV:   1    -0.191928566864E+03    0.24616E-01   -0.11380E+02  8160   0.229E+01    0.240E+00
DAV:   2    -0.192371143584E+03   -0.44258E+00   -0.38792E+00 11000   0.731E+00    0.523E+00
DAV:   3    -0.192213013679E+03    0.15813E+00   -0.11344E+00 12040   0.722E+00    0.249E+00
DAV:   4    -0.192140489451E+03    0.72524E-01   -0.14633E-01 12720   0.265E+00    0.132E+00
DAV:   5    -0.192129454245E+03    0.11035E-01   -0.70203E-02 11640   0.232E+00    0.122E+00
DAV:   6    -0.192119181096E+03    0.10273E-01   -0.57541E-02 12360   0.172E+00    0.722E-01
DAV:   7    -0.192116229166E+03    0.29519E-02   -0.26343E-02 12720   0.127E+00    0.696E-01
DAV:   8    -0.192110495702E+03    0.57335E-02   -0.93826E-03 12720   0.832E-01    0.169E-01
DAV:   9    -0.192110109226E+03    0.38648E-03   -0.15195E-03 11680   0.194E-01    0.815E-02
DAV:  10    -0.192109950618E+03    0.15861E-03   -0.59632E-04 11160   0.855E-02    0.492E-02
DAV:  11    -0.192109948489E+03    0.21286E-05   -0.18021E-04  6760   0.499E-02
  31 F= -.19210995E+03 E0= -.19202700E+03  d E =-.156779E+00
       N       E                     dE             d eps       ncg     rms          rms(c)
DAV:   1    -0.192062821899E+03    0.47129E-01   -0.25749E+01  8160   0.108E+01    0.112E+00
DAV:   2    -0.192142075040E+03   -0.79253E-01   -0.69707E-01 11040   0.325E+00    0.215E+00
DAV:   3    -0.192105549991E+03    0.36525E-01   -0.15866E-01 12480   0.306E+00    0.125E+00
DAV:   4    -0.192088437101E+03    0.17113E-01   -0.41356E-02 12840   0.127E+00    0.419E-01
DAV:   5    -0.192086445276E+03    0.19918E-02   -0.12585E-02 12040   0.547E-01    0.367E-01
DAV:   6    -0.192088114148E+03   -0.16689E-02   -0.10119E-02 12680   0.845E-01    0.524E-01
DAV:   7    -0.192084887500E+03    0.32266E-02   -0.52094E-03 11120   0.613E-01    0.153E-01
DAV:   8    -0.192084738492E+03    0.14901E-03   -0.10111E-03 10200   0.248E-01    0.119E-01
DAV:   9    -0.192084578800E+03    0.15969E-03   -0.33999E-04 10200   0.144E-01    0.388E-02
DAV:  10    -0.192084547477E+03    0.31323E-04   -0.11137E-04  7280   0.422E-02
  32 F= -.19208455E+03 E0= -.19199779E+03  d E =0.254010E-01
       N       E                     dE             d eps       ncg     rms          rms(c)
DAV:   1    -0.192110057240E+03   -0.25478E-01   -0.45544E+00  8160   0.454E+00    0.489E-01
DAV:   2    -0.192127706299E+03   -0.17649E-01   -0.16055E-01 11320   0.147E+00    0.946E-01
DAV:   3    -0.192121654166E+03    0.60521E-02   -0.32823E-02 12160   0.137E+00    0.559E-01
DAV:   4    -0.192118275001E+03    0.33792E-02   -0.69598E-03 11440   0.565E-01    0.215E-01
DAV:   5    -0.192118299685E+03   -0.24683E-04   -0.30425E-03 11320   0.437E-01    0.259E-01
DAV:   6    -0.192117915890E+03    0.38380E-03   -0.23638E-03 11920   0.382E-01    0.162E-01
DAV:   7    -0.192117726624E+03    0.18927E-03   -0.10363E-03 10080   0.247E-01    0.136E-01
DAV:   8    -0.192117520863E+03    0.20576E-03   -0.36217E-04  8960   0.160E-01    0.297E-02
DAV:   9    -0.192117511561E+03    0.93022E-05   -0.46261E-05  6640   0.359E-02
  33 F= -.19211751E+03 E0= -.19203186E+03  d E =-.329641E-01
       N       E                     dE             d eps       ncg     rms          rms(c)
DAV:   1    -0.192136818404E+03   -0.19298E-01   -0.53709E+00  8160   0.495E+00    0.542E-01
DAV:   2    -0.192155094113E+03   -0.18276E-01   -0.19994E-01 11760   0.144E+00    0.812E-01
DAV:   3    -0.192153526859E+03    0.15673E-02   -0.32053E-02 12040   0.141E+00    0.727E-01
DAV:   4    -0.192147472200E+03    0.60547E-02   -0.87987E-03 11320   0.699E-01    0.188E-01
DAV:   5    -0.192147989352E+03   -0.51715E-03   -0.38752E-03 11000   0.434E-01    0.296E-01
DAV:   6    -0.192147509932E+03    0.47942E-03   -0.32443E-03 11640   0.473E-01    0.203E-01
DAV:   7    -0.192146993291E+03    0.51664E-03   -0.10591E-03  9920   0.244E-01    0.956E-02
DAV:   8    -0.192146909588E+03    0.83703E-04   -0.25979E-04  9000   0.126E-01
  34 F= -.19214691E+03 E0= -.19206177E+03  d E =-.293980E-01
       N       E                     dE             d eps       ncg     rms          rms(c)
DAV:   1    -0.192159048226E+03   -0.12055E-01   -0.20479E+00  8160   0.305E+00    0.345E-01
DAV:   2    -0.192165175170E+03   -0.61269E-02   -0.78811E-02 11600   0.803E-01    0.372E-01
DAV:   3    -0.192166670302E+03   -0.14951E-02   -0.10087E-02 12320   0.834E-01    0.549E-01
DAV:   4    -0.192163373146E+03    0.32972E-02   -0.40984E-03 11000   0.537E-01    0.116E-01
DAV:   5    -0.192163791435E+03   -0.41829E-03   -0.18096E-03 10680   0.281E-01    0.218E-01
DAV:   6    -0.192163451444E+03    0.33999E-03   -0.15300E-03 10680   0.310E-01    0.123E-01
DAV:   7    -0.192163252564E+03    0.19888E-03   -0.37449E-04  8520   0.132E-01    0.400E-02
DAV:   8    -0.192163244080E+03    0.84842E-05   -0.68761E-05  7520   0.666E-02
  35 F= -.19216324E+03 E0= -.19207847E+03  d E =-.163345E-01
       N       E                     dE             d eps       ncg     rms          rms(c)
DAV:   1    -0.192173294515E+03   -0.10042E-01   -0.14743E+00  8160   0.259E+00    0.290E-01
DAV:   2    -0.192177353209E+03   -0.40587E-02   -0.54808E-02 11320   0.654E-01    0.263E-01
DAV:   3    -0.192178462282E+03   -0.11091E-02   -0.58283E-03 11720   0.652E-01    0.419E-01
DAV:   4    -0.192176443365E+03    0.20189E-02   -0.26519E-03 10680   0.452E-01    0.126E-01
DAV:   5    -0.192176680268E+03   -0.23690E-03   -0.10202E-03 10080   0.287E-01    0.183E-01
DAV:   6    -0.192176357906E+03    0.32236E-03   -0.71466E-04  9600   0.212E-01    0.601E-02
DAV:   7    -0.192176337723E+03    0.20183E-04   -0.16658E-04  7120   0.101E-01
  36 F= -.19217634E+03 E0= -.19209187E+03  d E =-.130936E-01
       N       E                     dE             d eps       ncg     rms          rms(c)
DAV:   1    -0.192180286771E+03   -0.39289E-02   -0.17625E-01  8160   0.911E-01    0.116E-01
DAV:   2    -0.192180671635E+03   -0.38486E-03   -0.70236E-03 10080   0.234E-01    0.969E-02
DAV:   3    -0.192180917255E+03   -0.24562E-03   -0.11552E-03 11840   0.258E-01    0.186E-01
DAV:   4    -0.192180532728E+03    0.38453E-03   -0.59099E-04  9320   0.199E-01    0.420E-02
DAV:   5    -0.192180563687E+03   -0.30960E-04   -0.12410E-04  5480   0.845E-02
  37 F= -.19218056E+03 E0= -.19209605E+03  d E =-.422596E-02
       N       E                     dE             d eps       ncg     rms          rms(c)
DAV:   1    -0.192185060061E+03   -0.45273E-02   -0.21807E-01  8160   0.101E+00    0.130E-01
DAV:   2    -0.192185987529E+03   -0.92747E-03   -0.88352E-03 10240   0.354E-01    0.214E-01
DAV:   3    -0.192185608482E+03    0.37905E-03   -0.16058E-03 12040   0.339E-01    0.128E-01
DAV:   4    -0.192185482775E+03    0.12571E-03   -0.41243E-04  8080   0.165E-01    0.859E-02
DAV:   5    -0.192185433918E+03    0.48857E-04   -0.23384E-04  8160   0.137E-01
  38 F= -.19218543E+03 E0= -.19210109E+03  d E =-.487023E-02
       N       E                     dE             d eps       ncg     rms          rms(c)
DAV:   1    -0.192195121895E+03   -0.96391E-02   -0.17800E+00  8160   0.287E+00    0.355E-01
DAV:   2    -0.192202210296E+03   -0.70884E-02   -0.66701E-02 11320   0.104E+00    0.596E-01
DAV:   3    -0.192199114095E+03    0.30962E-02   -0.12331E-02 12240   0.918E-01    0.340E-01
DAV:   4    -0.192198248703E+03    0.86539E-03   -0.31096E-03 11080   0.444E-01    0.238E-01
DAV:   5    -0.192197795566E+03    0.45314E-03   -0.16524E-03 10280   0.367E-01    0.147E-01
DAV:   6    -0.192197691482E+03    0.10408E-03   -0.90958E-04 10560   0.200E-01    0.803E-02
DAV:   7    -0.192197626927E+03    0.64555E-04   -0.33886E-04  9240   0.129E-01
  39 F= -.19219763E+03 E0= -.19211354E+03  d E =-.121930E-01
       N       E                     dE             d eps       ncg     rms          rms(c)
DAV:   1    -0.192200717836E+03   -0.30264E-02   -0.15315E-01  8160   0.856E-01    0.123E-01
DAV:   2    -0.192200953956E+03   -0.23612E-03   -0.68370E-03 10240   0.215E-01    0.730E-02
DAV:   3    -0.192200977132E+03   -0.23176E-04   -0.61245E-04 10120   0.139E-01
  40 F= -.19220098E+03 E0= -.19211665E+03  d E =-.335021E-02
       N       E                     dE             d eps       ncg     rms          rms(c)
DAV:   1    -0.192205814828E+03   -0.48609E-02   -0.51822E-01  8160   0.156E+00    0.222E-01
DAV:   2    -0.192206515405E+03   -0.70058E-03   -0.19356E-02 11120   0.378E-01    0.171E-01
DAV:   3    -0.192207212923E+03   -0.69752E-03   -0.32682E-03 12240   0.433E-01    0.334E-01
DAV:   4    -0.192206079369E+03    0.11336E-02   -0.21466E-03  9960   0.383E-01    0.107E-01
DAV:   5    -0.192205945333E+03    0.13404E-03   -0.66417E-04  9600   0.126E-01    0.540E-02
DAV:   6    -0.192205962803E+03   -0.17470E-04   -0.22813E-04  8120   0.107E-01
  41 F= -.19220596E+03 E0= -.19212181E+03  d E =-.498567E-02
       N       E                     dE             d eps       ncg     rms          rms(c)
DAV:   1    -0.192206248519E+03   -0.30319E-03   -0.21595E-02  8160   0.351E-01    0.958E-02
DAV:   2    -0.192206182481E+03    0.66038E-04   -0.13674E-03 11360   0.209E-01    0.136E-01
DAV:   3    -0.192206027349E+03    0.15513E-03   -0.61954E-04  9400   0.222E-01    0.860E-02
DAV:   4    -0.192205974645E+03    0.52704E-04   -0.33447E-04  8360   0.143E-01
  42 F= -.19220597E+03 E0= -.19212184E+03  d E =-.118418E-04
       N       E                     dE             d eps       ncg     rms          rms(c)
DAV:   1    -0.192207858037E+03   -0.18307E-02   -0.95039E-02  8160   0.705E-01    0.132E-01
DAV:   2    -0.192208010410E+03   -0.15237E-03   -0.53893E-03 10200   0.279E-01    0.173E-01
DAV:   3    -0.192207964842E+03    0.45568E-04   -0.15670E-03 11200   0.322E-01    0.176E-01
DAV:   4    -0.192207611716E+03    0.35313E-03   -0.58652E-04  8240   0.197E-01    0.550E-02
DAV:   5    -0.192207635870E+03   -0.24154E-04   -0.27450E-04  7480   0.115E-01
  43 F= -.19220764E+03 E0= -.19212409E+03  d E =-.166123E-02
       N       E                     dE             d eps       ncg     rms          rms(c)
DAV:   1    -0.192209299286E+03   -0.16876E-02   -0.73438E-02  8160   0.598E-01    0.794E-02
DAV:   2    -0.192209509733E+03   -0.21045E-03   -0.33423E-03 10160   0.173E-01    0.839E-02
DAV:   3    -0.192209547450E+03   -0.37717E-04   -0.58075E-04 10160   0.186E-01
  44 F= -.19220955E+03 E0= -.19212565E+03  d E =-.191158E-02
       N       E                     dE             d eps       ncg     rms          rms(c)
DAV:   1    -0.192210183488E+03   -0.67376E-03   -0.17175E-02  9520   0.312E-01    0.670E-02
DAV:   2    -0.192210456524E+03   -0.27304E-03   -0.12825E-03 11600   0.215E-01    0.168E-01
DAV:   3    -0.192210145692E+03    0.31083E-03   -0.59572E-04  9280   0.202E-01    0.532E-02
DAV:   4    -0.192210124528E+03    0.21164E-04   -0.12051E-04  5680   0.743E-02
  45 F= -.19221012E+03 E0= -.19212634E+03  d E =-.577078E-03
       N       E                     dE             d eps       ncg     rms          rms(c)
DAV:   1    -0.192212239430E+03   -0.20937E-02   -0.15765E-01  8160   0.855E-01    0.120E-01
DAV:   2    -0.192213292730E+03   -0.10533E-02   -0.70344E-03 11720   0.371E-01    0.249E-01
DAV:   3    -0.192212563882E+03    0.72885E-03   -0.16046E-03 11360   0.346E-01    0.948E-02
DAV:   4    -0.192212553007E+03    0.10874E-04   -0.33447E-04  8280   0.143E-01
  46 F= -.19221255E+03 E0= -.19212867E+03  d E =-.242848E-02
       N       E                     dE             d eps       ncg     rms          rms(c)
DAV:   1    -0.192213512628E+03   -0.94875E-03   -0.35474E-02  8160   0.424E-01    0.854E-02
DAV:   2    -0.192213745226E+03   -0.23260E-03   -0.18956E-03 10400   0.218E-01    0.163E-01
DAV:   3    -0.192213478672E+03    0.26655E-03   -0.69760E-04  9560   0.226E-01    0.767E-02
DAV:   4    -0.192213440205E+03    0.38467E-04   -0.19499E-04  7640   0.105E-01
  47 F= -.19221344E+03 E0= -.19212962E+03  d E =-.887198E-03
       N       E                     dE             d eps       ncg     rms          rms(c)
DAV:   1    -0.192215974852E+03   -0.24962E-02   -0.49388E-01  8160   0.150E+00    0.195E-01
DAV:   2    -0.192218405964E+03   -0.24311E-02   -0.20362E-02 11040   0.562E-01    0.336E-01
DAV:   3    -0.192217145341E+03    0.12606E-02   -0.33082E-03 12680   0.513E-01    0.152E-01
DAV:   4    -0.192216885336E+03    0.26001E-03   -0.54055E-04  9560   0.174E-01    0.797E-02
DAV:   5    -0.192216988596E+03   -0.10326E-03   -0.51213E-04 10000   0.189E-01    0.125E-01
DAV:   6    -0.192216848932E+03    0.13966E-03   -0.37916E-04  8200   0.151E-01    0.359E-02
DAV:   7    -0.192216829376E+03    0.19557E-04   -0.71306E-05  6640   0.414E-02
  48 F= -.19221683E+03 E0= -.19213291E+03  d E =-.338917E-02
       N       E                     dE             d eps       ncg     rms          rms(c)
DAV:   1    -0.192218257736E+03   -0.14088E-02   -0.39198E-01  8160   0.133E+00    0.155E-01
DAV:   2    -0.192220148032E+03   -0.18903E-02   -0.17288E-02 10160   0.507E-01    0.277E-01
DAV:   3    -0.192219483631E+03    0.66440E-03   -0.28028E-03 12840   0.425E-01    0.150E-01
DAV:   4    -0.192219280491E+03    0.20314E-03   -0.55454E-04  8560   0.186E-01    0.889E-02
DAV:   5    -0.192219229579E+03    0.50912E-04   -0.24116E-04  8720   0.143E-01
  49 F= -.19221923E+03 E0= -.19213539E+03  d E =-.240020E-02
       N       E                     dE             d eps       ncg     rms          rms(c)
DAV:   1    -0.192219081295E+03    0.19920E-03   -0.11633E-02  8200   0.236E-01    0.458E-02
DAV:   2    -0.192219276028E+03   -0.19473E-03   -0.77815E-04 11560   0.159E-01    0.130E-01
DAV:   3    -0.192219082318E+03    0.19371E-03   -0.33415E-04  8480   0.156E-01    0.416E-02
DAV:   4    -0.192219067927E+03    0.14391E-04   -0.54570E-05  5640   0.469E-02
  50 F= -.19221907E+03 E0= -.19213525E+03  d E =0.161652E-03
