<?xml version="1.0" encoding="ISO-8859-1"?>
<modeling>
 <generator>
  <i name="program" type="string">vasp </i>
  <i name="version" type="string">5.4.1  </i>
  <i name="subversion" type="string">05Feb16 (build Jul 05 2020 17:13:04) complex                          parallel </i>
  <i name="platform" type="string">IFC91_ompi </i>
  <i name="date" type="string">2024 04 22 </i>
  <i name="time" type="string">18:47:13 </i>
 </generator>
 <incar>
  <i type="int" name="ISTART">     0</i>
  <i type="string" name="PREC">normal</i>
  <i type="string" name="ALGO"> Normal</i>
  <i type="int" name="ISPIN">     1</i>
  <i type="int" name="ICHARG">     2</i>
  <i type="int" name="IBRION">     1</i>
  <i type="int" name="NSW">   100</i>
  <i type="int" name="ISIF">     3</i>
  <i type="int" name="ISYM">     0</i>
  <i name="SYMPREC">      0.00000001</i>
  <i name="POTIM">      0.50000000</i>
  <i type="logical" name="LREAL"> F  </i>
  <i type="logical" name="LPLANE"> F  </i>
  <i type="int" name="ISMEAR">     0</i>
  <i type="logical" name="LWAVE"> F  </i>
  <i type="logical" name="LCHARG"> F  </i>
  <v type="int" name="KPOINT_BSE">    -1     0     0     0</v>
 </incar>
 <kpoints>
  <generation param="Gamma">
   <v type="int" name="divisions">       8        8        1 </v>
   <v name="usershift">      0.00000000       0.00000000       0.00000000 </v>
   <v name="genvec1">      0.12500000       0.00000000       0.00000000 </v>
   <v name="genvec2">     -0.00000000       0.12500000       0.00000000 </v>
   <v name="genvec3">      0.00000000       0.00000000       1.00000000 </v>
   <v name="shift">      0.00000000       0.00000000       0.00000000 </v>
  </generation>
  <varray name="kpointlist" >
   <v>       0.00000000       0.00000000       0.00000000 </v>
   <v>       0.12500000       0.00000000       0.00000000 </v>
   <v>       0.25000000       0.00000000       0.00000000 </v>
   <v>       0.37500000       0.00000000       0.00000000 </v>
   <v>       0.50000000       0.00000000       0.00000000 </v>
   <v>       0.00000000       0.12500000       0.00000000 </v>
   <v>       0.12500000       0.12500000       0.00000000 </v>
   <v>       0.25000000       0.12500000       0.00000000 </v>
   <v>       0.37500000       0.12500000       0.00000000 </v>
   <v>       0.50000000       0.12500000       0.00000000 </v>
   <v>      -0.37500000       0.12500000       0.00000000 </v>
   <v>      -0.25000000       0.12500000       0.00000000 </v>
   <v>      -0.12500000       0.12500000       0.00000000 </v>
   <v>       0.00000000       0.25000000       0.00000000 </v>
   <v>       0.12500000       0.25000000       0.00000000 </v>
   <v>       0.25000000       0.25000000       0.00000000 </v>
   <v>       0.37500000       0.25000000       0.00000000 </v>
   <v>       0.50000000       0.25000000       0.00000000 </v>
   <v>      -0.37500000       0.25000000       0.00000000 </v>
   <v>      -0.25000000       0.25000000       0.00000000 </v>
   <v>      -0.12500000       0.25000000       0.00000000 </v>
   <v>      -0.00000000       0.37500000       0.00000000 </v>
   <v>       0.12500000       0.37500000       0.00000000 </v>
   <v>       0.25000000       0.37500000       0.00000000 </v>
   <v>       0.37500000       0.37500000       0.00000000 </v>
   <v>       0.50000000       0.37500000       0.00000000 </v>
   <v>      -0.37500000       0.37500000       0.00000000 </v>
   <v>      -0.25000000       0.37500000       0.00000000 </v>
   <v>      -0.12500000       0.37500000       0.00000000 </v>
   <v>       0.00000000       0.50000000       0.00000000 </v>
   <v>       0.12500000       0.50000000       0.00000000 </v>
   <v>       0.25000000       0.50000000       0.00000000 </v>
   <v>       0.37500000       0.50000000       0.00000000 </v>
   <v>       0.50000000       0.50000000       0.00000000 </v>
  </varray>
  <varray name="weights" >
   <v>       0.01562500 </v>
   <v>       0.03125000 </v>
   <v>       0.03125000 </v>
   <v>       0.03125000 </v>
   <v>       0.01562500 </v>
   <v>       0.03125000 </v>
   <v>       0.03125000 </v>
   <v>       0.03125000 </v>
   <v>       0.03125000 </v>
   <v>       0.03125000 </v>
   <v>       0.03125000 </v>
   <v>       0.03125000 </v>
   <v>       0.03125000 </v>
   <v>       0.03125000 </v>
   <v>       0.03125000 </v>
   <v>       0.03125000 </v>
   <v>       0.03125000 </v>
   <v>       0.03125000 </v>
   <v>       0.03125000 </v>
   <v>       0.03125000 </v>
   <v>       0.03125000 </v>
   <v>       0.03125000 </v>
   <v>       0.03125000 </v>
   <v>       0.03125000 </v>
   <v>       0.03125000 </v>
   <v>       0.03125000 </v>
   <v>       0.03125000 </v>
   <v>       0.03125000 </v>
   <v>       0.03125000 </v>
   <v>       0.01562500 </v>
   <v>       0.03125000 </v>
   <v>       0.03125000 </v>
   <v>       0.03125000 </v>
   <v>       0.01562500 </v>
  </varray>
 </kpoints>
 <parameters>
  <separator name="general" >
   <i type="string" name="SYSTEM">unknown system</i>
   <i type="logical" name="LCOMPAT"> F  </i>
  </separator>
  <separator name="electronic" >
   <i type="string" name="PREC">normal</i>
   <i name="ENMAX">    280.00000000</i>
   <i name="ENAUG">    373.43800000</i>
   <i name="EDIFF">      0.00010000</i>
   <i type="int" name="IALGO">    38</i>
   <i type="int" name="IWAVPR">    11</i>
   <i type="int" name="NBANDS">   120</i>
   <i name="NELECT">    159.00000000</i>
   <i type="int" name="TURBO">     0</i>
   <i type="int" name="IRESTART">     0</i>
   <i type="int" name="NREBOOT">     0</i>
   <i type="int" name="NMIN">     0</i>
   <i name="EREF">      0.00000000</i>
   <separator name="electronic smearing" >
    <i type="int" name="ISMEAR">     0</i>
    <i name="SIGMA">      0.20000000</i>
    <i name="KSPACING">      0.50000000</i>
    <i type="logical" name="KGAMMA"> T  </i>
   </separator>
   <separator name="electronic projectors" >
    <i type="logical" name="LREAL"> F  </i>
    <v name="ROPT">      0.00000000      0.00000000      0.00000000      0.00000000</v>
    <i type="int" name="LMAXPAW">  -100</i>
    <i type="int" name="LMAXMIX">     2</i>
    <i type="logical" name="NLSPLINE"> F  </i>
   </separator>
   <separator name="electronic startup" >
    <i type="int" name="ISTART">     0</i>
    <i type="int" name="ICHARG">     2</i>
    <i type="int" name="INIWAV">     1</i>
   </separator>
   <separator name="electronic spin" >
    <i type="int" name="ISPIN">     1</i>
    <i type="logical" name="LNONCOLLINEAR"> F  </i>
    <v name="MAGMOM">      1.00000000      1.00000000      1.00000000      1.00000000      1.00000000      1.00000000      1.00000000      1.00000000      1.00000000      1.00000000      1.00000000      1.00000000      1.00000000      1.00000000      1.00000000      1.00000000      1.00000000      1.00000000      1.00000000      1.00000000
      1.00000000      1.00000000      1.00000000      1.00000000      1.00000000      1.00000000      1.00000000</v>
    <i name="NUPDOWN">     -1.00000000</i>
    <i type="logical" name="LSORBIT"> F  </i>
    <v name="SAXIS">      0.00000000      0.00000000      1.00000000</v>
    <i type="logical" name="LSPIRAL"> F  </i>
    <v name="QSPIRAL">      0.00000000      0.00000000      0.00000000</v>
    <i type="logical" name="LZEROZ"> F  </i>
   </separator>
   <separator name="electronic exchange-correlation" >
    <i type="logical" name="LASPH"> F  </i>
    <i type="logical" name="LMETAGGA"> F  </i>
   </separator>
   <separator name="electronic convergence" >
    <i type="int" name="NELM">    60</i>
    <i type="int" name="NELMDL">    -5</i>
    <i type="int" name="NELMIN">     2</i>
    <i name="ENINI">    280.00000000</i>
    <separator name="electronic convergence detail" >
     <i type="logical" name="LDIAG"> T  </i>
     <i type="logical" name="LSUBROT"> F  </i>
     <i name="WEIMIN">      0.00100000</i>
     <i name="EBREAK">      0.00000021</i>
     <i name="DEPER">      0.30000000</i>
     <i type="int" name="NRMM">     4</i>
     <i name="TIME">      0.40000000</i>
    </separator>
   </separator>
   <separator name="electronic mixer" >
    <i name="AMIX">      0.40000000</i>
    <i name="BMIX">      1.00000000</i>
    <i name="AMIN">      0.10000000</i>
    <i name="AMIX_MAG">      1.60000000</i>
    <i name="BMIX_MAG">      1.00000000</i>
    <separator name="electronic mixer details" >
     <i type="int" name="IMIX">     4</i>
     <i type="logical" name="MIXFIRST"> F  </i>
     <i type="int" name="MAXMIX">   -45</i>
     <i name="WC">    100.00000000</i>
     <i type="int" name="INIMIX">     1</i>
     <i type="int" name="MIXPRE">     1</i>
     <i type="int" name="MREMOVE">     5</i>
    </separator>
   </separator>
   <separator name="electronic dipolcorrection" >
    <i type="logical" name="LDIPOL"> F  </i>
    <i type="logical" name="LMONO"> F  </i>
    <i type="int" name="IDIPOL">     0</i>
    <i name="EPSILON">      1.00000000</i>
    <v name="DIPOL">   -100.00000000   -100.00000000   -100.00000000</v>
    <i name="EFIELD">      0.00000000</i>
   </separator>
  </separator>
  <separator name="grids" >
   <i type="int" name="NGX">    42</i>
   <i type="int" name="NGY">    42</i>
   <i type="int" name="NGZ">   126</i>
   <i type="int" name="NGXF">    84</i>
   <i type="int" name="NGYF">    84</i>
   <i type="int" name="NGZF">   252</i>
   <i type="logical" name="ADDGRID"> F  </i>
  </separator>
  <separator name="ionic" >
   <i type="int" name="NSW">   100</i>
   <i type="int" name="IBRION">     1</i>
   <i type="int" name="ISIF">     3</i>
   <i name="PSTRESS">      0.00000000</i>
   <i name="EDIFFG">      0.00100000</i>
   <i type="int" name="NFREE">     0</i>
   <i name="POTIM">      0.50000000</i>
   <i name="SMASS">     -3.00000000</i>
   <i name="SCALEE">      1.00000000</i>
  </separator>
  <separator name="ionic md" >
   <i name="TEBEG">      0.00010000</i>
   <i name="TEEND">      0.00010000</i>
   <i type="int" name="NBLOCK">     1</i>
   <i type="int" name="KBLOCK">   100</i>
   <i type="int" name="NPACO">   256</i>
   <i name="APACO">     16.00000000</i>
  </separator>
  <separator name="symmetry" >
   <i type="int" name="ISYM">     0</i>
   <i name="SYMPREC">      0.00000001</i>
  </separator>
  <separator name="dos" >
   <i type="logical" name="LORBIT"> F  </i>
   <v name="RWIGS">     -1.00000000     -1.00000000     -1.00000000     -1.00000000</v>
   <i type="int" name="NEDOS">   301</i>
   <i name="EMIN">     10.00000000</i>
   <i name="EMAX">    -10.00000000</i>
   <i name="EFERMI">      0.00000000</i>
  </separator>
  <separator name="writing" >
   <i type="int" name="NWRITE">     2</i>
   <i type="logical" name="LWAVE"> F  </i>
   <i type="logical" name="LCHARG"> F  </i>
   <i type="logical" name="LPARD"> F  </i>
   <i type="logical" name="LVTOT"> F  </i>
   <i type="logical" name="LVHAR"> F  </i>
   <i type="logical" name="LELF"> F  </i>
   <i type="logical" name="LOPTICS"> F  </i>
   <v name="STM">      0.00000000      0.00000000      0.00000000      0.00000000      0.00000000      0.00000000      0.00000000</v>
  </separator>
  <separator name="performance" >
   <i type="int" name="NPAR">    40</i>
   <i type="int" name="NSIM">     4</i>
   <i type="int" name="NBLK">    -1</i>
   <i type="logical" name="LPLANE"> F  </i>
   <i type="logical" name="LSCALAPACK"> T  </i>
   <i type="logical" name="LSCAAWARE"> F  </i>
   <i type="logical" name="LSCALU"> F  </i>
   <i type="logical" name="LASYNC"> F  </i>
   <i type="logical" name="LORBITALREAL"> F  </i>
  </separator>
  <separator name="miscellaneous" >
   <i type="int" name="IDIOT">     3</i>
   <i type="logical" name="LMUSIC"> F  </i>
   <v name="POMASS">     50.94100000     95.94000000    183.85000000     32.06600000</v>
   <v name="DARWINR">      0.00000000      0.00000000      0.00000000      0.00000000</v>
   <v name="DARWINV">      1.00000000      1.00000000      1.00000000      1.00000000</v>
   <i type="logical" name="LCORR"> T  </i>
  </separator>
  <i type="logical" name="GGA_COMPAT"> T  </i>
  <i type="logical" name="LBERRY"> F  </i>
  <i type="int" name="ICORELEVEL">     0</i>
  <i type="logical" name="LDAU"> F  </i>
  <i type="int" name="I_CONSTRAINED_M">     0</i>
  <separator name="electronic exchange-correlation" >
   <i type="string" name="GGA">--</i>
   <i type="int" name="VOSKOWN">     0</i>
   <i type="logical" name="LHFCALC"> F  </i>
   <i type="string" name="PRECFOCK"></i>
   <i type="logical" name="LSYMGRAD"> F  </i>
   <i type="logical" name="LHFONE"> F  </i>
   <i type="logical" name="LRHFCALC"> F  </i>
   <i type="logical" name="LTHOMAS"> F  </i>
   <i type="logical" name="LMODELHF"> F  </i>
   <i name="ENCUT4O">     -1.00000000</i>
   <i type="int" name="EXXOEP">     0</i>
   <i type="int" name="FOURORBIT">     0</i>
   <i name="AEXX">      0.00000000</i>
   <i name="HFALPHA">      0.00000000</i>
   <i name="MCALPHA">      0.00000000</i>
   <i name="ALDAX">      1.00000000</i>
   <i name="AGGAX">      1.00000000</i>
   <i name="ALDAC">      1.00000000</i>
   <i name="AGGAC">      1.00000000</i>
   <i type="int" name="NKREDX">     1</i>
   <i type="int" name="NKREDY">     1</i>
   <i type="int" name="NKREDZ">     1</i>
   <i type="logical" name="SHIFTRED"> F  </i>
   <i type="logical" name="ODDONLY"> F  </i>
   <i type="logical" name="EVENONLY"> F  </i>
   <i type="int" name="LMAXFOCK">     0</i>
   <i type="int" name="NMAXFOCKAE">     0</i>
   <i type="logical" name="LFOCKAEDFT"> F  </i>
   <i name="HFSCREEN">      0.00000000</i>
   <i name="HFSCREENC">      0.00000000</i>
   <i type="int" name="NBANDSGWLOW">     0</i>
  </separator>
  <separator name="vdW DFT" >
   <i type="logical" name="LUSE_VDW"> F  </i>
   <i name="Zab_VDW">     -0.84910000</i>
   <i name="PARAM1">      0.12340000</i>
   <i name="PARAM2">      1.00000000</i>
   <i name="PARAM3">      0.00000000</i>
  </separator>
  <separator name="model GW" >
   <i type="int" name="MODEL_GW">     0</i>
   <i name="MODEL_EPS0">     58.26239943</i>
   <i name="MODEL_ALPHA">      1.00000000</i>
  </separator>
  <separator name="linear response parameters" >
   <i type="logical" name="LEPSILON"> F  </i>
   <i type="logical" name="LRPA"> F  </i>
   <i type="logical" name="LNABLA"> F  </i>
   <i type="logical" name="LVEL"> F  </i>
   <i type="int" name="KINTER">     0</i>
   <i name="CSHIFT">      0.10000000</i>
   <i name="OMEGAMAX">     -1.00000000</i>
   <i name="DEG_THRESHOLD">      0.00200000</i>
  </separator>
  <separator name="orbital magnetization" >
   <i type="logical" name="NUCIND"> F  </i>
   <v name="MAGPOS">      0.00000000      0.00000000      0.00000000</v>
   <i type="logical" name="LNICSALL"> T  </i>
   <i type="logical" name="ORBITALMAG"> F  </i>
   <i type="logical" name="LMAGBLOCH"> F  </i>
   <i type="logical" name="LCHIMAG"> F  </i>
   <i type="logical" name="LGAUGE"> T  </i>
   <i type="int" name="MAGATOM">     0</i>
   <v name="MAGDIPOL">      0.00000000      0.00000000      0.00000000</v>
   <v name="AVECCONST">      0.00000000      0.00000000      0.00000000</v>
  </separator>
  <separator name="response functions" >
   <i type="logical" name="LADDER"> F  </i>
   <i type="logical" name="LFXC"> F  </i>
   <i type="logical" name="LHARTREE"> T  </i>
   <i type="int" name="IBSE">     0</i>
   <v type="int" name="KPOINT">    -1     0     0     0</v>
   <i type="logical" name="LTCTE"> F  </i>
   <i type="logical" name="LTETE"> F  </i>
   <i type="logical" name="LTRIPLET"> F  </i>
   <i type="logical" name="LFXCEPS"> F  </i>
   <i type="logical" name="LFXHEG"> F  </i>
   <i type="int" name="NATURALO">     0</i>
   <i type="logical" name="L2ORDER"> F  </i>
   <i type="logical" name="LUSEW"> F  </i>
   <i name="ENCUTGW">     -2.00000000</i>
   <i name="ENCUTGWSOFT">     -2.00000000</i>
   <i name="ENCUTLF">     -1.00000000</i>
   <i type="int" name="LMAXMP2">    -1</i>
   <i name="SCISSOR">      0.00000000</i>
   <i type="int" name="NOMEGA">     0</i>
   <i type="int" name="NOMEGAR">     0</i>
   <i type="int" name="NBANDSGW">    -1</i>
   <i type="int" name="NBANDSO">    -1</i>
   <i type="int" name="NBANDSV">    -1</i>
   <i type="int" name="NELM">     1</i>
   <i type="int" name="NELMHF">     1</i>
   <i type="int" name="DIM">     3</i>
   <i type="int" name="ANTIRES">     0</i>
   <i name="OMEGAMAX">    -30.00000000</i>
   <i name="OMEGAMIN">    -30.00000000</i>
   <i name="OMEGATL">   -200.00000000</i>
   <i type="int" name="OMEGAGRID">     0</i>
   <i name="CSHIFT">     -0.10000000</i>
   <i type="logical" name="SELFENERGY"> F  </i>
   <i type="logical" name="LSPECTRAL"> F  </i>
   <i type="logical" name="LSPECTRALGW"> F  </i>
   <i type="logical" name="LSINGLES"> F  </i>
   <i type="logical" name="LFERMIGW"> F  </i>
   <i type="logical" name="ODDONLYGW"> F  </i>
   <i type="logical" name="EVENONLYGW"> F  </i>
   <i type="int" name="NKREDLFX">     1</i>
   <i type="int" name="NKREDLFY">     1</i>
   <i type="int" name="NKREDLFZ">     1</i>
   <i type="int" name="MAXMEM">  1800</i>
   <i type="int" name="TELESCOPE">     0</i>
   <i type="int" name="TAUPAR">     1</i>
   <i type="int" name="OMEGAPAR">    -1</i>
   <i name="LAMBDA">      1.00000000</i>
  </separator>
  <separator name="External order field" >
   <i name="OFIELD_KAPPA">      0.00000000</i>
   <v name="OFIELD_K">      0.00000000      0.00000000      0.00000000</v>
   <i name="OFIELD_Q6_NEAR">      0.00000000</i>
   <i name="OFIELD_Q6_FAR">      0.00000000</i>
   <i name="OFIELD_A">      0.00000000</i>
  </separator>
 </parameters>
 <atominfo>
  <atoms>      27 </atoms>
  <types>       4 </types>
  <array name="atoms" >
   <dimension dim="1">ion</dimension>
   <field type="string">element</field>
   <field type="int">atomtype</field>
   <set>
    <rc><c>V </c><c>   1</c></rc>
    <rc><c>V </c><c>   1</c></rc>
    <rc><c>V </c><c>   1</c></rc>
    <rc><c>Mo</c><c>   2</c></rc>
    <rc><c>Mo</c><c>   2</c></rc>
    <rc><c>Mo</c><c>   2</c></rc>
    <rc><c>W </c><c>   3</c></rc>
    <rc><c>W </c><c>   3</c></rc>
    <rc><c>W </c><c>   3</c></rc>
    <rc><c>S </c><c>   4</c></rc>
    <rc><c>S </c><c>   4</c></rc>
    <rc><c>S </c><c>   4</c></rc>
    <rc><c>S </c><c>   4</c></rc>
    <rc><c>S </c><c>   4</c></rc>
    <rc><c>S </c><c>   4</c></rc>
    <rc><c>S </c><c>   4</c></rc>
    <rc><c>S </c><c>   4</c></rc>
    <rc><c>S </c><c>   4</c></rc>
    <rc><c>S </c><c>   4</c></rc>
    <rc><c>S </c><c>   4</c></rc>
    <rc><c>S </c><c>   4</c></rc>
    <rc><c>S </c><c>   4</c></rc>
    <rc><c>S </c><c>   4</c></rc>
    <rc><c>S </c><c>   4</c></rc>
    <rc><c>S </c><c>   4</c></rc>
    <rc><c>S </c><c>   4</c></rc>
    <rc><c>S </c><c>   4</c></rc>
   </set>
  </array>
  <array name="atomtypes" >
   <dimension dim="1">type</dimension>
   <field type="int">atomspertype</field>
   <field type="string">element</field>
   <field>mass</field>
   <field>valence</field>
   <field type="string">pseudopotential</field>
   <set>
    <rc><c>   3</c><c>V </c><c>     50.94100000</c><c>      5.00000000</c><c> PAW_PBE V 08Apr2002                    </c></rc>
    <rc><c>   3</c><c>Mo</c><c>     95.94000000</c><c>      6.00000000</c><c> PAW_PBE Mo 08Apr2002                   </c></rc>
    <rc><c>   3</c><c>W </c><c>    183.85000000</c><c>      6.00000000</c><c> PAW_PBE W 08Apr2002                    </c></rc>
    <rc><c>  18</c><c>S </c><c>     32.06600000</c><c>      6.00000000</c><c>  PAW_PBE S 17Jan2003                   </c></rc>
   </set>
  </array>
 </atominfo>
 <structure name="initialpos" >
  <crystal>
   <varray name="basis" >
    <v>       8.66999996       5.03999989       0.00000000 </v>
    <v>      -8.66999982       5.04000013       0.00000000 </v>
    <v>       0.00000000       0.00000000      30.00000000 </v>
   </varray>
   <i name="volume">   2621.80797419 </i>
   <varray name="rec_basis" >
    <v>       0.05767013       0.09920635       0.00000000 </v>
    <v>      -0.05767013       0.09920635       0.00000000 </v>
    <v>       0.00000000       0.00000000       0.03333333 </v>
   </varray>
  </crystal>
  <varray name="positions" >
   <v>       0.33333334       0.66666669       0.00000000 </v>
   <v>       0.66666669       0.66666669       0.00000000 </v>
   <v>       1.00000000       0.33333334       0.00000000 </v>
   <v>       0.00000000       0.00000000       0.00000000 </v>
   <v>       0.33333334       0.00000000       0.00000000 </v>
   <v>       0.00000000       0.66666669       0.00000000 </v>
   <v>       0.33333334       0.33333334       0.00000000 </v>
   <v>       0.66666669       0.00000000       0.00000000 </v>
   <v>       0.66666669       0.33333334       0.00000000 </v>
   <v>       0.11068511       0.22244981       0.95539999 </v>
   <v>       0.22244981       0.11068511       0.04460000 </v>
   <v>       0.11068511       0.55578315       0.95539999 </v>
   <v>       0.22244981       0.44401845       0.04460000 </v>
   <v>       0.11068511       0.88911647       0.95539999 </v>
   <v>       0.22244981       0.77735180       0.04460000 </v>
   <v>       0.44401845       0.22244981       0.95539999 </v>
   <v>       0.55578315       0.11068511       0.04460000 </v>
   <v>       0.44401845       0.55578315       0.95539999 </v>
   <v>       0.55578315       0.44401845       0.04460000 </v>
   <v>       0.44401845       0.88911647       0.95539999 </v>
   <v>       0.55578315       0.77735180       0.04460000 </v>
   <v>       0.77735180       0.22244981       0.95539999 </v>
   <v>       0.88911647       0.11068511       0.04460000 </v>
   <v>       0.77735180       0.55578315       0.95539999 </v>
   <v>       0.88911647       0.44401845       0.04460000 </v>
   <v>       0.77735180       0.88911647       0.95539999 </v>
   <v>       0.88911647       0.77735180       0.04460000 </v>
  </varray>
 </structure>
 <calculation>
  <scstep>
   <time name="dav">   21.47   21.53</time>
   <time name="total">   21.52   21.58</time>
   <energy>
    <i name="alphaZ">     81.65567618 </i>
    <i name="ewald">  41890.23010355 </i>
    <i name="hartreedc"> -47722.85855691 </i>
    <i name="XCdc">   -242.92965718 </i>
    <i name="pawpsdc">   3467.42045192 </i>
    <i name="pawaedc">  -2871.19716117 </i>
    <i name="eentropy">     -0.54114410 </i>
    <i name="bandstr">   -238.79226049 </i>
    <i name="atom">   6761.44252427 </i>
    <i name="e_fr_energy">   1124.42997607 </i>
    <i name="e_wo_entrp">   1124.97112017 </i>
    <i name="e_0_energy">   1124.70054812 </i>
   </energy>
  </scstep>
  <scstep>
   <time name="dav">   27.92   27.99</time>
   <time name="total">   27.93   28.00</time>
   <energy>
    <i name="e_fr_energy">     -1.98907896 </i>
    <i name="e_wo_entrp">     -1.79093279 </i>
    <i name="e_0_energy">     -1.89000587 </i>
   </energy>
  </scstep>
  <scstep>
   <time name="dav">   27.25   27.32</time>
   <time name="total">   27.26   27.33</time>
   <energy>
    <i name="e_fr_energy">   -199.73821768 </i>
    <i name="e_wo_entrp">   -199.46649446 </i>
    <i name="e_0_energy">   -199.60235607 </i>
   </energy>
  </scstep>
  <scstep>
   <time name="dav">   30.04   30.11</time>
   <time name="total">   30.04   30.12</time>
   <energy>
    <i name="e_fr_energy">   -208.96032122 </i>
    <i name="e_wo_entrp">   -208.65249469 </i>
    <i name="e_0_energy">   -208.80640795 </i>
   </energy>
  </scstep>
  <scstep>
   <time name="dav">   28.06   28.13</time>
   <time name="total">   28.53   28.61</time>
   <energy>
    <i name="e_fr_energy">   -209.24780986 </i>
    <i name="e_wo_entrp">   -208.94264625 </i>
    <i name="e_0_energy">   -209.09522805 </i>
   </energy>
  </scstep>
  <scstep>
   <time name="dav">   31.24   31.32</time>
   <time name="total">   31.74   31.82</time>
   <energy>
    <i name="e_fr_energy">   -236.66686868 </i>
    <i name="e_wo_entrp">   -236.39180868 </i>
    <i name="e_0_energy">   -236.52933868 </i>
   </energy>
  </scstep>
  <scstep>
   <time name="dav">   30.90   30.98</time>
   <time name="total">   31.42   31.50</time>
   <energy>
    <i name="e_fr_energy">   -196.77205241 </i>
    <i name="e_wo_entrp">   -196.43153863 </i>
    <i name="e_0_energy">   -196.60179552 </i>
   </energy>
  </scstep>
  <scstep>
   <time name="dav">   29.06   29.13</time>
   <time name="total">   29.56   29.64</time>
   <energy>
    <i name="e_fr_energy">   -190.22278539 </i>
    <i name="e_wo_entrp">   -189.95517964 </i>
    <i name="e_0_energy">   -190.08898251 </i>
   </energy>
  </scstep>
  <scstep>
   <time name="dav">   29.41   29.49</time>
   <time name="total">   29.94   30.02</time>
   <energy>
    <i name="e_fr_energy">   -188.30556080 </i>
    <i name="e_wo_entrp">   -187.97630984 </i>
    <i name="e_0_energy">   -188.14093532 </i>
   </energy>
  </scstep>
  <scstep>
   <time name="dav">   32.17   32.25</time>
   <time name="total">   32.70   32.79</time>
   <energy>
    <i name="e_fr_energy">   -187.16413798 </i>
    <i name="e_wo_entrp">   -186.82234631 </i>
    <i name="e_0_energy">   -186.99324215 </i>
   </energy>
  </scstep>
  <scstep>
   <time name="dav">   30.59   30.66</time>
   <time name="total">   31.13   31.21</time>
   <energy>
    <i name="e_fr_energy">   -187.00030030 </i>
    <i name="e_wo_entrp">   -186.65153664 </i>
    <i name="e_0_energy">   -186.82591847 </i>
   </energy>
  </scstep>
  <scstep>
   <time name="dav">   32.04   32.11</time>
   <time name="total">   32.57   32.65</time>
   <energy>
    <i name="e_fr_energy">   -187.08174344 </i>
    <i name="e_wo_entrp">   -186.74839814 </i>
    <i name="e_0_energy">   -186.91507079 </i>
   </energy>
  </scstep>
  <scstep>
   <time name="dav">   31.71   31.79</time>
   <time name="total">   32.26   32.34</time>
   <energy>
    <i name="e_fr_energy">   -186.93672721 </i>
    <i name="e_wo_entrp">   -186.60128375 </i>
    <i name="e_0_energy">   -186.76900548 </i>
   </energy>
  </scstep>
  <scstep>
   <time name="dav">   32.38   32.46</time>
   <time name="total">   32.92   33.00</time>
   <energy>
    <i name="e_fr_energy">   -186.90309880 </i>
    <i name="e_wo_entrp">   -186.56230188 </i>
    <i name="e_0_energy">   -186.73270034 </i>
   </energy>
  </scstep>
  <scstep>
   <time name="dav">   31.14   31.22</time>
   <time name="total">   31.69   31.77</time>
   <energy>
    <i name="e_fr_energy">   -186.89658760 </i>
    <i name="e_wo_entrp">   -186.55335825 </i>
    <i name="e_0_energy">   -186.72497292 </i>
   </energy>
  </scstep>
  <scstep>
   <time name="dav">   31.18   31.25</time>
   <time name="total">   31.71   31.80</time>
   <energy>
    <i name="e_fr_energy">   -186.88915946 </i>
    <i name="e_wo_entrp">   -186.54564633 </i>
    <i name="e_0_energy">   -186.71740290 </i>
   </energy>
  </scstep>
  <scstep>
   <time name="dav">   31.59   31.66</time>
   <time name="total">   32.13   32.21</time>
   <energy>
    <i name="e_fr_energy">   -186.88686371 </i>
    <i name="e_wo_entrp">   -186.54449245 </i>
    <i name="e_0_energy">   -186.71567808 </i>
   </energy>
  </scstep>
  <scstep>
   <time name="dav">   31.04   31.12</time>
   <time name="total">   31.57   31.66</time>
   <energy>
    <i name="e_fr_energy">   -186.88594038 </i>
    <i name="e_wo_entrp">   -186.54460387 </i>
    <i name="e_0_energy">   -186.71527212 </i>
   </energy>
  </scstep>
  <scstep>
   <time name="dav">   28.42   28.49</time>
   <time name="total">   28.96   29.04</time>
   <energy>
    <i name="e_fr_energy">   -186.88563063 </i>
    <i name="e_wo_entrp">   -186.54367675 </i>
    <i name="e_0_energy">   -186.71465369 </i>
   </energy>
  </scstep>
  <scstep>
   <time name="dav">   23.54   23.59</time>
   <time name="total">   24.07   24.14</time>
   <energy>
    <i name="e_fr_energy">   -186.88642924 </i>
    <i name="e_wo_entrp">   -186.54482709 </i>
    <i name="e_0_energy">   -186.71562817 </i>
   </energy>
  </scstep>
  <scstep>
   <time name="dav">   21.84   21.90</time>
   <time name="total">   22.38   22.45</time>
   <energy>
    <i name="e_fr_energy">   -186.88700013 </i>
    <i name="e_wo_entrp">   -186.54531052 </i>
    <i name="e_0_energy">   -186.71615532 </i>
   </energy>
  </scstep>
  <scstep>
   <time name="dav">   20.36   20.41</time>
   <time name="total">   20.89   20.95</time>
   <energy>
    <i name="e_fr_energy">   -186.88810127 </i>
    <i name="e_wo_entrp">   -186.54637832 </i>
    <i name="e_0_energy">   -186.71723979 </i>
   </energy>
  </scstep>
  <scstep>
   <time name="dav">   20.12   20.17</time>
   <time name="total">   20.66   20.72</time>
   <energy>
    <i name="e_fr_energy">   -186.88933807 </i>
    <i name="e_wo_entrp">   -186.54773567 </i>
    <i name="e_0_energy">   -186.71853687 </i>
   </energy>
  </scstep>
  <scstep>
   <time name="dav">   18.85   18.90</time>
   <time name="total">   19.39   19.44</time>
   <energy>
    <i name="e_fr_energy">   -186.88992021 </i>
    <i name="e_wo_entrp">   -186.54827130 </i>
    <i name="e_0_energy">   -186.71909575 </i>
   </energy>
  </scstep>
  <scstep>
   <time name="dav">   16.13   16.17</time>
   <time name="total">   16.67   16.72</time>
   <energy>
    <i name="e_fr_energy">   -186.89030122 </i>
    <i name="e_wo_entrp">   -186.54862259 </i>
    <i name="e_0_energy">   -186.71946190 </i>
   </energy>
  </scstep>
  <scstep>
   <time name="dav">   18.81   18.85</time>
   <time name="total">   19.34   19.40</time>
   <energy>
    <i name="e_fr_energy">   -186.89054102 </i>
    <i name="e_wo_entrp">   -186.54887952 </i>
    <i name="e_0_energy">   -186.71971027 </i>
   </energy>
  </scstep>
  <scstep>
   <time name="dav">   19.78   19.83</time>
   <time name="total">   19.81   19.87</time>
   <energy>
    <i name="alphaZ">     81.65567618 </i>
    <i name="ewald">  41890.23010355 </i>
    <i name="hartreedc"> -47833.15412107 </i>
    <i name="XCdc">   -231.59892267 </i>
    <i name="pawpsdc">   4192.17771132 </i>
    <i name="pawaedc">  -3610.20165471 </i>
    <i name="eentropy">     -0.34166374 </i>
    <i name="bandstr">  -1437.10029261 </i>
    <i name="atom">   6761.44252427 </i>
    <i name="e_fr_energy">   -186.89063948 </i>
    <i name="e_wo_entrp">   -186.54897574 </i>
    <i name="e_0_energy">   -186.71980761 </i>
   </energy>
  </scstep>
  <structure>
   <crystal>
    <varray name="basis" >
     <v>       8.66999996       5.03999989       0.00000000 </v>
     <v>      -8.66999982       5.04000013       0.00000000 </v>
     <v>       0.00000000       0.00000000      30.00000000 </v>
    </varray>
    <i name="volume">   2621.80797419 </i>
    <varray name="rec_basis" >
     <v>       0.05767013       0.09920635       0.00000000 </v>
     <v>      -0.05767013       0.09920635       0.00000000 </v>
     <v>       0.00000000       0.00000000       0.03333333 </v>
    </varray>
   </crystal>
   <varray name="positions" >
    <v>       0.33333334       0.66666669       0.00000000 </v>
    <v>       0.66666669       0.66666669       0.00000000 </v>
    <v>       1.00000000       0.33333334       0.00000000 </v>
    <v>       0.00000000       0.00000000       0.00000000 </v>
    <v>       0.33333334       0.00000000       0.00000000 </v>
    <v>       0.00000000       0.66666669       0.00000000 </v>
    <v>       0.33333334       0.33333334       0.00000000 </v>
    <v>       0.66666669       0.00000000       0.00000000 </v>
    <v>       0.66666669       0.33333334       0.00000000 </v>
    <v>       0.11068511       0.22244981       0.95539999 </v>
    <v>       0.22244981       0.11068511       0.04460000 </v>
    <v>       0.11068511       0.55578315       0.95539999 </v>
    <v>       0.22244981       0.44401845       0.04460000 </v>
    <v>       0.11068511       0.88911647       0.95539999 </v>
    <v>       0.22244981       0.77735180       0.04460000 </v>
    <v>       0.44401845       0.22244981       0.95539999 </v>
    <v>       0.55578315       0.11068511       0.04460000 </v>
    <v>       0.44401845       0.55578315       0.95539999 </v>
    <v>       0.55578315       0.44401845       0.04460000 </v>
    <v>       0.44401845       0.88911647       0.95539999 </v>
    <v>       0.55578315       0.77735180       0.04460000 </v>
    <v>       0.77735180       0.22244981       0.95539999 </v>
    <v>       0.88911647       0.11068511       0.04460000 </v>
    <v>       0.77735180       0.55578315       0.95539999 </v>
    <v>       0.88911647       0.44401845       0.04460000 </v>
    <v>       0.77735180       0.88911647       0.95539999 </v>
    <v>       0.88911647       0.77735180       0.04460000 </v>
   </varray>
  </structure>
  <varray name="forces" >
   <v>      -0.35868457      -0.03734723      -0.04437284 </v>
   <v>       0.14475957       0.30329305       0.07259651 </v>
   <v>      -0.00648376       0.06192264      -0.09208034 </v>
   <v>       0.53404412       0.00366299       0.14362560 </v>
   <v>      -0.27230091      -0.43166216       0.01760876 </v>
   <v>      -0.21217958       0.43167166      -0.00097646 </v>
   <v>       0.12146733      -0.38702515      -0.05125488 </v>
   <v>       0.08291781      -0.06852005       0.04687932 </v>
   <v>      -0.00351916       0.04881738      -0.09467712 </v>
   <v>      -0.69530487       0.16820562      -2.11012021 </v>
   <v>      -0.20869649       0.13762044       2.93553961 </v>
   <v>       0.91310118      -0.01268055      -1.46245892 </v>
   <v>      -0.74647452      -0.00001189       1.46097670 </v>
   <v>       0.13689325       0.00691775      -2.93983606 </v>
   <v>       0.74535816       0.00887696       2.13119060 </v>
   <v>       0.07826049       0.14337868      -2.91238066 </v>
   <v>      -0.06216033       0.10609136       2.86093630 </v>
   <v>      -0.23218105       0.52393980      -1.36414245 </v>
   <v>      -0.48902080       0.60121553       2.18329427 </v>
   <v>       0.60503355      -0.53998280      -2.13869696 </v>
   <v>       0.25368554      -0.50829902       1.43618560 </v>
   <v>       0.45958157       0.60053526      -2.22205543 </v>
   <v>      -0.60349960       0.54101456       2.10990368 </v>
   <v>      -0.64928657      -0.16257967      -2.09409226 </v>
   <v>       0.65771762      -0.14061161       2.07316586 </v>
   <v>       0.35628595      -0.69504518      -2.13324564 </v>
   <v>      -0.54931392      -0.70339837       2.18848740 </v>
  </varray>
  <varray name="stress" >
   <v>       7.43190202      -0.03928061      -1.61159435 </v>
   <v>      -0.03928061       4.34099072       0.00804952 </v>
   <v>      -1.61159449       0.00804967      30.27861272 </v>
  </varray>
  <energy>
   <i name="e_fr_energy">   -186.89063948 </i>
   <i name="e_wo_entrp">   -186.71980761 </i>
   <i name="e_0_energy">     -0.34166374 </i>
  </energy>
  <time name="totalsc">  780.47  782.57</time>
 </calculation>
 <calculation>
  <scstep>
   <time name="dav">   21.41   21.46</time>
   <time name="total">   21.95   22.01</time>
   <energy>
    <i name="alphaZ">     78.91738681 </i>
    <i name="ewald">  39378.50687098 </i>
    <i name="hartreedc"> -45336.07614840 </i>
    <i name="XCdc">   -239.05510808 </i>
    <i name="pawpsdc">   4192.15807348 </i>
    <i name="pawaedc">  -3610.18222859 </i>
    <i name="eentropy">     -0.27974781 </i>
    <i name="bandstr">  -1412.96468716 </i>
    <i name="atom">   6761.44252427 </i>
    <i name="e_fr_energy">   -187.53306450 </i>
    <i name="e_wo_entrp">   -187.25331669 </i>
    <i name="e_0_energy">   -187.39319060 </i>
   </energy>
  </scstep>
  <scstep>
   <time name="dav">   30.13   30.20</time>
   <time name="total">   30.67   30.75</time>
   <energy>
    <i name="e_fr_energy">   -189.54621805 </i>
    <i name="e_wo_entrp">   -189.21264699 </i>
    <i name="e_0_energy">   -189.37943252 </i>
   </energy>
  </scstep>
  <scstep>
   <time name="dav">   30.17   30.24</time>
   <time name="total">   30.72   30.81</time>
   <energy>
    <i name="e_fr_energy">   -189.35748143 </i>
    <i name="e_wo_entrp">   -189.08614383 </i>
    <i name="e_0_energy">   -189.22181263 </i>
   </energy>
  </scstep>
  <scstep>
   <time name="dav">   30.49   30.56</time>
   <time name="total">   31.04   31.12</time>
   <energy>
    <i name="e_fr_energy">   -188.78799733 </i>
    <i name="e_wo_entrp">   -188.50834953 </i>
    <i name="e_0_energy">   -188.64817343 </i>
   </energy>
  </scstep>
  <scstep>
   <time name="dav">   28.95   29.02</time>
   <time name="total">   29.49   29.57</time>
   <energy>
    <i name="e_fr_energy">   -188.88920305 </i>
    <i name="e_wo_entrp">   -188.59935294 </i>
    <i name="e_0_energy">   -188.74427799 </i>
   </energy>
  </scstep>
  <scstep>
   <time name="dav">   31.18   31.26</time>
   <time name="total">   31.73   31.82</time>
   <energy>
    <i name="e_fr_energy">   -188.75510177 </i>
    <i name="e_wo_entrp">   -188.47639746 </i>
    <i name="e_0_energy">   -188.61574961 </i>
   </energy>
  </scstep>
  <scstep>
   <time name="dav">   28.81   28.88</time>
   <time name="total">   29.35   29.43</time>
   <energy>
    <i name="e_fr_energy">   -188.73047223 </i>
    <i name="e_wo_entrp">   -188.45139186 </i>
    <i name="e_0_energy">   -188.59093204 </i>
   </energy>
  </scstep>
  <scstep>
   <time name="dav">   32.66   32.74</time>
   <time name="total">   33.21   33.30</time>
   <energy>
    <i name="e_fr_energy">   -188.71227424 </i>
    <i name="e_wo_entrp">   -188.43280677 </i>
    <i name="e_0_energy">   -188.57254050 </i>
   </energy>
  </scstep>
  <scstep>
   <time name="dav">   29.34   29.41</time>
   <time name="total">   29.88   29.97</time>
   <energy>
    <i name="e_fr_energy">   -188.70187465 </i>
    <i name="e_wo_entrp">   -188.42330310 </i>
    <i name="e_0_energy">   -188.56258887 </i>
   </energy>
  </scstep>
  <scstep>
   <time name="dav">   28.55   28.62</time>
   <time name="total">   29.10   29.18</time>
   <energy>
    <i name="e_fr_energy">   -188.70128753 </i>
    <i name="e_wo_entrp">   -188.42312107 </i>
    <i name="e_0_energy">   -188.56220430 </i>
   </energy>
  </scstep>
  <scstep>
   <time name="dav">   30.45   30.53</time>
   <time name="total">   31.00   31.08</time>
   <energy>
    <i name="e_fr_energy">   -188.70067698 </i>
    <i name="e_wo_entrp">   -188.42277366 </i>
    <i name="e_0_energy">   -188.56172532 </i>
   </energy>
  </scstep>
  <scstep>
   <time name="dav">   26.31   26.38</time>
   <time name="total">   26.87   26.94</time>
   <energy>
    <i name="e_fr_energy">   -188.70081174 </i>
    <i name="e_wo_entrp">   -188.42290833 </i>
    <i name="e_0_energy">   -188.56186003 </i>
   </energy>
  </scstep>
  <scstep>
   <time name="dav">   21.74   21.79</time>
   <time name="total">   21.77   21.83</time>
   <energy>
    <i name="alphaZ">     78.91738681 </i>
    <i name="ewald">  39378.50687098 </i>
    <i name="hartreedc"> -45346.80677603 </i>
    <i name="XCdc">   -237.96873816 </i>
    <i name="pawpsdc">   3950.52157784 </i>
    <i name="pawaedc">  -3365.04154918 </i>
    <i name="eentropy">     -0.27793685 </i>
    <i name="bandstr">  -1407.99415964 </i>
    <i name="atom">   6761.44252427 </i>
    <i name="e_fr_energy">   -188.70079994 </i>
    <i name="e_wo_entrp">   -188.42286310 </i>
    <i name="e_0_energy">   -188.56183152 </i>
   </energy>
  </scstep>
  <structure>
   <crystal>
    <varray name="basis" >
     <v>       8.85781934       5.10297425       0.00000000 </v>
     <v>      -8.85897690       5.10496601       0.00000000 </v>
     <v>       0.00000000       0.00000000      30.00000000 </v>
    </varray>
    <i name="volume">   2712.77992847 </i>
    <varray name="rec_basis" >
     <v>       0.05645463       0.09796936       0.00000000 </v>
     <v>      -0.05643260       0.09795656       0.00000000 </v>
     <v>       0.00000000       0.00000000       0.03333333 </v>
    </varray>
   </crystal>
   <varray name="positions" >
    <v>       0.33215668       0.66748586      -0.00007136 </v>
    <v>       0.66852098       0.66771550       0.00011674 </v>
    <v>       1.00027832       0.33364774      -0.00014807 </v>
    <v>       0.00150333      -0.00146827       0.00023096 </v>
    <v>       0.33050983      -0.00130834       0.00002832 </v>
    <v>       0.00147565       0.66932297      -0.00000157 </v>
    <v>       0.33181899       0.33114311      -0.00008242 </v>
    <v>       0.66656944      -0.00055863       0.00007539 </v>
    <v>       0.66689053       0.33357677      -0.00015225 </v>
    <v>       0.10955569       0.22518929       0.95200673 </v>
    <v>       0.22252783       0.11192439       0.04932061 </v>
    <v>       0.11316481       0.55318207       0.95304823 </v>
    <v>       0.22037294       0.44609521       0.04694938 </v>
    <v>       0.11109908       0.88876872       0.95067247 </v>
    <v>       0.22456600       0.77532058       0.04802714 </v>
    <v>       0.44492239       0.22291828       0.95071662 </v>
    <v>       0.55611796       0.11136580       0.04920064 </v>
    <v>       0.44588005       0.55893668       0.95320633 </v>
    <v>       0.55730002       0.44825639       0.04811093 </v>
    <v>       0.44311741       0.88484882       0.95196078 </v>
    <v>       0.55405624       0.77421330       0.04690951 </v>
    <v>       0.78150457       0.22404533       0.95182673 </v>
    <v>       0.89002672       0.11495343       0.04799291 </v>
    <v>       0.77476727       0.55681147       0.95203250 </v>
    <v>       0.89027338       0.44151561       0.04793383 </v>
    <v>       0.77501657       0.88479875       0.95196954 </v>
    <v>       0.88422174       0.77551363       0.04811928 </v>
   </varray>
  </structure>
  <varray name="forces" >
   <v>      -0.29228913      -0.00436036      -0.09750511 </v>
   <v>       0.13174925       0.28046825      -0.05168329 </v>
   <v>      -0.06119194      -0.02308545       0.03692957 </v>
   <v>       0.64632840       0.10605075       0.03147219 </v>
   <v>      -0.44641638      -0.36033846       0.00233397 </v>
   <v>      -0.32177712       0.50009250       0.00968030 </v>
   <v>       0.34155146      -0.41366780      -0.10363340 </v>
   <v>      -0.07327284       0.05286784       0.08343633 </v>
   <v>       0.05074469      -0.09019360       0.05804198 </v>
   <v>       0.03142655       0.09377053       0.00947840 </v>
   <v>      -0.04943351       0.09587516       0.28288662 </v>
   <v>       0.02523465       0.01583994       0.06600005 </v>
   <v>       0.10431628       0.00673700      -0.18266479 </v>
   <v>      -0.01131742      -0.00551979      -0.35464793 </v>
   <v>       0.06005685      -0.00920593       0.16788691 </v>
   <v>      -0.05986377       0.08612550      -0.03236372 </v>
   <v>       0.06139211       0.08958381      -0.10826854 </v>
   <v>       0.06285031      -0.08090016       0.31563643 </v>
   <v>       0.03847367      -0.05408666      -0.14386015 </v>
   <v>       0.07537861       0.05385528       0.05316026 </v>
   <v>      -0.05721119       0.06697200      -0.10962772 </v>
   <v>      -0.04508259      -0.04315679       0.01555933 </v>
   <v>      -0.07177459      -0.05975805      -0.12598525 </v>
   <v>       0.01449571      -0.10194534       0.02618976 </v>
   <v>      -0.02710730      -0.09481401      -0.14116710 </v>
   <v>      -0.10515169      -0.04518115       0.08790767 </v>
   <v>      -0.02210906      -0.06202501       0.20480722 </v>
  </varray>
  <varray name="stress" >
   <v>     -19.89868548       0.01301746       0.04926378 </v>
   <v>       0.01301746     -19.44022419       0.01138445 </v>
   <v>       0.04926354       0.01138460      -1.75233592 </v>
  </varray>
  <energy>
   <i name="e_fr_energy">   -188.70079994 </i>
   <i name="e_wo_entrp">   -188.56183152 </i>
   <i name="e_0_energy">     -0.27793685 </i>
  </energy>
  <time name="totalsc">  418.50  419.61</time>
 </calculation>
 <calculation>
  <scstep>
   <time name="dav">   23.16   23.21</time>
   <time name="total">   23.70   23.76</time>
   <energy>
    <i name="alphaZ">     82.34486407 </i>
    <i name="ewald">  41303.48247298 </i>
    <i name="hartreedc"> -47302.23455432 </i>
    <i name="XCdc">   -233.84402927 </i>
    <i name="pawpsdc">   3949.66502942 </i>
    <i name="pawaedc">  -3364.17753626 </i>
    <i name="eentropy">     -0.23484222 </i>
    <i name="bandstr">  -1387.07300228 </i>
    <i name="atom">   6761.44252427 </i>
    <i name="e_fr_energy">   -190.62907362 </i>
    <i name="e_wo_entrp">   -190.39423140 </i>
    <i name="e_0_energy">   -190.51165251 </i>
   </energy>
  </scstep>
  <scstep>
   <time name="dav">   27.73   27.80</time>
   <time name="total">   28.25   28.33</time>
   <energy>
    <i name="e_fr_energy">   -190.57544694 </i>
    <i name="e_wo_entrp">   -190.34162022 </i>
    <i name="e_0_energy">   -190.45853358 </i>
   </energy>
  </scstep>
  <scstep>
   <time name="dav">   30.06   30.13</time>
   <time name="total">   30.60   30.68</time>
   <energy>
    <i name="e_fr_energy">   -190.11083684 </i>
    <i name="e_wo_entrp">   -189.86039379 </i>
    <i name="e_0_energy">   -189.98561531 </i>
   </energy>
  </scstep>
  <scstep>
   <time name="dav">   30.95   31.03</time>
   <time name="total">   31.49   31.57</time>
   <energy>
    <i name="e_fr_energy">   -189.90117488 </i>
    <i name="e_wo_entrp">   -189.66789236 </i>
    <i name="e_0_energy">   -189.78453362 </i>
   </energy>
  </scstep>
  <scstep>
   <time name="dav">   29.88   29.95</time>
   <time name="total">   30.41   30.49</time>
   <energy>
    <i name="e_fr_energy">   -189.88139696 </i>
    <i name="e_wo_entrp">   -189.64323500 </i>
    <i name="e_0_energy">   -189.76231598 </i>
   </energy>
  </scstep>
  <scstep>
   <time name="dav">   30.62   30.69</time>
   <time name="total">   31.15   31.23</time>
   <energy>
    <i name="e_fr_energy">   -189.80250289 </i>
    <i name="e_wo_entrp">   -189.56538248 </i>
    <i name="e_0_energy">   -189.68394268 </i>
   </energy>
  </scstep>
  <scstep>
   <time name="dav">   28.43   28.50</time>
   <time name="total">   28.97   29.05</time>
   <energy>
    <i name="e_fr_energy">   -189.79610082 </i>
    <i name="e_wo_entrp">   -189.55964879 </i>
    <i name="e_0_energy">   -189.67787480 </i>
   </energy>
  </scstep>
  <scstep>
   <time name="dav">   29.70   29.78</time>
   <time name="total">   30.24   30.32</time>
   <energy>
    <i name="e_fr_energy">   -189.79672561 </i>
    <i name="e_wo_entrp">   -189.56022655 </i>
    <i name="e_0_energy">   -189.67847608 </i>
   </energy>
  </scstep>
  <scstep>
   <time name="dav">   26.22   26.28</time>
   <time name="total">   26.75   26.83</time>
   <energy>
    <i name="e_fr_energy">   -189.79609292 </i>
    <i name="e_wo_entrp">   -189.55954282 </i>
    <i name="e_0_energy">   -189.67781787 </i>
   </energy>
  </scstep>
  <scstep>
   <time name="dav">   24.73   24.79</time>
   <time name="total">   25.27   25.33</time>
   <energy>
    <i name="e_fr_energy">   -189.79639113 </i>
    <i name="e_wo_entrp">   -189.55986733 </i>
    <i name="e_0_energy">   -189.67812923 </i>
   </energy>
  </scstep>
  <scstep>
   <time name="dav">   23.42   23.48</time>
   <time name="total">   23.96   24.03</time>
   <energy>
    <i name="e_fr_energy">   -189.79611569 </i>
    <i name="e_wo_entrp">   -189.55947979 </i>
    <i name="e_0_energy">   -189.67779774 </i>
   </energy>
  </scstep>
  <scstep>
   <time name="dav">   19.82   19.87</time>
   <time name="total">   19.85   19.91</time>
   <energy>
    <i name="alphaZ">     82.34486407 </i>
    <i name="ewald">  41303.48247298 </i>
    <i name="hartreedc"> -47275.75359984 </i>
    <i name="XCdc">   -235.23584422 </i>
    <i name="pawpsdc">   4039.03434644 </i>
    <i name="pawaedc">  -3454.75094803 </i>
    <i name="eentropy">     -0.23662496 </i>
    <i name="bandstr">  -1410.12333150 </i>
    <i name="atom">   6761.44252427 </i>
    <i name="e_fr_energy">   -189.79614080 </i>
    <i name="e_wo_entrp">   -189.55951584 </i>
    <i name="e_0_energy">   -189.67782832 </i>
   </energy>
  </scstep>
  <structure>
   <crystal>
    <varray name="basis" >
     <v>       8.66941364       4.99701812       0.00000000 </v>
     <v>      -8.67040448       4.99872186       0.00000000 </v>
     <v>       0.00000000       0.00000000      30.00000000 </v>
    </varray>
    <i name="volume">   2599.86467114 </i>
    <varray name="rec_basis" >
     <v>       0.05768056       0.10004834       0.00000000 </v>
     <v>      -0.05766090       0.10003690       0.00000000 </v>
     <v>       0.00000000       0.00000000       0.03333333 </v>
    </varray>
   </crystal>
   <varray name="positions" >
    <v>       0.33186803       0.66775984      -0.00012678 </v>
    <v>       0.66911635       0.66805719       0.00008737 </v>
    <v>       1.00018085       0.33366807      -0.00012708 </v>
    <v>       0.00230267      -0.00191307       0.00024885 </v>
    <v>       0.32947813      -0.00148065       0.00002964 </v>
    <v>       0.00200132       0.67046793       0.00000393 </v>
    <v>       0.33145674       0.33012349      -0.00014133 </v>
    <v>       0.66658722      -0.00039981       0.00012281 </v>
    <v>       0.66678871       0.33337729      -0.00011926 </v>
    <v>       0.10974259       0.22531567       0.95201212 </v>
    <v>       0.22264041       0.11213210       0.04948140 </v>
    <v>       0.11321557       0.55318425       0.95308574 </v>
    <v>       0.22048461       0.44600608       0.04684555 </v>
    <v>       0.11107896       0.88877039       0.95047090 </v>
    <v>       0.22460843       0.77524741       0.04812257 </v>
    <v>       0.44500864       0.22311975       0.95069823 </v>
    <v>       0.55632672       0.11145636       0.04913910 </v>
    <v>       0.44580541       0.55874107       0.95338573 </v>
    <v>       0.55724671       0.44812903       0.04802916 </v>
    <v>       0.44327994       0.88486624       0.95199099 </v>
    <v>       0.55411304       0.77438021       0.04684720 </v>
    <v>       0.78138908       0.22401662       0.95183557 </v>
    <v>       0.88985780       0.11492268       0.04792130 </v>
    <v>       0.77461093       0.55662724       0.95204739 </v>
    <v>       0.89008889       0.44138333       0.04785360 </v>
    <v>       0.77483987       0.88482447       0.95201951 </v>
    <v>       0.88409684       0.77543130       0.04823569 </v>
   </varray>
  </structure>
  <varray name="forces" >
   <v>      -0.28541739       0.01547690      -0.08857768 </v>
   <v>       0.14868764       0.27498890      -0.07109801 </v>
   <v>      -0.08513931      -0.08095431       0.05701972 </v>
   <v>       0.67362212       0.13804415      -0.00072123 </v>
   <v>      -0.49878679      -0.31893359      -0.00155960 </v>
   <v>      -0.35136106       0.49120069       0.01238849 </v>
   <v>       0.41668313      -0.42074854      -0.08627990 </v>
   <v>      -0.12821011       0.09783133       0.06343373 </v>
   <v>       0.07124552      -0.13956519       0.07616492 </v>
   <v>      -0.07353718      -0.00244753      -0.48646005 </v>
   <v>      -0.01033068       0.02702330       0.86552987 </v>
   <v>       0.07838262       0.01316378      -0.38004223 </v>
   <v>      -0.03602832       0.01292664       0.26085771 </v>
   <v>      -0.01310172      -0.00765739      -0.91775388 </v>
   <v>       0.12730899      -0.00758364       0.66533020 </v>
   <v>      -0.00610325       0.01189956      -0.59881734 </v>
   <v>       0.01037414       0.00596139       0.43467321 </v>
   <v>      -0.00875091       0.04246223      -0.11653793 </v>
   <v>      -0.04685474       0.05859502       0.35292164 </v>
   <v>       0.05417723      -0.06944288      -0.43449675 </v>
   <v>       0.02342573      -0.08060586       0.35088119 </v>
   <v>       0.03401088       0.08057872      -0.50829221 </v>
   <v>      -0.04171911       0.07610385       0.35241102 </v>
   <v>      -0.08464151      -0.01701556      -0.46019519 </v>
   <v>       0.07019233      -0.00058774       0.33391698 </v>
   <v>       0.01485108      -0.08226354      -0.39138535 </v>
   <v>      -0.05297932      -0.11845072       0.71668868 </v>
  </varray>
  <varray name="stress" >
   <v>     -10.14744132       0.00835231       0.04851598 </v>
   <v>       0.00835233      -9.78209597       0.01097491 </v>
   <v>       0.04851601       0.01097497       6.48999929 </v>
  </varray>
  <energy>
   <i name="e_fr_energy">   -189.79614080 </i>
   <i name="e_wo_entrp">   -189.67782832 </i>
   <i name="e_0_energy">     -0.23662496 </i>
  </energy>
  <time name="totalsc">  371.92  372.91</time>
 </calculation>
 <calculation>
  <scstep>
   <time name="dav">   21.43   21.48</time>
   <time name="total">   21.96   22.01</time>
   <energy>
    <i name="alphaZ">     85.81321137 </i>
    <i name="ewald">  42830.77089893 </i>
    <i name="hartreedc"> -48847.38002690 </i>
    <i name="XCdc">   -232.95508826 </i>
    <i name="pawpsdc">   4039.12281810 </i>
    <i name="pawaedc">  -3454.83740464 </i>
    <i name="eentropy">     -0.20503119 </i>
    <i name="bandstr">  -1373.13907153 </i>
    <i name="atom">   6761.44252427 </i>
    <i name="e_fr_energy">   -191.36716985 </i>
    <i name="e_wo_entrp">   -191.16213866 </i>
    <i name="e_0_energy">   -191.26465425 </i>
   </energy>
  </scstep>
  <scstep>
   <time name="dav">   31.86   31.94</time>
   <time name="total">   32.37   32.46</time>
   <energy>
    <i name="e_fr_energy">   -191.20359710 </i>
    <i name="e_wo_entrp">   -190.99859942 </i>
    <i name="e_0_energy">   -191.10109826 </i>
   </energy>
  </scstep>
  <scstep>
   <time name="dav">   29.71   29.78</time>
   <time name="total">   30.23   30.31</time>
   <energy>
    <i name="e_fr_energy">   -191.31253949 </i>
    <i name="e_wo_entrp">   -191.08428955 </i>
    <i name="e_0_energy">   -191.19841452 </i>
   </energy>
  </scstep>
  <scstep>
   <time name="dav">   30.20   30.27</time>
   <time name="total">   30.72   30.80</time>
   <energy>
    <i name="e_fr_energy">   -190.93890712 </i>
    <i name="e_wo_entrp">   -190.73055420 </i>
    <i name="e_0_energy">   -190.83473066 </i>
   </energy>
  </scstep>
  <scstep>
   <time name="dav">   30.50   30.57</time>
   <time name="total">   31.02   31.10</time>
   <energy>
    <i name="e_fr_energy">   -190.89427123 </i>
    <i name="e_wo_entrp">   -190.68746511 </i>
    <i name="e_0_energy">   -190.79086817 </i>
   </energy>
  </scstep>
  <scstep>
   <time name="dav">   29.83   29.91</time>
   <time name="total">   30.35   30.43</time>
   <energy>
    <i name="e_fr_energy">   -190.80606985 </i>
    <i name="e_wo_entrp">   -190.59546210 </i>
    <i name="e_0_energy">   -190.70076597 </i>
   </energy>
  </scstep>
  <scstep>
   <time name="dav">   30.75   30.82</time>
   <time name="total">   31.28   31.37</time>
   <energy>
    <i name="e_fr_energy">   -190.79195825 </i>
    <i name="e_wo_entrp">   -190.58221220 </i>
    <i name="e_0_energy">   -190.68708523 </i>
   </energy>
  </scstep>
  <scstep>
   <time name="dav">   27.97   28.04</time>
   <time name="total">   28.49   28.57</time>
   <energy>
    <i name="e_fr_energy">   -190.79030808 </i>
    <i name="e_wo_entrp">   -190.58068888 </i>
    <i name="e_0_energy">   -190.68549848 </i>
   </energy>
  </scstep>
  <scstep>
   <time name="dav">   26.97   27.04</time>
   <time name="total">   27.50   27.57</time>
   <energy>
    <i name="e_fr_energy">   -190.78920510 </i>
    <i name="e_wo_entrp">   -190.57961939 </i>
    <i name="e_0_energy">   -190.68441225 </i>
   </energy>
  </scstep>
  <scstep>
   <time name="dav">   28.13   28.19</time>
   <time name="total">   28.64   28.72</time>
   <energy>
    <i name="e_fr_energy">   -190.78943603 </i>
    <i name="e_wo_entrp">   -190.57979308 </i>
    <i name="e_0_energy">   -190.68461456 </i>
   </energy>
  </scstep>
  <scstep>
   <time name="dav">   24.34   24.40</time>
   <time name="total">   24.86   24.93</time>
   <energy>
    <i name="e_fr_energy">   -190.78928061 </i>
    <i name="e_wo_entrp">   -190.57965521 </i>
    <i name="e_0_energy">   -190.68446791 </i>
   </energy>
  </scstep>
  <scstep>
   <time name="dav">   19.42   19.47</time>
   <time name="total">   19.46   19.52</time>
   <energy>
    <i name="alphaZ">     85.81321137 </i>
    <i name="ewald">  42830.77089893 </i>
    <i name="hartreedc"> -48818.89859166 </i>
    <i name="XCdc">   -234.28037860 </i>
    <i name="pawpsdc">   4064.21261029 </i>
    <i name="pawaedc">  -3480.10942375 </i>
    <i name="eentropy">     -0.20966730 </i>
    <i name="bandstr">  -1399.53046400 </i>
    <i name="atom">   6761.44252427 </i>
    <i name="e_fr_energy">   -190.78928044 </i>
    <i name="e_wo_entrp">   -190.57961314 </i>
    <i name="e_0_energy">   -190.68444679 </i>
   </energy>
  </scstep>
  <structure>
   <crystal>
    <varray name="basis" >
     <v>       8.48749416       4.89808557       0.00000000 </v>
     <v>      -8.48824127       4.89936881       0.00000000 </v>
     <v>       0.00000000       0.00000000      30.00000000 </v>
    </varray>
    <i name="volume">   2494.78488833 </i>
    <varray name="rec_basis" >
     <v>       0.05891533       0.10207182       0.00000000 </v>
     <v>      -0.05889989       0.10206284       0.00000000 </v>
     <v>       0.00000000       0.00000000       0.03333333 </v>
    </varray>
   </crystal>
   <varray name="positions" >
    <v>       0.33099257       0.66892769      -0.00030265 </v>
    <v>       0.67138821       0.66920558      -0.00007631 </v>
    <v>       0.99918733       0.33335867       0.00000801 </v>
    <v>       0.00572163      -0.00344148       0.00022010 </v>
    <v>       0.32570391      -0.00149924       0.00002312 </v>
    <v>       0.00374581       0.67483658       0.00003188 </v>
    <v>       0.33041555       0.32585536      -0.00030531 </v>
    <v>       0.66677015       0.00086725       0.00023724 </v>
    <v>       0.66607793       0.33209288       0.00005381 </v>
    <v>       0.10907154       0.22547712       0.95058487 </v>
    <v>       0.22265721       0.11211147       0.05176705 </v>
    <v>       0.11365095       0.55290069       0.95192112 </v>
    <v>       0.22024960       0.44643383       0.04776123 </v>
    <v>       0.11097573       0.88876697       0.94809363 </v>
    <v>       0.22512153       0.77464750       0.04992150 </v>
    <v>       0.44495357       0.22295468       0.94897861 </v>
    <v>       0.55612037       0.11132132       0.05049889 </v>
    <v>       0.44624423       0.55944836       0.95277854 </v>
    <v>       0.55760267       0.44906822       0.04918058 </v>
    <v>       0.44270329       0.88395887       0.95067837 </v>
    <v>       0.55344087       0.77330764       0.04796368 </v>
    <v>       0.78243839       0.22459325       0.95033949 </v>
    <v>       0.89056518       0.11584535       0.04905609 </v>
    <v>       0.77426749       0.55717981       0.95068263 </v>
    <v>       0.89071288       0.44122097       0.04894728 </v>
    <v>       0.77445768       0.88399095       0.95080324 </v>
    <v>       0.88297818       0.77478418       0.05015321 </v>
   </varray>
  </structure>
  <varray name="forces" >
   <v>      -0.24893769       0.03561886      -0.03934121 </v>
   <v>       0.13659687       0.27797395      -0.07341762 </v>
   <v>      -0.13346892      -0.13524977       0.06195776 </v>
   <v>       0.65000687       0.15883434      -0.02560281 </v>
   <v>      -0.52040452      -0.24351355      -0.00551960 </v>
   <v>      -0.34259327       0.45125942       0.02270981 </v>
   <v>       0.43178100      -0.42226542      -0.02185823 </v>
   <v>      -0.15752735       0.13137385       0.01268555 </v>
   <v>       0.10841424      -0.18179273       0.04985033 </v>
   <v>       0.03558530      -0.05992852      -0.30852741 </v>
   <v>       0.00912366      -0.04542079       0.68238563 </v>
   <v>      -0.04473611       0.01401605      -0.30331970 </v>
   <v>       0.02767947       0.00346064       0.13347328 </v>
   <v>       0.00937810       0.00077120      -0.71447948 </v>
   <v>      -0.01806413       0.00723077       0.46581719 </v>
   <v>       0.06261140      -0.05449092      -0.46372606 </v>
   <v>      -0.04741984      -0.10101680       0.30175773 </v>
   <v>       0.03456097      -0.03337933      -0.02842089 </v>
   <v>      -0.04509642      -0.00577403       0.20372201 </v>
   <v>      -0.05311603      -0.02060491      -0.26797082 </v>
   <v>      -0.00178806      -0.03663799       0.23802569 </v>
   <v>       0.01873480       0.04950376      -0.39219956 </v>
   <v>       0.08655612       0.02511838       0.20357806 </v>
   <v>       0.01631657       0.03860837      -0.26703928 </v>
   <v>      -0.03757973       0.08563049       0.18634024 </v>
   <v>       0.03273229       0.04677542      -0.20946868 </v>
   <v>      -0.00934558       0.01389927       0.55858807 </v>
  </varray>
  <varray name="stress" >
   <v>      -5.58227664      -0.00001482      -0.14550478 </v>
   <v>      -0.00001511      -5.78424605      -0.03553636 </v>
   <v>      -0.14550493      -0.03553639       4.48699616 </v>
  </varray>
  <energy>
   <i name="e_fr_energy">   -190.78928044 </i>
   <i name="e_wo_entrp">   -190.68444679 </i>
   <i name="e_0_energy">     -0.20966730 </i>
  </energy>
  <time name="totalsc">  378.64  379.65</time>
 </calculation>
 <calculation>
  <scstep>
   <time name="dav">   21.45   21.50</time>
   <time name="total">   21.96   22.02</time>
   <energy>
    <i name="alphaZ">     90.04524643 </i>
    <i name="ewald">  44613.55486175 </i>
    <i name="hartreedc"> -50655.36571941 </i>
    <i name="XCdc">   -231.88578405 </i>
    <i name="pawpsdc">   4064.14942678 </i>
    <i name="pawaedc">  -3480.04236843 </i>
    <i name="eentropy">     -0.20270672 </i>
    <i name="bandstr">  -1353.79195788 </i>
    <i name="atom">   6761.44252427 </i>
    <i name="e_fr_energy">   -192.09647726 </i>
    <i name="e_wo_entrp">   -191.89377054 </i>
    <i name="e_0_energy">   -191.99512390 </i>
   </energy>
  </scstep>
  <scstep>
   <time name="dav">   28.28   28.34</time>
   <time name="total">   28.78   28.86</time>
   <energy>
    <i name="e_fr_energy">   -191.85563783 </i>
    <i name="e_wo_entrp">   -191.64733921 </i>
    <i name="e_0_energy">   -191.75148852 </i>
   </energy>
  </scstep>
  <scstep>
   <time name="dav">   27.49   27.55</time>
   <time name="total">   28.00   28.08</time>
   <energy>
    <i name="e_fr_energy">   -192.05082709 </i>
    <i name="e_wo_entrp">   -191.83111329 </i>
    <i name="e_0_energy">   -191.94097019 </i>
   </energy>
  </scstep>
  <scstep>
   <time name="dav">   28.17   28.24</time>
   <time name="total">   28.68   28.76</time>
   <energy>
    <i name="e_fr_energy">   -191.74314812 </i>
    <i name="e_wo_entrp">   -191.52850329 </i>
    <i name="e_0_energy">   -191.63582570 </i>
   </energy>
  </scstep>
  <scstep>
   <time name="dav">   30.06   30.13</time>
   <time name="total">   30.57   30.65</time>
   <energy>
    <i name="e_fr_energy">   -191.57292850 </i>
    <i name="e_wo_entrp">   -191.37359257 </i>
    <i name="e_0_energy">   -191.47326053 </i>
   </energy>
  </scstep>
  <scstep>
   <time name="dav">   29.84   29.91</time>
   <time name="total">   30.34   30.42</time>
   <energy>
    <i name="e_fr_energy">   -191.44546266 </i>
    <i name="e_wo_entrp">   -191.23341265 </i>
    <i name="e_0_energy">   -191.33943765 </i>
   </energy>
  </scstep>
  <scstep>
   <time name="dav">   29.87   29.94</time>
   <time name="total">   30.38   30.46</time>
   <energy>
    <i name="e_fr_energy">   -191.43185301 </i>
    <i name="e_wo_entrp">   -191.22156061 </i>
    <i name="e_0_energy">   -191.32670681 </i>
   </energy>
  </scstep>
  <scstep>
   <time name="dav">   26.86   26.92</time>
   <time name="total">   27.36   27.43</time>
   <energy>
    <i name="e_fr_energy">   -191.42796144 </i>
    <i name="e_wo_entrp">   -191.21785214 </i>
    <i name="e_0_energy">   -191.32290679 </i>
   </energy>
  </scstep>
  <scstep>
   <time name="dav">   30.71   30.78</time>
   <time name="total">   31.22   31.30</time>
   <energy>
    <i name="e_fr_energy">   -191.42882771 </i>
    <i name="e_wo_entrp">   -191.21894007 </i>
    <i name="e_0_energy">   -191.32388389 </i>
   </energy>
  </scstep>
  <scstep>
   <time name="dav">   28.03   28.10</time>
   <time name="total">   28.53   28.61</time>
   <energy>
    <i name="e_fr_energy">   -191.42773647 </i>
    <i name="e_wo_entrp">   -191.21745106 </i>
    <i name="e_0_energy">   -191.32259376 </i>
   </energy>
  </scstep>
  <scstep>
   <time name="dav">   23.41   23.47</time>
   <time name="total">   23.45   23.51</time>
   <energy>
    <i name="alphaZ">     90.04524643 </i>
    <i name="ewald">  44613.55486175 </i>
    <i name="hartreedc"> -50622.47223761 </i>
    <i name="XCdc">   -233.36532428 </i>
    <i name="pawpsdc">   4086.03658110 </i>
    <i name="pawaedc">  -3502.03706706 </i>
    <i name="eentropy">     -0.21023946 </i>
    <i name="bandstr">  -1384.42214602 </i>
    <i name="atom">   6761.44252427 </i>
    <i name="e_fr_energy">   -191.42780088 </i>
    <i name="e_wo_entrp">   -191.21756141 </i>
    <i name="e_0_energy">   -191.32268114 </i>
   </energy>
  </scstep>
  <structure>
   <crystal>
    <varray name="basis" >
     <v>       8.29023333       4.77892169       0.00000000 </v>
     <v>      -8.29098738       4.78021589       0.00000000 </v>
     <v>       0.00000000       0.00000000      30.00000000 </v>
    </varray>
    <i name="volume">   2377.53253419 </i>
    <varray name="rec_basis" >
     <v>       0.06031736       0.10461671       0.00000000 </v>
     <v>      -0.06030103       0.10460719       0.00000000 </v>
     <v>       0.00000000       0.00000000       0.03333333 </v>
    </varray>
   </crystal>
   <varray name="positions" >
    <v>       0.32969456       0.67112600      -0.00047355 </v>
    <v>       0.67569181       0.67153896      -0.00038070 </v>
    <v>       0.99657120       0.33257975       0.00026684 </v>
    <v>       0.01225563      -0.00604877       0.00010240 </v>
    <v>       0.31910202      -0.00076003      -0.00000011 </v>
    <v>       0.00677480       0.68272470       0.00011798 </v>
    <v>       0.32842590       0.31766909      -0.00040768 </v>
    <v>       0.66726617       0.00366776       0.00029417 </v>
    <v>       0.66457544       0.32909118       0.00027951 </v>
    <v>       0.10815570       0.22460511       0.94881861 </v>
    <v>       0.22214493       0.11138402       0.05508064 </v>
    <v>       0.11369923       0.55317149       0.95027438 </v>
    <v>       0.22023240       0.44659876       0.04876706 </v>
    <v>       0.11100689       0.88871546       0.94466249 </v>
    <v>       0.22530582       0.77459837       0.05231579 </v>
    <v>       0.44465630       0.22174526       0.94656067 </v>
    <v>       0.55449066       0.11040483       0.05225976 </v>
    <v>       0.44639189       0.55942561       0.95221471 </v>
    <v>       0.55749828       0.44986446       0.05052272 </v>
    <v>       0.44173332       0.88359422       0.94908449 </v>
    <v>       0.55266122       0.77224886       0.04938716 </v>
    <v>       0.78369571       0.22531008       0.94825136 </v>
    <v>       0.89185410       0.11607599       0.05038016 </v>
    <v>       0.77473852       0.55792790       0.94907987 </v>
    <v>       0.89185846       0.44237730       0.05020013 </v>
    <v>       0.77511151       0.88384121       0.94943824 </v>
    <v>       0.88262199       0.77473687       0.05290279 </v>
   </varray>
  </structure>
  <varray name="forces" >
   <v>      -0.21782766       0.04375526       0.00246701 </v>
   <v>       0.09002477       0.29689354       0.02088573 </v>
   <v>      -0.21796512      -0.14102766      -0.01535189 </v>
   <v>       0.11594968      -0.00806071       0.01428630 </v>
   <v>      -0.07114552       0.09832000      -0.04971667 </v>
   <v>      -0.09239223       0.14306489      -0.02655131 </v>
   <v>       0.29620621      -0.23955875       0.05099388 </v>
   <v>      -0.20195791       0.11035036       0.00797370 </v>
   <v>       0.16528619      -0.28109467      -0.02501360 </v>
   <v>       0.15139152      -0.09593427       0.02495268 </v>
   <v>       0.00984486      -0.08803949       0.27630974 </v>
   <v>      -0.15265271      -0.01102620      -0.00823553 </v>
   <v>       0.11338005      -0.01833866      -0.11791916 </v>
   <v>       0.05029731       0.03360751      -0.26589968 </v>
   <v>      -0.16131029       0.05109933       0.09412879 </v>
   <v>       0.10110201      -0.08130314      -0.18513051 </v>
   <v>      -0.08084921      -0.18585261       0.09148153 </v>
   <v>       0.11104309      -0.13939887       0.19108506 </v>
   <v>       0.00659932      -0.08107515      -0.05757821 </v>
   <v>      -0.16524336       0.06099417       0.00447066 </v>
   <v>      -0.01771310       0.03559027      -0.02780525 </v>
   <v>      -0.03196933       0.01538833      -0.15373319 </v>
   <v>       0.21470077      -0.04526404      -0.07901302 </v>
   <v>       0.12958797       0.06088705       0.07198466 </v>
   <v>      -0.17833321       0.13031132      -0.05203899 </v>
   <v>       0.01948992       0.21018202       0.05301561 </v>
   <v>       0.01445596       0.12553018       0.15995168 </v>
  </varray>
  <varray name="stress" >
   <v>       0.40052352      -0.03578708      -0.31936019 </v>
   <v>      -0.03578704      -0.05746943      -0.14843320 </v>
   <v>      -0.31936007      -0.14843319      -0.48799590 </v>
  </varray>
  <energy>
   <i name="e_fr_energy">   -191.42780088 </i>
   <i name="e_wo_entrp">   -191.32268114 </i>
   <i name="e_0_energy">     -0.21023946 </i>
  </energy>
  <time name="totalsc">  350.80  351.73</time>
 </calculation>
 <calculation>
  <scstep>
   <time name="dav">   21.41   21.46</time>
   <time name="total">   21.92   21.97</time>
   <energy>
    <i name="alphaZ">     89.91164425 </i>
    <i name="ewald">  44539.48067673 </i>
    <i name="hartreedc"> -50547.53051537 </i>
    <i name="XCdc">   -233.51495967 </i>
    <i name="pawpsdc">   4086.19804925 </i>
    <i name="pawaedc">  -3502.19587190 </i>
    <i name="eentropy">     -0.21325551 </i>
    <i name="bandstr">  -1385.05290752 </i>
    <i name="atom">   6761.44252427 </i>
    <i name="e_fr_energy">   -191.47461547 </i>
    <i name="e_wo_entrp">   -191.26135996 </i>
    <i name="e_0_energy">   -191.36798772 </i>
   </energy>
  </scstep>
  <scstep>
   <time name="dav">   30.57   30.64</time>
   <time name="total">   31.08   31.16</time>
   <energy>
    <i name="e_fr_energy">   -191.52498456 </i>
    <i name="e_wo_entrp">   -191.30232289 </i>
    <i name="e_0_energy">   -191.41365372 </i>
   </energy>
  </scstep>
  <scstep>
   <time name="dav">   30.17   30.24</time>
   <time name="total">   30.67   30.76</time>
   <energy>
    <i name="e_fr_energy">   -191.48407559 </i>
    <i name="e_wo_entrp">   -191.27031800 </i>
    <i name="e_0_energy">   -191.37719680 </i>
   </energy>
  </scstep>
  <scstep>
   <time name="dav">   28.14   28.21</time>
   <time name="total">   28.65   28.73</time>
   <energy>
    <i name="e_fr_energy">   -191.48563902 </i>
    <i name="e_wo_entrp">   -191.27040534 </i>
    <i name="e_0_energy">   -191.37802218 </i>
   </energy>
  </scstep>
  <scstep>
   <time name="dav">   25.67   25.73</time>
   <time name="total">   26.18   26.25</time>
   <energy>
    <i name="e_fr_energy">   -191.48248347 </i>
    <i name="e_wo_entrp">   -191.26766631 </i>
    <i name="e_0_energy">   -191.37507489 </i>
   </energy>
  </scstep>
  <scstep>
   <time name="dav">   26.46   26.52</time>
   <time name="total">   26.97   27.04</time>
   <energy>
    <i name="e_fr_energy">   -191.48240460 </i>
    <i name="e_wo_entrp">   -191.26750171 </i>
    <i name="e_0_energy">   -191.37495315 </i>
   </energy>
  </scstep>
  <scstep>
   <time name="dav">   25.77   25.83</time>
   <time name="total">   26.27   26.35</time>
   <energy>
    <i name="e_fr_energy">   -191.48212890 </i>
    <i name="e_wo_entrp">   -191.26750497 </i>
    <i name="e_0_energy">   -191.37481694 </i>
   </energy>
  </scstep>
  <scstep>
   <time name="dav">   20.90   20.95</time>
   <time name="total">   20.93   20.99</time>
   <energy>
    <i name="alphaZ">     89.91164425 </i>
    <i name="ewald">  44539.48067673 </i>
    <i name="hartreedc"> -50549.47286311 </i>
    <i name="XCdc">   -233.45658283 </i>
    <i name="pawpsdc">   4082.86873168 </i>
    <i name="pawaedc">  -3498.81788395 </i>
    <i name="eentropy">     -0.21472012 </i>
    <i name="bandstr">  -1383.22366583 </i>
    <i name="atom">   6761.44252427 </i>
    <i name="e_fr_energy">   -191.48213891 </i>
    <i name="e_wo_entrp">   -191.26741880 </i>
    <i name="e_0_energy">   -191.37477886 </i>
   </energy>
  </scstep>
  <structure>
   <crystal>
    <varray name="basis" >
     <v>       8.30071694       4.77897066       0.00000000 </v>
     <v>      -8.30234424       4.78177808       0.00000000 </v>
     <v>       0.00000000       0.00000000      30.00000000 </v>
    </varray>
    <i name="volume">   2381.06537512 </i>
    <varray name="rec_basis" >
     <v>       0.06024754       0.10460457       0.00000000 </v>
     <v>      -0.06021217       0.10458407       0.00000000 </v>
     <v>       0.00000000       0.00000000       0.03333333 </v>
    </varray>
   </crystal>
   <varray name="positions" >
    <v>       0.32932559       0.67189941      -0.00046571 </v>
    <v>       0.67729126       0.67267861      -0.00034140 </v>
    <v>       0.99533417       0.33252342       0.00023713 </v>
    <v>       0.01239538      -0.00635500       0.00012737 </v>
    <v>       0.31952702      -0.00010033      -0.00007654 </v>
    <v>       0.00714453       0.68350310       0.00007503 </v>
    <v>       0.32813425       0.31585817      -0.00032623 </v>
    <v>       0.66722549       0.00470565       0.00030515 </v>
    <v>       0.66370696       0.32732996       0.00023535 </v>
    <v>       0.10814065       0.22373289       0.94890470 </v>
    <v>       0.22175652       0.11094661       0.05542556 </v>
    <v>       0.11321408       0.55354262       0.95030494 </v>
    <v>       0.22046511       0.44618370       0.04855495 </v>
    <v>       0.11131103       0.88873894       0.94433615 </v>
    <v>       0.22509475       0.77530342       0.05240003 </v>
    <v>       0.44455222       0.22109568       0.94633656 </v>
    <v>       0.55339851       0.10974907       0.05235371 </v>
    <v>       0.44601770       0.55842849       0.95252987 </v>
    <v>       0.55712092       0.44942609       0.05039568 </v>
    <v>       0.44159359       0.88436875       0.94913486 </v>
    <v>       0.55280672       0.77250437       0.04930523 </v>
    <v>       0.78364504       0.22545470       0.94806784 </v>
    <v>       0.89220125       0.11524167       0.05022061 </v>
    <v>       0.77538856       0.55783821       0.94923514 </v>
    <v>       0.89196099       0.44348629       0.05008396 </v>
    <v>       0.77617490       0.88481841       0.94955873 </v>
    <v>       0.88328723       0.77531153       0.05308122 </v>
   </varray>
  </structure>
  <varray name="forces" >
   <v>      -0.24962788       0.03649094       0.00904023 </v>
   <v>       0.06323562       0.33419346      -0.00646931 </v>
   <v>      -0.22345561      -0.11260288       0.02052367 </v>
   <v>       0.24232002      -0.01411033      -0.03220849 </v>
   <v>      -0.11281339       0.07312277      -0.01869247 </v>
   <v>      -0.11306953       0.23060021      -0.03490427 </v>
   <v>       0.31292421      -0.24910444       0.02812845 </v>
   <v>      -0.22254121       0.09528401       0.02714739 </v>
   <v>       0.18084818      -0.34344199       0.00164910 </v>
   <v>       0.08618698      -0.05683901       0.04188481 </v>
   <v>       0.03049622      -0.07418714       0.19009349 </v>
   <v>      -0.09178260      -0.01087421      -0.00201793 </v>
   <v>       0.07288410      -0.02432222      -0.15631389 </v>
   <v>       0.02266961       0.03263321      -0.14443701 </v>
   <v>      -0.09618429       0.03505038       0.07157571 </v>
   <v>       0.05752453      -0.03396077      -0.17629370 </v>
   <v>      -0.03139910      -0.11262268       0.12290806 </v>
   <v>       0.07570264      -0.08738675       0.23630171 </v>
   <v>       0.03296371      -0.05477473      -0.07536522 </v>
   <v>      -0.08091827       0.04327898      -0.02800255 </v>
   <v>      -0.01695421       0.02945935      -0.04951434 </v>
   <v>      -0.02162446       0.00687736      -0.15539747 </v>
   <v>       0.10821869      -0.02361820      -0.08545822 </v>
   <v>       0.08998541       0.02281287       0.09518703 </v>
   <v>      -0.12347516       0.05650317      -0.07367912 </v>
   <v>      -0.01522953       0.13375121       0.04531684 </v>
   <v>       0.02311532       0.06778742       0.14899750 </v>
  </varray>
  <varray name="stress" >
   <v>      -0.21812293      -0.06092465      -0.12347374 </v>
   <v>      -0.06092467      -0.20450995      -0.16870762 </v>
   <v>      -0.12347362      -0.16870768      -0.99893008 </v>
  </varray>
  <energy>
   <i name="e_fr_energy">   -191.48213891 </i>
   <i name="e_wo_entrp">   -191.37477886 </i>
   <i name="e_0_energy">     -0.21472012 </i>
  </energy>
  <time name="totalsc">  254.10  254.77</time>
 </calculation>
 <calculation>
  <scstep>
   <time name="dav">   21.41   21.46</time>
   <time name="total">   21.91   21.97</time>
   <energy>
    <i name="alphaZ">     90.06998172 </i>
    <i name="ewald">  44604.43662287 </i>
    <i name="hartreedc"> -50616.35022246 </i>
    <i name="XCdc">   -233.37901890 </i>
    <i name="pawpsdc">   4082.77262857 </i>
    <i name="pawaedc">  -3498.72039085 </i>
    <i name="eentropy">     -0.21656043 </i>
    <i name="bandstr">  -1381.59672659 </i>
    <i name="atom">   6761.44252427 </i>
    <i name="e_fr_energy">   -191.54116179 </i>
    <i name="e_wo_entrp">   -191.32460136 </i>
    <i name="e_0_energy">   -191.43288158 </i>
   </energy>
  </scstep>
  <scstep>
   <time name="dav">   32.77   32.84</time>
   <time name="total">   33.28   33.36</time>
   <energy>
    <i name="e_fr_energy">   -191.58050886 </i>
    <i name="e_wo_entrp">   -191.35177954 </i>
    <i name="e_0_energy">   -191.46614420 </i>
   </energy>
  </scstep>
  <scstep>
   <time name="dav">   30.14   30.21</time>
   <time name="total">   30.64   30.73</time>
   <energy>
    <i name="e_fr_energy">   -191.54961146 </i>
    <i name="e_wo_entrp">   -191.33332446 </i>
    <i name="e_0_energy">   -191.44146796 </i>
   </energy>
  </scstep>
  <scstep>
   <time name="dav">   27.66   27.73</time>
   <time name="total">   28.17   28.25</time>
   <energy>
    <i name="e_fr_energy">   -191.54877725 </i>
    <i name="e_wo_entrp">   -191.32981651 </i>
    <i name="e_0_energy">   -191.43929688 </i>
   </energy>
  </scstep>
  <scstep>
   <time name="dav">   26.58   26.64</time>
   <time name="total">   27.08   27.15</time>
   <energy>
    <i name="e_fr_energy">   -191.54697306 </i>
    <i name="e_wo_entrp">   -191.32883261 </i>
    <i name="e_0_energy">   -191.43790284 </i>
   </energy>
  </scstep>
  <scstep>
   <time name="dav">   25.06   25.12</time>
   <time name="total">   25.57   25.64</time>
   <energy>
    <i name="e_fr_energy">   -191.54600742 </i>
    <i name="e_wo_entrp">   -191.32710261 </i>
    <i name="e_0_energy">   -191.43655502 </i>
   </energy>
  </scstep>
  <scstep>
   <time name="dav">   26.28   26.34</time>
   <time name="total">   26.79   26.86</time>
   <energy>
    <i name="e_fr_energy">   -191.54580681 </i>
    <i name="e_wo_entrp">   -191.32682187 </i>
    <i name="e_0_energy">   -191.43631434 </i>
   </energy>
  </scstep>
  <scstep>
   <time name="dav">   24.33   24.39</time>
   <time name="total">   24.37   24.44</time>
   <energy>
    <i name="alphaZ">     90.06998172 </i>
    <i name="ewald">  44604.43662287 </i>
    <i name="hartreedc"> -50615.52091557 </i>
    <i name="XCdc">   -233.41870243 </i>
    <i name="pawpsdc">   4084.17813151 </i>
    <i name="pawaedc">  -3500.14084603 </i>
    <i name="eentropy">     -0.21885817 </i>
    <i name="bandstr">  -1382.37376436 </i>
    <i name="atom">   6761.44252427 </i>
    <i name="e_fr_energy">   -191.54582618 </i>
    <i name="e_wo_entrp">   -191.32696801 </i>
[...]
      <set comment="kpoint 31">
       <r>  -17.5688    1.0000 </r>
       <r>  -17.2273    1.0000 </r>
       <r>  -16.9247    1.0000 </r>
       <r>  -16.7248    1.0000 </r>
       <r>  -16.5201    1.0000 </r>
       <r>  -16.4329    1.0000 </r>
       <r>  -16.3392    1.0000 </r>
       <r>  -16.1784    1.0000 </r>
       <r>  -16.0505    1.0000 </r>
       <r>  -16.0238    1.0000 </r>
       <r>  -15.9458    1.0000 </r>
       <r>  -15.8775    1.0000 </r>
       <r>  -15.7592    1.0000 </r>
       <r>  -15.7127    1.0000 </r>
       <r>  -15.6553    1.0000 </r>
       <r>  -15.4475    1.0000 </r>
       <r>  -15.4204    1.0000 </r>
       <r>  -15.2179    1.0000 </r>
       <r>   -9.7493    1.0000 </r>
       <r>   -9.4423    1.0000 </r>
       <r>   -9.3698    1.0000 </r>
       <r>   -9.0803    1.0000 </r>
       <r>   -8.8708    1.0000 </r>
       <r>   -8.7202    1.0000 </r>
       <r>   -8.5286    1.0000 </r>
       <r>   -8.4766    1.0000 </r>
       <r>   -8.3994    1.0000 </r>
       <r>   -8.3379    1.0000 </r>
       <r>   -8.2888    1.0000 </r>
       <r>   -8.1990    1.0000 </r>
       <r>   -8.1624    1.0000 </r>
       <r>   -8.0849    1.0000 </r>
       <r>   -7.9634    1.0000 </r>
       <r>   -7.8837    1.0000 </r>
       <r>   -7.8349    1.0000 </r>
       <r>   -7.7365    1.0000 </r>
       <r>   -7.6235    1.0000 </r>
       <r>   -7.4601    1.0000 </r>
       <r>   -7.2969    1.0000 </r>
       <r>   -7.2225    1.0000 </r>
       <r>   -7.1191    1.0000 </r>
       <r>   -7.0756    1.0000 </r>
       <r>   -7.0122    1.0000 </r>
       <r>   -6.9231    1.0000 </r>
       <r>   -6.8592    1.0000 </r>
       <r>   -6.7919    1.0000 </r>
       <r>   -6.6683    1.0000 </r>
       <r>   -6.6348    1.0000 </r>
       <r>   -6.5926    1.0000 </r>
       <r>   -6.4446    1.0000 </r>
       <r>   -6.4084    1.0000 </r>
       <r>   -6.3824    1.0000 </r>
       <r>   -6.2879    1.0000 </r>
       <r>   -6.2227    1.0000 </r>
       <r>   -6.1396    1.0000 </r>
       <r>   -6.0675    1.0000 </r>
       <r>   -5.9624    1.0000 </r>
       <r>   -5.9340    1.0000 </r>
       <r>   -5.8830    1.0000 </r>
       <r>   -5.7671    1.0000 </r>
       <r>   -5.7035    1.0000 </r>
       <r>   -5.5976    1.0000 </r>
       <r>   -5.5624    1.0000 </r>
       <r>   -5.3279    1.0000 </r>
       <r>   -5.2494    1.0000 </r>
       <r>   -5.1790    1.0000 </r>
       <r>   -4.9966    1.0000 </r>
       <r>   -4.8990    1.0000 </r>
       <r>   -4.8425    1.0000 </r>
       <r>   -4.6703    1.0000 </r>
       <r>   -4.5883    1.0000 </r>
       <r>   -4.5441    1.0000 </r>
       <r>   -4.4027    1.0000 </r>
       <r>   -4.2939    1.0000 </r>
       <r>   -4.1156    1.0000 </r>
       <r>   -4.0251    1.0000 </r>
       <r>   -3.8176    0.9996 </r>
       <r>   -3.7212    0.9963 </r>
       <r>   -3.4863    0.8458 </r>
       <r>   -3.4444    0.7649 </r>
       <r>   -2.9911    0.0065 </r>
       <r>   -2.8206    0.0001 </r>
       <r>   -2.7407    0.0000 </r>
       <r>   -2.5972    0.0000 </r>
       <r>   -2.4872    0.0000 </r>
       <r>   -2.4017    0.0000 </r>
       <r>   -2.3035    0.0000 </r>
       <r>   -2.1964    0.0000 </r>
       <r>   -2.1469    0.0000 </r>
       <r>   -1.8876    0.0000 </r>
       <r>   -1.7114    0.0000 </r>
       <r>   -1.5327    0.0000 </r>
       <r>   -1.4371    0.0000 </r>
       <r>   -1.3729    0.0000 </r>
       <r>   -1.2569    0.0000 </r>
       <r>   -1.2040    0.0000 </r>
       <r>   -1.0832    0.0000 </r>
       <r>   -1.0197    0.0000 </r>
       <r>   -0.9741    0.0000 </r>
       <r>   -0.9067    0.0000 </r>
       <r>   -0.8647    0.0000 </r>
       <r>   -0.7503    0.0000 </r>
       <r>   -0.7234    0.0000 </r>
       <r>   -0.5958    0.0000 </r>
       <r>   -0.4318    0.0000 </r>
       <r>   -0.3684    0.0000 </r>
       <r>   -0.2220    0.0000 </r>
       <r>   -0.1333    0.0000 </r>
       <r>    0.0673    0.0000 </r>
       <r>    0.1868    0.0000 </r>
       <r>    0.3937    0.0000 </r>
       <r>    0.5773    0.0000 </r>
       <r>    0.6503    0.0000 </r>
       <r>    0.9622    0.0000 </r>
       <r>    1.0319    0.0000 </r>
       <r>    1.3518    0.0000 </r>
       <r>    1.4099    0.0000 </r>
       <r>    2.1232    0.0000 </r>
       <r>    2.3005    0.0000 </r>
       <r>    2.3870    0.0000 </r>
      </set>
      <set comment="kpoint 32">
       <r>  -17.5746    1.0000 </r>
       <r>  -17.1454    1.0000 </r>
       <r>  -17.0551    1.0000 </r>
       <r>  -16.7267    1.0000 </r>
       <r>  -16.4502    1.0000 </r>
       <r>  -16.4017    1.0000 </r>
       <r>  -16.3005    1.0000 </r>
       <r>  -16.2081    1.0000 </r>
       <r>  -16.0970    1.0000 </r>
       <r>  -16.0402    1.0000 </r>
       <r>  -15.9454    1.0000 </r>
       <r>  -15.8655    1.0000 </r>
       <r>  -15.7766    1.0000 </r>
       <r>  -15.7137    1.0000 </r>
       <r>  -15.6540    1.0000 </r>
       <r>  -15.4506    1.0000 </r>
       <r>  -15.4175    1.0000 </r>
       <r>  -15.2042    1.0000 </r>
       <r>   -9.6539    1.0000 </r>
       <r>   -9.5624    1.0000 </r>
       <r>   -9.4653    1.0000 </r>
       <r>   -9.0656    1.0000 </r>
       <r>   -8.7506    1.0000 </r>
       <r>   -8.5511    1.0000 </r>
       <r>   -8.5139    1.0000 </r>
       <r>   -8.4552    1.0000 </r>
       <r>   -8.4005    1.0000 </r>
       <r>   -8.3503    1.0000 </r>
       <r>   -8.3106    1.0000 </r>
       <r>   -8.2384    1.0000 </r>
       <r>   -8.2013    1.0000 </r>
       <r>   -8.1141    1.0000 </r>
       <r>   -8.0317    1.0000 </r>
       <r>   -7.9352    1.0000 </r>
       <r>   -7.8784    1.0000 </r>
       <r>   -7.7268    1.0000 </r>
       <r>   -7.5428    1.0000 </r>
       <r>   -7.4987    1.0000 </r>
       <r>   -7.3405    1.0000 </r>
       <r>   -7.2547    1.0000 </r>
       <r>   -7.0703    1.0000 </r>
       <r>   -7.0304    1.0000 </r>
       <r>   -7.0096    1.0000 </r>
       <r>   -6.9387    1.0000 </r>
       <r>   -6.8487    1.0000 </r>
       <r>   -6.8269    1.0000 </r>
       <r>   -6.6815    1.0000 </r>
       <r>   -6.6207    1.0000 </r>
       <r>   -6.5658    1.0000 </r>
       <r>   -6.4861    1.0000 </r>
       <r>   -6.3933    1.0000 </r>
       <r>   -6.3358    1.0000 </r>
       <r>   -6.3082    1.0000 </r>
       <r>   -6.2584    1.0000 </r>
       <r>   -6.0864    1.0000 </r>
       <r>   -6.0625    1.0000 </r>
       <r>   -5.9911    1.0000 </r>
       <r>   -5.9318    1.0000 </r>
       <r>   -5.8382    1.0000 </r>
       <r>   -5.7095    1.0000 </r>
       <r>   -5.6911    1.0000 </r>
       <r>   -5.5724    1.0000 </r>
       <r>   -5.5078    1.0000 </r>
       <r>   -5.3897    1.0000 </r>
       <r>   -5.2948    1.0000 </r>
       <r>   -5.1566    1.0000 </r>
       <r>   -5.0786    1.0000 </r>
       <r>   -4.9608    1.0000 </r>
       <r>   -4.8675    1.0000 </r>
       <r>   -4.6406    1.0000 </r>
       <r>   -4.5528    1.0000 </r>
       <r>   -4.4998    1.0000 </r>
       <r>   -4.4005    1.0000 </r>
       <r>   -4.3765    1.0000 </r>
       <r>   -4.1080    1.0000 </r>
       <r>   -4.0239    1.0000 </r>
       <r>   -3.7996    0.9994 </r>
       <r>   -3.6474    0.9845 </r>
       <r>   -3.4996    0.8670 </r>
       <r>   -3.4728    0.8221 </r>
       <r>   -2.9890    0.0062 </r>
       <r>   -2.8152    0.0001 </r>
       <r>   -2.7445    0.0000 </r>
       <r>   -2.5658    0.0000 </r>
       <r>   -2.5049    0.0000 </r>
       <r>   -2.3794    0.0000 </r>
       <r>   -2.2783    0.0000 </r>
       <r>   -2.2224    0.0000 </r>
       <r>   -2.1373    0.0000 </r>
       <r>   -1.9498    0.0000 </r>
       <r>   -1.6889    0.0000 </r>
       <r>   -1.5770    0.0000 </r>
       <r>   -1.4408    0.0000 </r>
       <r>   -1.3217    0.0000 </r>
       <r>   -1.2470    0.0000 </r>
       <r>   -1.2253    0.0000 </r>
       <r>   -1.0704    0.0000 </r>
       <r>   -1.0475    0.0000 </r>
       <r>   -0.9811    0.0000 </r>
       <r>   -0.9129    0.0000 </r>
       <r>   -0.8724    0.0000 </r>
       <r>   -0.7694    0.0000 </r>
       <r>   -0.6712    0.0000 </r>
       <r>   -0.5473    0.0000 </r>
       <r>   -0.4659    0.0000 </r>
       <r>   -0.2863    0.0000 </r>
       <r>   -0.2634    0.0000 </r>
       <r>   -0.1778    0.0000 </r>
       <r>    0.0425    0.0000 </r>
       <r>    0.2429    0.0000 </r>
       <r>    0.4178    0.0000 </r>
       <r>    0.4819    0.0000 </r>
       <r>    0.6600    0.0000 </r>
       <r>    0.9641    0.0000 </r>
       <r>    1.0421    0.0000 </r>
       <r>    1.2756    0.0000 </r>
       <r>    1.4535    0.0000 </r>
       <r>    2.0934    0.0000 </r>
       <r>    2.2672    0.0000 </r>
       <r>    2.5614    0.0000 </r>
      </set>
      <set comment="kpoint 33">
       <r>  -17.5601    1.0000 </r>
       <r>  -17.2525    1.0000 </r>
       <r>  -16.9065    1.0000 </r>
       <r>  -16.7279    1.0000 </r>
       <r>  -16.4922    1.0000 </r>
       <r>  -16.4507    1.0000 </r>
       <r>  -16.3481    1.0000 </r>
       <r>  -16.1662    1.0000 </r>
       <r>  -16.0634    1.0000 </r>
       <r>  -16.0254    1.0000 </r>
       <r>  -15.9441    1.0000 </r>
       <r>  -15.8506    1.0000 </r>
       <r>  -15.7784    1.0000 </r>
       <r>  -15.7364    1.0000 </r>
       <r>  -15.6349    1.0000 </r>
       <r>  -15.4637    1.0000 </r>
       <r>  -15.4216    1.0000 </r>
       <r>  -15.2046    1.0000 </r>
       <r>   -9.7333    1.0000 </r>
       <r>   -9.4469    1.0000 </r>
       <r>   -9.3959    1.0000 </r>
       <r>   -9.0618    1.0000 </r>
       <r>   -8.8768    1.0000 </r>
       <r>   -8.6928    1.0000 </r>
       <r>   -8.5373    1.0000 </r>
       <r>   -8.4813    1.0000 </r>
       <r>   -8.3885    1.0000 </r>
       <r>   -8.3420    1.0000 </r>
       <r>   -8.2998    1.0000 </r>
       <r>   -8.2153    1.0000 </r>
       <r>   -8.1456    1.0000 </r>
       <r>   -8.0773    1.0000 </r>
       <r>   -7.9858    1.0000 </r>
       <r>   -7.9053    1.0000 </r>
       <r>   -7.8225    1.0000 </r>
       <r>   -7.7271    1.0000 </r>
       <r>   -7.6287    1.0000 </r>
       <r>   -7.4318    1.0000 </r>
       <r>   -7.2936    1.0000 </r>
       <r>   -7.2279    1.0000 </r>
       <r>   -7.1097    1.0000 </r>
       <r>   -7.0639    1.0000 </r>
       <r>   -7.0124    1.0000 </r>
       <r>   -6.9372    1.0000 </r>
       <r>   -6.8460    1.0000 </r>
       <r>   -6.7965    1.0000 </r>
       <r>   -6.6985    1.0000 </r>
       <r>   -6.6535    1.0000 </r>
       <r>   -6.5693    1.0000 </r>
       <r>   -6.4833    1.0000 </r>
       <r>   -6.3986    1.0000 </r>
       <r>   -6.3797    1.0000 </r>
       <r>   -6.2782    1.0000 </r>
       <r>   -6.2165    1.0000 </r>
       <r>   -6.1265    1.0000 </r>
       <r>   -6.0690    1.0000 </r>
       <r>   -6.0021    1.0000 </r>
       <r>   -5.9107    1.0000 </r>
       <r>   -5.8774    1.0000 </r>
       <r>   -5.7764    1.0000 </r>
       <r>   -5.7063    1.0000 </r>
       <r>   -5.6253    1.0000 </r>
       <r>   -5.5202    1.0000 </r>
       <r>   -5.3162    1.0000 </r>
       <r>   -5.2683    1.0000 </r>
       <r>   -5.1930    1.0000 </r>
       <r>   -5.0035    1.0000 </r>
       <r>   -4.9021    1.0000 </r>
       <r>   -4.8657    1.0000 </r>
       <r>   -4.6698    1.0000 </r>
       <r>   -4.6118    1.0000 </r>
       <r>   -4.5002    1.0000 </r>
       <r>   -4.3978    1.0000 </r>
       <r>   -4.2574    1.0000 </r>
       <r>   -4.1049    1.0000 </r>
       <r>   -4.0280    1.0000 </r>
       <r>   -3.7989    0.9994 </r>
       <r>   -3.6864    0.9925 </r>
       <r>   -3.5419    0.9210 </r>
       <r>   -3.4694    0.8157 </r>
       <r>   -2.9737    0.0046 </r>
       <r>   -2.8292    0.0001 </r>
       <r>   -2.7162    0.0000 </r>
       <r>   -2.5603    0.0000 </r>
       <r>   -2.5209    0.0000 </r>
       <r>   -2.3844    0.0000 </r>
       <r>   -2.2749    0.0000 </r>
       <r>   -2.2069    0.0000 </r>
       <r>   -2.1253    0.0000 </r>
       <r>   -1.9477    0.0000 </r>
       <r>   -1.6570    0.0000 </r>
       <r>   -1.6070    0.0000 </r>
       <r>   -1.4821    0.0000 </r>
       <r>   -1.3338    0.0000 </r>
       <r>   -1.2444    0.0000 </r>
       <r>   -1.1956    0.0000 </r>
       <r>   -1.1040    0.0000 </r>
       <r>   -1.0440    0.0000 </r>
       <r>   -0.9755    0.0000 </r>
       <r>   -0.9433    0.0000 </r>
       <r>   -0.8727    0.0000 </r>
       <r>   -0.7311    0.0000 </r>
       <r>   -0.6236    0.0000 </r>
       <r>   -0.5471    0.0000 </r>
       <r>   -0.4518    0.0000 </r>
       <r>   -0.3666    0.0000 </r>
       <r>   -0.2267    0.0000 </r>
       <r>   -0.1626    0.0000 </r>
       <r>   -0.0436    0.0000 </r>
       <r>    0.2760    0.0000 </r>
       <r>    0.3861    0.0000 </r>
       <r>    0.4741    0.0000 </r>
       <r>    0.6768    0.0000 </r>
       <r>    0.9691    0.0000 </r>
       <r>    1.0817    0.0000 </r>
       <r>    1.2311    0.0000 </r>
       <r>    1.5266    0.0000 </r>
       <r>    2.1236    0.0000 </r>
       <r>    2.2971    0.0000 </r>
       <r>    2.3883    0.0000 </r>
      </set>
      <set comment="kpoint 34">
       <r>  -17.5452    1.0000 </r>
       <r>  -17.3075    1.0000 </r>
       <r>  -16.7351    1.0000 </r>
       <r>  -16.7231    1.0000 </r>
       <r>  -16.6719    1.0000 </r>
       <r>  -16.4553    1.0000 </r>
       <r>  -16.3397    1.0000 </r>
       <r>  -16.1718    1.0000 </r>
       <r>  -16.0458    1.0000 </r>
       <r>  -15.9936    1.0000 </r>
       <r>  -15.9393    1.0000 </r>
       <r>  -15.8481    1.0000 </r>
       <r>  -15.7736    1.0000 </r>
       <r>  -15.7413    1.0000 </r>
       <r>  -15.6303    1.0000 </r>
       <r>  -15.4696    1.0000 </r>
       <r>  -15.4284    1.0000 </r>
       <r>  -15.2085    1.0000 </r>
       <r>   -9.7749    1.0000 </r>
       <r>   -9.3839    1.0000 </r>
       <r>   -9.2451    1.0000 </r>
       <r>   -9.0838    1.0000 </r>
       <r>   -9.0083    1.0000 </r>
       <r>   -8.8310    1.0000 </r>
       <r>   -8.5481    1.0000 </r>
       <r>   -8.5021    1.0000 </r>
       <r>   -8.4082    1.0000 </r>
       <r>   -8.3369    1.0000 </r>
       <r>   -8.2531    1.0000 </r>
       <r>   -8.1757    1.0000 </r>
       <r>   -8.1517    1.0000 </r>
       <r>   -8.0407    1.0000 </r>
       <r>   -7.9700    1.0000 </r>
       <r>   -7.9078    1.0000 </r>
       <r>   -7.7838    1.0000 </r>
       <r>   -7.7192    1.0000 </r>
       <r>   -7.5462    1.0000 </r>
       <r>   -7.4005    1.0000 </r>
       <r>   -7.3275    1.0000 </r>
       <r>   -7.2548    1.0000 </r>
       <r>   -7.1125    1.0000 </r>
       <r>   -7.0639    1.0000 </r>
       <r>   -7.0063    1.0000 </r>
       <r>   -6.9510    1.0000 </r>
       <r>   -6.8705    1.0000 </r>
       <r>   -6.7587    1.0000 </r>
       <r>   -6.7078    1.0000 </r>
       <r>   -6.6540    1.0000 </r>
       <r>   -6.5633    1.0000 </r>
       <r>   -6.5015    1.0000 </r>
       <r>   -6.4119    1.0000 </r>
       <r>   -6.3704    1.0000 </r>
       <r>   -6.2871    1.0000 </r>
       <r>   -6.2559    1.0000 </r>
       <r>   -6.1208    1.0000 </r>
       <r>   -6.0854    1.0000 </r>
       <r>   -5.9741    1.0000 </r>
       <r>   -5.9260    1.0000 </r>
       <r>   -5.8653    1.0000 </r>
       <r>   -5.8259    1.0000 </r>
       <r>   -5.7835    1.0000 </r>
       <r>   -5.6041    1.0000 </r>
       <r>   -5.4828    1.0000 </r>
       <r>   -5.3610    1.0000 </r>
       <r>   -5.3138    1.0000 </r>
       <r>   -5.1168    1.0000 </r>
       <r>   -4.9119    1.0000 </r>
       <r>   -4.8869    1.0000 </r>
       <r>   -4.8140    1.0000 </r>
       <r>   -4.7553    1.0000 </r>
       <r>   -4.6209    1.0000 </r>
       <r>   -4.5144    1.0000 </r>
       <r>   -4.3824    1.0000 </r>
       <r>   -4.1904    1.0000 </r>
       <r>   -4.0703    1.0000 </r>
       <r>   -4.0323    1.0000 </r>
       <r>   -3.8414    0.9998 </r>
       <r>   -3.7251    0.9966 </r>
       <r>   -3.5667    0.9437 </r>
       <r>   -3.4591    0.7956 </r>
       <r>   -2.9621    0.0036 </r>
       <r>   -2.8389    0.0002 </r>
       <r>   -2.6996    0.0000 </r>
       <r>   -2.5707    0.0000 </r>
       <r>   -2.5197    0.0000 </r>
       <r>   -2.3967    0.0000 </r>
       <r>   -2.2766    0.0000 </r>
       <r>   -2.1877    0.0000 </r>
       <r>   -2.1235    0.0000 </r>
       <r>   -1.9293    0.0000 </r>
       <r>   -1.6530    0.0000 </r>
       <r>   -1.5969    0.0000 </r>
       <r>   -1.5106    0.0000 </r>
       <r>   -1.3635    0.0000 </r>
       <r>   -1.2176    0.0000 </r>
       <r>   -1.1825    0.0000 </r>
       <r>   -1.1320    0.0000 </r>
       <r>   -1.0474    0.0000 </r>
       <r>   -0.9846    0.0000 </r>
       <r>   -0.9437    0.0000 </r>
       <r>   -0.8578    0.0000 </r>
       <r>   -0.7210    0.0000 </r>
       <r>   -0.5982    0.0000 </r>
       <r>   -0.5589    0.0000 </r>
       <r>   -0.4624    0.0000 </r>
       <r>   -0.3708    0.0000 </r>
       <r>   -0.2229    0.0000 </r>
       <r>   -0.1542    0.0000 </r>
       <r>   -0.0859    0.0000 </r>
       <r>    0.2560    0.0000 </r>
       <r>    0.3802    0.0000 </r>
       <r>    0.4866    0.0000 </r>
       <r>    0.6905    0.0000 </r>
       <r>    0.9768    0.0000 </r>
       <r>    1.0954    0.0000 </r>
       <r>    1.2313    0.0000 </r>
       <r>    1.5629    0.0000 </r>
       <r>    2.1889    0.0000 </r>
       <r>    2.2575    0.0000 </r>
       <r>    2.3786    0.0000 </r>
      </set>
     </set>
    </set>
   </array>
  </eigenvalues>
  <separator name="orbital magnetization" >
   <v name="MAGDIPOLOUT">      0.00000000      0.00000000      0.00000000</v>
  </separator>
 </calculation>
 <structure name="finalpos" >
  <crystal>
   <varray name="basis" >
    <v>       8.35614375       4.79874331       0.00000000 </v>
    <v>      -8.36987135       4.82252327       0.00000000 </v>
    <v>       0.00000000       0.00000000      30.00000000 </v>
   </varray>
   <i name="volume">   2413.87685450 </i>
   <varray name="rec_basis" >
    <v>       0.05993500       0.10402193       0.00000000 </v>
    <v>      -0.05963945       0.10385133       0.00000000 </v>
    <v>       0.00000000       0.00000000       0.03333333 </v>
   </varray>
  </crystal>
  <varray name="positions" >
   <v>       0.32352070       0.68444247      -0.00029981 </v>
   <v>       0.69682071       0.70094877       0.00103772 </v>
   <v>       0.98211892       0.35094102      -0.00151789 </v>
   <v>       0.01958126      -0.01537482       0.00028613 </v>
   <v>       0.33059385      -0.00145724       0.00012884 </v>
   <v>       0.01730152       0.69332723       0.00055846 </v>
   <v>       0.33154064       0.29790661      -0.00014379 </v>
   <v>       0.65283916       0.00919836       0.00016809 </v>
   <v>       0.64676227       0.29780387      -0.00037402 </v>
   <v>       0.10828068       0.22332588       0.95209788 </v>
   <v>       0.22232755       0.10345013       0.05682776 </v>
   <v>       0.11213744       0.55916109       0.94851598 </v>
   <v>       0.21850846       0.44176476       0.04261240 </v>
   <v>       0.11828277       0.88898427       0.94338203 </v>
   <v>       0.22323427       0.77403095       0.05476616 </v>
   <v>       0.44412583       0.21419026       0.94339734 </v>
   <v>       0.54882858       0.10336409       0.05658587 </v>
   <v>       0.44685277       0.55655575       0.95899491 </v>
   <v>       0.55767212       0.44623545       0.04771835 </v>
   <v>       0.44350500       0.88230686       0.94650185 </v>
   <v>       0.55211522       0.77567183       0.04897268 </v>
   <v>       0.77873041       0.22265410       0.94531280 </v>
   <v>       0.89576370       0.11683454       0.04344526 </v>
   <v>       0.77133427       0.55255259       0.95583857 </v>
   <v>       0.88143083       0.44495747       0.04945608 </v>
   <v>       0.78457709       0.89533329       0.95017487 </v>
   <v>       0.88942845       0.77910490       0.05555538 </v>
  </varray>
 </structure>
</modeling>
