unknown system                          
           1
     8.857819    5.102974    0.000000
    -8.858977    5.104966    0.000000
     0.000000    0.000000   30.000000
   V    Mo   W    S 
   3   3   3  18
Direct configuration=     1
   0.33333334  0.66666669  0.00000000
   0.66666669  0.66666669  0.00000000
   1.00000000  0.33333334  0.00000000
   0.00000000  0.00000000  0.00000000
   0.33333334  0.00000000  0.00000000
   0.00000000  0.66666669  0.00000000
   0.33333334  0.33333334  0.00000000
   0.66666669  0.00000000  0.00000000
   0.66666669  0.33333334  0.00000000
   0.11068511  0.22244981  0.95539999
   0.22244981  0.11068511  0.04460000
   0.11068511  0.55578315  0.95539999
   0.22244981  0.44401845  0.04460000
   0.11068511  0.88911647  0.95539999
   0.22244981  0.77735180  0.04460000
   0.44401845  0.22244981  0.95539999
   0.55578315  0.11068511  0.04460000
   0.44401845  0.55578315  0.95539999
   0.55578315  0.44401845  0.04460000
   0.44401845  0.88911647  0.95539999
   0.55578315  0.77735180  0.04460000
   0.77735180  0.22244981  0.95539999
   0.88911647  0.11068511  0.04460000
   0.77735180  0.55578315  0.95539999
   0.88911647  0.44401845  0.04460000
   0.77735180  0.88911647  0.95539999
   0.88911647  0.77735180  0.04460000
unknown system                          
           1
     8.669414    4.997018    0.000000
    -8.670404    4.998722    0.000000
     0.000000    0.000000   30.000000
   V    Mo   W    S 
   3   3   3  18
Direct configuration=     2
   0.33215668  0.66748586 -0.00007136
   0.66852098  0.66771550  0.00011674
   1.00027832  0.33364774 -0.00014807
   0.00150333 -0.00146827  0.00023096
   0.33050983 -0.00130834  0.00002832
   0.00147565  0.66932297 -0.00000157
   0.33181899  0.33114311 -0.00008242
   0.66656944 -0.00055863  0.00007539
   0.66689053  0.33357677 -0.00015225
   0.10955569  0.22518929  0.95200673
   0.22252783  0.11192439  0.04932061
   0.11316481  0.55318207  0.95304823
   0.22037294  0.44609521  0.04694938
   0.11109908  0.88876872  0.95067247
   0.22456600  0.77532058  0.04802714
   0.44492239  0.22291828  0.95071662
   0.55611796  0.11136580  0.04920064
   0.44588005  0.55893668  0.95320633
   0.55730002  0.44825639  0.04811093
   0.44311741  0.88484882  0.95196078
   0.55405624  0.77421330  0.04690951
   0.78150457  0.22404533  0.95182673
   0.89002672  0.11495343  0.04799291
   0.77476727  0.55681147  0.95203250
   0.89027338  0.44151561  0.04793383
   0.77501657  0.88479875  0.95196954
   0.88422174  0.77551363  0.04811928
unknown system                          
           1
     8.487494    4.898086    0.000000
    -8.488241    4.899369    0.000000
     0.000000    0.000000   30.000000
   V    Mo   W    S 
   3   3   3  18
Direct configuration=     3
   0.33186803  0.66775984 -0.00012678
   0.66911635  0.66805719  0.00008737
   1.00018085  0.33366807 -0.00012708
   0.00230267 -0.00191307  0.00024885
   0.32947813 -0.00148065  0.00002964
   0.00200132  0.67046793  0.00000393
   0.33145674  0.33012349 -0.00014133
   0.66658722 -0.00039981  0.00012281
   0.66678871  0.33337729 -0.00011926
   0.10974259  0.22531567  0.95201212
   0.22264041  0.11213210  0.04948140
   0.11321557  0.55318425  0.95308574
   0.22048461  0.44600608  0.04684555
   0.11107896  0.88877039  0.95047090
   0.22460843  0.77524741  0.04812257
   0.44500864  0.22311975  0.95069823
   0.55632672  0.11145636  0.04913910
   0.44580541  0.55874107  0.95338573
   0.55724671  0.44812903  0.04802916
   0.44327994  0.88486624  0.95199099
   0.55411304  0.77438021  0.04684720
   0.78138908  0.22401662  0.95183557
   0.88985780  0.11492268  0.04792130
   0.77461093  0.55662724  0.95204739
   0.89008889  0.44138333  0.04785360
   0.77483987  0.88482447  0.95201951
   0.88409684  0.77543130  0.04823569
unknown system                          
           1
     8.290233    4.778922    0.000000
    -8.290987    4.780216    0.000000
     0.000000    0.000000   30.000000
   V    Mo   W    S 
   3   3   3  18
Direct configuration=     4
   0.33099257  0.66892769 -0.00030265
   0.67138821  0.66920558 -0.00007631
   0.99918733  0.33335867  0.00000801
   0.00572163 -0.00344148  0.00022010
   0.32570391 -0.00149924  0.00002312
   0.00374581  0.67483658  0.00003188
   0.33041555  0.32585536 -0.00030531
   0.66677015  0.00086725  0.00023724
   0.66607793  0.33209288  0.00005381
   0.10907154  0.22547712  0.95058487
   0.22265721  0.11211147  0.05176705
   0.11365095  0.55290069  0.95192112
   0.22024960  0.44643383  0.04776123
   0.11097573  0.88876697  0.94809363
   0.22512153  0.77464750  0.04992150
   0.44495357  0.22295468  0.94897861
   0.55612037  0.11132132  0.05049889
   0.44624423  0.55944836  0.95277854
   0.55760267  0.44906822  0.04918058
   0.44270329  0.88395887  0.95067837
   0.55344087  0.77330764  0.04796368
   0.78243839  0.22459325  0.95033949
   0.89056518  0.11584535  0.04905609
   0.77426749  0.55717981  0.95068263
   0.89071288  0.44122097  0.04894728
   0.77445768  0.88399095  0.95080324
   0.88297818  0.77478418  0.05015321
unknown system                          
           1
     8.300717    4.778971    0.000000
    -8.302344    4.781778    0.000000
     0.000000    0.000000   30.000000
   V    Mo   W    S 
   3   3   3  18
Direct configuration=     5
   0.32969456  0.67112600 -0.00047355
   0.67569181  0.67153896 -0.00038070
   0.99657120  0.33257975  0.00026684
   0.01225563 -0.00604877  0.00010240
   0.31910202 -0.00076003 -0.00000011
   0.00677480  0.68272470  0.00011798
   0.32842590  0.31766909 -0.00040768
   0.66726617  0.00366776  0.00029417
   0.66457544  0.32909118  0.00027951
   0.10815570  0.22460511  0.94881861
   0.22214493  0.11138402  0.05508064
   0.11369923  0.55317149  0.95027438
   0.22023240  0.44659876  0.04876706
   0.11100689  0.88871546  0.94466249
   0.22530582  0.77459837  0.05231579
   0.44465630  0.22174526  0.94656067
   0.55449066  0.11040483  0.05225976
   0.44639189  0.55942561  0.95221471
   0.55749828  0.44986446  0.05052272
   0.44173332  0.88359422  0.94908449
   0.55266122  0.77224886  0.04938716
   0.78369571  0.22531008  0.94825136
   0.89185410  0.11607599  0.05038016
   0.77473852  0.55792790  0.94907987
   0.89185846  0.44237730  0.05020013
   0.77511151  0.88384121  0.94943824
   0.88262199  0.77473687  0.05290279
unknown system                          
           1
     8.292737    4.773278    0.000000
    -8.295991    4.778911    0.000000
     0.000000    0.000000   30.000000
   V    Mo   W    S 
   3   3   3  18
Direct configuration=     6
   0.32932559  0.67189941 -0.00046571
   0.67729126  0.67267861 -0.00034140
   0.99533417  0.33252342  0.00023713
   0.01239538 -0.00635500  0.00012737
   0.31952702 -0.00010033 -0.00007654
   0.00714453  0.68350310  0.00007503
   0.32813425  0.31585817 -0.00032623
   0.66722549  0.00470565  0.00030515
   0.66370696  0.32732996  0.00023535
   0.10814065  0.22373289  0.94890470
   0.22175652  0.11094661  0.05542556
   0.11321408  0.55354262  0.95030494
   0.22046511  0.44618370  0.04855495
   0.11131103  0.88873894  0.94433615
   0.22509475  0.77530342  0.05240003
   0.44455222  0.22109568  0.94633656
   0.55339851  0.10974907  0.05235371
   0.44601770  0.55842849  0.95252987
   0.55712092  0.44942609  0.05039568
   0.44159359  0.88436875  0.94913486
   0.55280672  0.77250437  0.04930523
   0.78364504  0.22545470  0.94806784
   0.89220125  0.11524167  0.05022061
   0.77538856  0.55783821  0.94923514
   0.89196099  0.44348629  0.05008396
   0.77617490  0.88481841  0.94955873
   0.88328723  0.77531153  0.05308122
unknown system                          
           1
     8.296979    4.775002    0.000000
    -8.300818    4.781650    0.000000
     0.000000    0.000000   30.000000
   V    Mo   W    S 
   3   3   3  18
Direct configuration=     7
   0.32872223  0.67292016 -0.00045481
   0.67938479  0.67432630 -0.00035809
   0.99396669  0.33258441  0.00027636
   0.01321152 -0.00722792  0.00007197
   0.31942693  0.00066216 -0.00011117
   0.00809145  0.68526118  0.00001753
   0.32771838  0.31335690 -0.00027910
   0.66706510  0.00597737  0.00035201
   0.66239165  0.32486114  0.00024221
   0.10807327  0.22312524  0.94892582
   0.22143384  0.11043298  0.05584440
   0.11286765  0.55377868  0.95025567
   0.22056168  0.44583185  0.04831983
   0.11156072  0.88884041  0.94399094
   0.22498863  0.77579612  0.05258888
   0.44453526  0.22068988  0.94596762
   0.55263464  0.10920892  0.05261286
   0.44578377  0.55771761  0.95291268
   0.55692182  0.44905364  0.05030707
   0.44154143  0.88485004  0.94904324
   0.55289074  0.77268246  0.04926231
   0.78365310  0.22558236  0.94774387
   0.89245384  0.11477593  0.05011325
   0.77581221  0.55770861  0.94935124
   0.89192308  0.44421950  0.04999609
   0.77688071  0.88558653  0.94959678
   0.88371930  0.77561201  0.05341042
unknown system                          
           1
     8.280242    4.767165    0.000000
    -8.281470    4.769278    0.000000
     0.000000    0.000000   30.000000
   V    Mo   W    S 
   3   3   3  18
Direct configuration=     8
   0.32860352  0.67316047 -0.00045476
   0.67989318  0.67480751 -0.00036102
   0.99368770  0.33266202  0.00028393
   0.01311534 -0.00746829  0.00007870
   0.31973642  0.00085424 -0.00012018
   0.00824167  0.68549904  0.00000873
   0.32772730  0.31301352 -0.00027166
   0.66696584  0.00621676  0.00036212
   0.66200715  0.32418106  0.00023533
   0.10808554  0.22304864  0.94899064
   0.22135717  0.11032074  0.05584094
   0.11280015  0.55380121  0.95028833
   0.22056968  0.44574663  0.04821842
   0.11166121  0.88888199  0.94400255
   0.22496807  0.77589034  0.05257423
   0.44456617  0.22067144  0.94593930
   0.55254284  0.10912266  0.05265443
   0.44576610  0.55759379  0.95305404
   0.55689786  0.44895375  0.05023006
   0.44158860  0.88492634  0.94905325
   0.55293895  0.77274664  0.04920389
   0.78360107  0.22556624  0.94772524
   0.89245215  0.11470142  0.05003488
   0.77585572  0.55763250  0.94945204
   0.89181769  0.44430481  0.04992608
   0.77697643  0.88573604  0.94964619
   0.88379092  0.77564295  0.05340420
unknown system                          
           1
     8.282757    4.766905    0.000000
    -8.284720    4.770295    0.000000
     0.000000    0.000000   30.000000
   V    Mo   W    S 
   3   3   3  18
Direct configuration=     9
   0.32926867  0.67174565 -0.00044890
   0.67791160  0.67255983 -0.00032680
   0.99440913  0.33189777  0.00024580
   0.01325635 -0.00639859  0.00010677
   0.31841611  0.00030195 -0.00011230
   0.00686653  0.68413644  0.00005616
   0.32772958  0.31447684 -0.00028901
   0.66801927  0.00556229  0.00030429
   0.66404106  0.32746834  0.00026846
   0.10806553  0.22331911  0.94874076
   0.22162480  0.11078752  0.05585217
   0.11279831  0.55356588  0.95016881
   0.22040481  0.44582646  0.04865251
   0.11121690  0.88867338  0.94396191
   0.22493318  0.77574248  0.05262607
   0.44436931  0.22063375  0.94612192
   0.55275610  0.10944172  0.05238062
   0.44589530  0.55783123  0.95245613
   0.55690856  0.44939269  0.05052895
   0.44145151  0.88500191  0.94905707
   0.55295864  0.77258406  0.04942504
   0.78394280  0.22574560  0.94782293
   0.89253224  0.11497754  0.05033475
   0.77577514  0.55810714  0.94902142
   0.89243359  0.44406995  0.05018724
   0.77667269  0.88512053  0.94952716
   0.88355673  0.77564295  0.05332996
unknown system                          
           1
     8.291942    4.769621    0.000000
    -8.295812    4.776323    0.000000
     0.000000    0.000000   30.000000
   V    Mo   W    S 
   3   3   3  18
Direct configuration=    10
   0.32907032  0.67203606 -0.00045559
   0.67875759  0.67308007 -0.00032673
   0.99369838  0.33176257  0.00025397
   0.01349391 -0.00669792  0.00010857
   0.31829921  0.00058371 -0.00013547
   0.00703365  0.68472196  0.00004148
   0.32758864  0.31352428 -0.00027131
   0.66816846  0.00619075  0.00031340
   0.66373588  0.32670400  0.00027300
   0.10802808  0.22308523  0.94871198
   0.22145763  0.11057984  0.05608105
   0.11261256  0.55360211  0.95013445
   0.22038638  0.44563366  0.04859257
   0.11130678  0.88869423  0.94376118
   0.22486729  0.77597443  0.05272555
   0.44438633  0.22046215  0.94595247
   0.55240650  0.10922769  0.05248432
   0.44584378  0.55751741  0.95258321
   0.55682791  0.44929396  0.05052821
   0.44143720  0.88524974  0.94901947
   0.55303803  0.77265277  0.04942594
   0.78401553  0.22585649  0.94765609
   0.89268905  0.11483523  0.05033643
   0.77593050  0.55810394  0.94901123
   0.89248277  0.44437806  0.05018599
   0.77695740  0.88538212  0.94952543
   0.88369468  0.77577990  0.05348300
unknown system                          
           1
     8.293792    4.771257    0.000000
    -8.297459    4.777607    0.000000
     0.000000    0.000000   30.000000
   V    Mo   W    S 
   3   3   3  18
Direct configuration=    11
   0.32842800  0.67324356 -0.00047012
   0.68105534  0.67491217 -0.00033426
   0.99222757  0.33193901  0.00026641
   0.01361314 -0.00771448  0.00005748
   0.31877188  0.00110529 -0.00016209
   0.00798753  0.68619401 -0.00003307
   0.32749156  0.31151412 -0.00023187
   0.66782558  0.00744100  0.00036816
   0.66231092  0.32401128  0.00026370
   0.10809799  0.22264891  0.94888749
   0.22110257  0.11007610  0.05627860
   0.11240067  0.55382506  0.95025317
   0.22046446  0.44530102  0.04819901
   0.11159901  0.88881268  0.94365381
   0.22476057  0.77633432  0.05269006
   0.44461761  0.22036644  0.94571692
   0.55193281  0.10882246  0.05266576
   0.44570603  0.55694072  0.95316075
   0.55672719  0.44884226  0.05030550
   0.44157902  0.88554224  0.94908130
   0.55320262  0.77294064  0.04920114
   0.78383260  0.22590457  0.94740772
   0.89280080  0.11450106  0.05016991
   0.77611363  0.55780220  0.94926437
   0.89214603  0.44490428  0.05001363
   0.77743939  0.88606548  0.94964683
   0.88397994  0.77593805  0.05367957
unknown system                          
           1
     8.312438    4.783694    0.000000
    -8.315416    4.788845    0.000000
     0.000000    0.000000   30.000000
   V    Mo   W    S 
   3   3   3  18
Direct configuration=    12
   0.32853329  0.67302637 -0.00046710
   0.68052808  0.67454502 -0.00033013
   0.99257951  0.33196283  0.00026067
   0.01357303 -0.00747438  0.00006021
   0.31873450  0.00095298 -0.00015298
   0.00788104  0.68586849 -0.00002104
   0.32750585  0.31197046 -0.00023967
   0.66781820  0.00714325  0.00035674
   0.66257640  0.32451850  0.00026312
   0.10808174  0.22274138  0.94886574
   0.22117338  0.11017048  0.05621861
   0.11247002  0.55379232  0.95024896
   0.22046028  0.44539256  0.04826263
   0.11154417  0.88879392  0.94370404
   0.22479432  0.77624718  0.05267042
   0.44459365  0.22040958  0.94577367
   0.55204605  0.10890865  0.05262440
   0.44571411  0.55707228  0.95305613
   0.55675885  0.44891542  0.05034112
   0.44155042  0.88545121  0.94908574
   0.55315171  0.77288663  0.04923269
   0.78385243  0.22588832  0.94746955
   0.89277026  0.11456483  0.05019478
   0.77606401  0.55782521  0.94922756
   0.89218526  0.44478482  0.05003826
   0.77734529  0.88595221  0.94962515
   0.88392860  0.77590394  0.05363064
unknown system                          
           1
     8.313002    4.784700    0.000000
    -8.315270    4.788615    0.000000
     0.000000    0.000000   30.000000
   V    Mo   W    S 
   3   3   3  18
Direct configuration=    13
   0.32858977  0.67255381 -0.00045994
   0.68024591  0.67448388 -0.00034158
   0.99298910  0.33213279  0.00026927
   0.01323188 -0.00768881  0.00009401
   0.31874426  0.00082882 -0.00015167
   0.00752987  0.68558996  0.00001011
   0.32746586  0.31256866 -0.00026516
   0.66797313  0.00682342  0.00035632
   0.66296752  0.32504469  0.00026214
   0.10806039  0.22295159  0.94896246
   0.22127766  0.11027601  0.05603278
   0.11246129  0.55364612  0.95032336
   0.22029690  0.44537800  0.04824940
   0.11152898  0.88877916  0.94386293
   0.22482434  0.77619471  0.05258139
   0.44455760  0.22050057  0.94593981
   0.55226836  0.10907148  0.05252014
   0.44586742  0.55724956  0.95305031
   0.55687687  0.44899949  0.05023062
   0.44157727  0.88540632  0.94914937
   0.55321249  0.77288838  0.04915957
   0.78388184  0.22586566  0.94765769
   0.89266526  0.11471101  0.05007035
   0.77596104  0.55782540  0.94937023
   0.89215758  0.44457532  0.04992410
   0.77713945  0.88574893  0.94972465
   0.88386242  0.77580953  0.05341724
unknown system                          
           1
     8.313129    4.782840    0.000000
    -8.315976    4.787749    0.000000
     0.000000    0.000000   30.000000
   V    Mo   W    S 
   3   3   3  18
Direct configuration=    14
   0.32873040  0.67203731 -0.00046410
   0.67960504  0.67404023 -0.00033857
   0.99350256  0.33219975  0.00025159
   0.01317156 -0.00753588  0.00009223
   0.31848925  0.00063223 -0.00014022
   0.00725132  0.68520725  0.00002413
   0.32740648  0.31318432 -0.00028743
   0.66808457  0.00640733  0.00034468
   0.66346571  0.32586780  0.00027459
   0.10805296  0.22307919  0.94898491
   0.22139787  0.11044643  0.05590664
   0.11250601  0.55357654  0.95036346
   0.22022618  0.44543707  0.04832641
   0.11142020  0.88871902  0.94397643
   0.22483467  0.77611386  0.05250362
   0.44450983  0.22057271  0.94608879
   0.55247105  0.10923715  0.05238221
   0.44593868  0.55740011  0.95293341
   0.55691921  0.44909936  0.05021300
   0.44156789  0.88535111  0.94921899
   0.55321394  0.77286076  0.04915573
   0.78392884  0.22585922  0.94780035
   0.89260861  0.11479796  0.05005722
   0.77589883  0.55788667  0.94937185
   0.89223840  0.44442589  0.04991250
   0.77699315  0.88555553  0.94974900
   0.88378125  0.77575552  0.05329847
unknown system                          
           1
     8.312193    4.779677    0.000000
    -8.316722    4.787505    0.000000
     0.000000    0.000000   30.000000
   V    Mo   W    S 
   3   3   3  18
Direct configuration=    15
   0.32879098  0.67121103 -0.00050203
   0.67909389  0.67406990 -0.00031622
   0.99396151  0.33259755  0.00020471
   0.01348624 -0.00746007  0.00011399
   0.31796723  0.00076857 -0.00010765
   0.00739665  0.68522907  0.00003583
   0.32699282  0.31318132 -0.00030729
   0.66818630  0.00611544  0.00034369
   0.66389511  0.32614821  0.00029205
   0.10795223  0.22292587  0.94905779
   0.22135162  0.11053905  0.05579781
   0.11258499  0.55362183  0.95046582
   0.22020313  0.44552475  0.04838144
   0.11139117  0.88865762  0.94397694
   0.22485788  0.77614192  0.05230417
   0.44450639  0.22064141  0.94628938
   0.55244549  0.10924145  0.05214683
   0.44599578  0.55743857  0.95290696
   0.55688061  0.44919411  0.05008536
   0.44152293  0.88535250  0.94948420
   0.55321157  0.77281509  0.04908260
   0.78399441  0.22590288  0.94791403
   0.89265698  0.11469634  0.04999107
   0.77581652  0.55787275  0.94938652
   0.89236256  0.44449198  0.04991326
   0.77702272  0.88553460  0.94975380
   0.88368675  0.77576068  0.05330487
unknown system                          
           1
     8.306982    4.777742    0.000000
    -8.310483    4.783786    0.000000
     0.000000    0.000000   30.000000
   V    Mo   W    S 
   3   3   3  18
Direct configuration=    16
   0.32827743  0.67163194 -0.00051089
   0.68085605  0.67593769 -0.00034257
   0.99289892  0.33305869  0.00025975
   0.01360086 -0.00836242  0.00008801
   0.31811363  0.00135657 -0.00018206
   0.00814025  0.68637429 -0.00000405
   0.32672576  0.31165095 -0.00026927
   0.66819000  0.00711139  0.00036404
   0.66297654  0.32389006  0.00026175
   0.10783440  0.22242652  0.94912804
   0.22099346  0.11017129  0.05609060
   0.11244821  0.55382290  0.95043571
   0.22030334  0.44534505  0.04816571
   0.11171290  0.88878005  0.94376267
   0.22489559  0.77642828  0.05236317
   0.44468831  0.22055780  0.94604787
   0.55190129  0.10877179  0.05238470
   0.44586745  0.55697429  0.95328006
   0.55671784  0.44884647  0.04992349
   0.44157110  0.88555295  0.94950635
   0.55321596  0.77289527  0.04902249
   0.78388552  0.22590934  0.94765400
   0.89285761  0.11448998  0.04986672
   0.77594322  0.55767844  0.94956501
   0.89217458  0.44494163  0.04985810
   0.77748375  0.88610890  0.94974140
   0.88394047  0.77586435  0.05353908
unknown system                          
           1
     8.307534    4.780341    0.000000
    -8.308221    4.781503    0.000000
     0.000000    0.000000   30.000000
   V    Mo   W    S 
   3   3   3  18
Direct configuration=    17
   0.32857023  0.67175101 -0.00050324
   0.68004881  0.67474021 -0.00034324
   0.99332700  0.33260001  0.00024472
   0.01356376 -0.00783668  0.00008061
   0.31806074  0.00094772 -0.00017019
   0.00774278  0.68583095  0.00000735
   0.32700453  0.31241012 -0.00028359
   0.66809575  0.00666457  0.00034179
   0.66335886  0.32514798  0.00026840
   0.10796842  0.22268666  0.94907104
   0.22119707  0.11035308  0.05597942
   0.11252597  0.55376452  0.95045552
   0.22031115  0.44542926  0.04824234
   0.11154243  0.88872878  0.94387992
   0.22482643  0.77626081  0.05236226
   0.44460714  0.22055315  0.94613841
   0.55218449  0.10904002  0.05228867
   0.44587998  0.55717059  0.95311485
   0.55677455  0.44898893  0.05005622
   0.44156378  0.88547449  0.94945823
   0.55321015  0.77288283  0.04904715
   0.78387562  0.22589668  0.94776719
   0.89271141  0.11454405  0.04996232
   0.77592215  0.55778029  0.94943899
   0.89226219  0.44473715  0.04988042
   0.77723866  0.88582116  0.94977779
   0.88384043  0.77584610  0.05343655
unknown system                          
           1
     8.300985    4.776311    0.000000
    -8.303397    4.780474    0.000000
     0.000000    0.000000   30.000000
   V    Mo   W    S 
   3   3   3  18
Direct configuration=    18
   0.32931070  0.67176142 -0.00047897
   0.67828338  0.67197721 -0.00034125
   0.99439745  0.33160137  0.00022173
   0.01346813 -0.00673598  0.00008782
   0.31766611  0.00003769 -0.00013962
   0.00667854  0.68461001  0.00004930
   0.32753058  0.31411144 -0.00029843
   0.66799966  0.00558354  0.00028376
   0.66447194  0.32832301  0.00027984
   0.10816476  0.22313571  0.94888431
   0.22161749  0.11076308  0.05581186
   0.11270963  0.55368079  0.95048110
   0.22036642  0.44565216  0.04846926
   0.11115494  0.88859437  0.94403586
   0.22472496  0.77594700  0.05235062
   0.44446073  0.22050267  0.94632251
   0.55267084  0.10959159  0.05204255
   0.44591936  0.55757348  0.95271500
   0.55688463  0.44937743  0.05037788
   0.44147139  0.88537476  0.94938278
   0.55317032  0.77278553  0.04911073
   0.78387998  0.22592753  0.94798657
   0.89245243  0.11457900  0.05020733
   0.77586783  0.55804847  0.94908778
   0.89258305  0.44440979  0.04997604
   0.77673516  0.88517222  0.94984371
   0.88357405  0.77582918  0.05324984
unknown system                          
           1
     8.305036    4.777585    0.000000
    -8.308361    4.783331    0.000000
     0.000000    0.000000   30.000000
   V    Mo   W    S 
   3   3   3  18
Direct configuration=    19
   0.32900217  0.67273274 -0.00047414
   0.67917792  0.67191412 -0.00032532
   0.99359624  0.33115035  0.00026314
   0.01399756 -0.00664266  0.00011478
   0.31747526 -0.00003356 -0.00011994
   0.00709080  0.68530476  0.00002357
   0.32746446  0.31295114 -0.00027384
   0.66789031  0.00643208  0.00033939
   0.66410536  0.32774944  0.00027676
   0.10822513  0.22289191  0.94889435
   0.22143772  0.11045453  0.05596371
   0.11260517  0.55382784  0.95051792
   0.22052357  0.44552764  0.04827687
   0.11122098  0.88865290  0.94386908
   0.22465135  0.77608392  0.05242284
   0.44455543  0.22040923  0.94615864
   0.55237694  0.10944781  0.05211822
   0.44571771  0.55723028  0.95296423
   0.55678969  0.44916442  0.05042113
   0.44144996  0.88551405  0.94930638
   0.55317588  0.77286054  0.04903917
   0.78382875  0.22602621  0.94784298
   0.89248266  0.11438120  0.05016669
   0.77606509  0.55798872  0.94902496
   0.89253344  0.44467848  0.04991725
   0.77700018  0.88554045  0.94986959
   0.88377472  0.77597591  0.05340147
unknown system                          
           1
     8.308036    4.779208    0.000000
    -8.311188    4.784654    0.000000
     0.000000    0.000000   30.000000
   V    Mo   W    S 
   3   3   3  18
Direct configuration=    20
   0.32865275  0.67297980 -0.00048231
   0.68024596  0.67324367 -0.00033516
   0.99295219  0.33151003  0.00027532
   0.01393393 -0.00726178  0.00010495
   0.31785543  0.00042508 -0.00014798
   0.00755119  0.68594406 -0.00000085
   0.32732437  0.31208060 -0.00026087
   0.66786376  0.00703351  0.00035998
   0.66341724  0.32611720  0.00026772
   0.10813652  0.22269822  0.94896790
   0.22124641  0.11023113  0.05607404
   0.11248824  0.55384844  0.95048663
   0.22050299  0.44539647  0.04815247
   0.11142541  0.88874194  0.94377596
   0.22468679  0.77623736  0.05247907
   0.44461801  0.22038576  0.94602700
   0.55212835  0.10919054  0.05228885
   0.44571548  0.55703893  0.95318375
   0.55674898  0.44898953  0.05029148
   0.44150828  0.88557736  0.94928743
   0.55321710  0.77292050  0.04900682
   0.78381064  0.22599877  0.94770511
   0.89260193  0.11435666  0.05007190
   0.77611197  0.55786330  0.94918412
   0.89236699  0.44485167  0.04987422
   0.77721418  0.88583385  0.94985836
   0.88388934  0.77598183  0.05350400
unknown system                          
           1
     8.306326    4.776621    0.000000
    -8.311111    4.784903    0.000000
     0.000000    0.000000   30.000000
   V    Mo   W    S 
   3   3   3  18
Direct configuration=    21
   0.32852608  0.67373863 -0.00048758
   0.68080687  0.67290448 -0.00034731
   0.99240646  0.33100434  0.00029293
   0.01411661 -0.00721315  0.00008343
   0.31785302  0.00029839 -0.00019492
   0.00759357  0.68626765 -0.00003203
   0.32740842  0.31151553 -0.00025128
   0.66779425  0.00758228  0.00035432
   0.66330212  0.32605719  0.00025470
   0.10817538  0.22261447  0.94895502
   0.22120079  0.11008829  0.05620406
   0.11238206  0.55386656  0.95050095
   0.22057696  0.44529588  0.04803939
   0.11144525  0.88880201  0.94369578
   0.22460702  0.77629793  0.05258486
   0.44463050  0.22025650  0.94593624
   0.55197038  0.10918303  0.05236164
   0.44562693  0.55685812  0.95333823
   0.55670087  0.44891068  0.05035757
   0.44151589  0.88568743  0.94920490
   0.55326594  0.77298310  0.04895520
   0.78379863  0.22605295  0.94762190
   0.89260741  0.11426273  0.05008677
   0.77625279  0.55787328  0.94912051
   0.89238772  0.44499860  0.04984451
   0.77728285  0.88595837  0.94993564
   0.88397968  0.77606916  0.05358446
unknown system                          
           1
     8.301762    4.774645    0.000000
    -8.305869    4.781753    0.000000
     0.000000    0.000000   30.000000
   V    Mo   W    S 
   3   3   3  18
Direct configuration=    22
   0.32808383  0.67404092 -0.00049388
   0.68217637  0.67481579 -0.00036164
   0.99168901  0.33162318  0.00030894
   0.01398813 -0.00808593  0.00008106
   0.31850642  0.00098840 -0.00020442
   0.00828651  0.68711355 -0.00005342
   0.32725826  0.31046323 -0.00023799
   0.66763507  0.00824087  0.00039781
   0.66219297  0.32370423  0.00025623
   0.10810569  0.22240983  0.94908401
   0.22096951  0.10981610  0.05626483
   0.11226995  0.55390879  0.95047198
   0.22054941  0.44514961  0.04786636
   0.11173268  0.88891382  0.94362878
   0.22464660  0.77645901  0.05261390
   0.44470633  0.22027751  0.94578583
   0.55174347  0.10886883  0.05257465
   0.44563928  0.55666296  0.95362466
   0.55665210  0.44867065  0.05014875
   0.44162282  0.88571025  0.94918948
   0.55331106  0.77307305  0.04890321
   0.78372061  0.22596988  0.94747331
   0.89270426  0.11423039  0.04993536
   0.77629692  0.55768145  0.94937677
   0.89210080  0.44516566  0.04976175
   0.77751766  0.88630413  0.94991959
   0.88410874  0.77603827  0.05368401
unknown system                          
           1
     8.309257    4.776241    0.000000
    -8.316463    4.788730    0.000000
     0.000000    0.000000   30.000000
   V    Mo   W    S 
   3   3   3  18
Direct configuration=    23
   0.32809699  0.67485936 -0.00048498
   0.68210332  0.67337260 -0.00035117
   0.99140469  0.33069607  0.00032747
   0.01434709 -0.00758709  0.00009186
   0.31807684  0.00037510 -0.00019622
   0.00815245  0.68715009 -0.00005302
   0.32735889  0.31031415 -0.00021790
   0.66754733  0.00861739  0.00040877
   0.66265543  0.32475264  0.00027792
   0.10823846  0.22244891  0.94904172
   0.22105214  0.10977172  0.05627712
   0.11223860  0.55393273  0.95054531
   0.22065485  0.44511502  0.04777184
   0.11158306  0.88891455  0.94360761
   0.22450401  0.77642626  0.05265325
   0.44469331  0.22015891  0.94580152
   0.55178584  0.10908830  0.05247668
   0.44549951  0.55655529  0.95369954
   0.55661537  0.44864935  0.05028862
   0.44160779  0.88579614  0.94912538
   0.55334193  0.77317385  0.04880453
   0.78372833  0.22606660  0.94747909
   0.89259311  0.11413012  0.04998960
   0.77645731  0.55776895  0.94918350
   0.89225964  0.44522122  0.04972302
   0.77742837  0.88627909  0.95005682
   0.88418980  0.77616711  0.05367202
unknown system                          
           1
     8.312414    4.777829    0.000000
    -8.319740    4.790528    0.000000
     0.000000    0.000000   30.000000
   V    Mo   W    S 
   3   3   3  18
Direct configuration=    24
   0.32744868  0.67535179 -0.00049190
   0.68417947  0.67650761 -0.00037907
   0.99042761  0.33181904  0.00034793
   0.01393750 -0.00900934  0.00008015
   0.31944854  0.00144835 -0.00021968
   0.00922621  0.68835990 -0.00008480
   0.32727958  0.30895006 -0.00020769
   0.66713251  0.00944144  0.00046715
   0.66074750  0.32094666  0.00025165
   0.10807372  0.22218194  0.94921601
   0.22069142  0.10935066  0.05640011
   0.11209556  0.55398438  0.95046064
   0.22060174  0.44493557  0.04753816
   0.11210282  0.88911404  0.94348984
   0.22459777  0.77662987  0.05273901
   0.44483898  0.22022076  0.94551712
   0.55141868  0.10855132  0.05290084
   0.44557072  0.55638132  0.95409388
   0.55659093  0.44835155  0.04998707
   0.44177094  0.88575209  0.94904912