   27   27  100    1
  0.9710400E+02  0.1002848E-08  0.1002848E-08  0.3000000E-08  0.5000000E-15
  1.000000000000000E-004
  CAR 
 unknown system                          
    159     34    120
 
  0.0000000E+00  0.0000000E+00  0.0000000E+00  0.1562500E-01
    1      -17.825234   1.000000
    2      -16.790856   1.000000
    3      -16.648503   1.000000
    4      -16.611706   1.000000
    5      -16.485281   1.000000
    6      -16.434277   1.000000
    7      -16.361293   1.000000
    8      -16.286706   1.000000
    9      -16.258875   1.000000
   10      -16.157988   1.000000
   11      -16.093462   1.000000
   12      -15.934342   1.000000
   13      -15.869312   1.000000
   14      -15.660949   1.000000
   15      -15.633082   1.000000
   16      -15.523736   1.000000
   17      -15.325323   1.000000
   18      -15.250831   1.000000
   19       -9.235245   1.000000
   20       -9.025829   1.000000
   21       -8.900114   1.000000
   22       -8.868284   1.000000
   23       -8.772187   1.000000
   24       -8.708170   1.000000
   25       -8.655951   1.000000
   26       -8.619742   1.000000
   27       -8.563086   1.000000
   28       -8.432007   1.000000
   29       -8.430214   1.000000
   30       -8.338670   1.000000
   31       -8.310238   1.000000
   32       -8.221512   1.000000
   33       -8.163265   1.000000
   34       -8.063627   1.000000
   35       -7.841088   1.000000
   36       -7.791193   1.000000
   37       -7.664690   1.000000
   38       -7.589215   1.000000
   39       -7.441404   1.000000
   40       -7.344337   1.000000
   41       -7.305238   1.000000
   42       -7.215136   1.000000
   43       -7.100889   1.000000
   44       -6.980249   1.000000
   45       -6.884968   1.000000
   46       -6.824759   1.000000
   47       -6.766942   1.000000
   48       -6.752837   1.000000
   49       -6.690855   1.000000
   50       -6.516915   1.000000
   51       -6.429296   1.000000
   52       -6.310348   1.000000
   53       -6.232653   1.000000
   54       -6.167445   1.000000
   55       -6.051741   1.000000
   56       -6.025172   1.000000
   57       -6.000221   1.000000
   58       -5.869849   1.000000
   59       -5.738877   1.000000
   60       -5.661161   1.000000
   61       -5.580610   1.000000
   62       -5.449952   1.000000
   63       -5.377255   1.000000
   64       -5.065004   1.000000
   65       -5.050131   1.000000
   66       -4.892330   1.000000
   67       -4.841195   1.000000
   68       -4.824188   1.000000
   69       -4.803686   1.000000
   70       -4.699572   1.000000
   71       -4.666740   1.000000
   72       -4.583842   1.000000
   73       -4.442968   1.000000
   74       -4.286767   1.000000
   75       -4.236904   1.000000
   76       -4.076727   1.000000
   77       -3.768334   0.999801
   78       -3.566740   0.982820
   79       -3.475557   0.929363
   80       -3.300388   0.591898
   81       -3.160395   0.224384
   82       -2.801798   0.000495
   83       -2.686492   0.000020
   84       -2.653335   0.000007
   85       -2.481534   0.000000
   86       -2.381018   0.000000
   87       -2.197534   0.000000
   88       -2.185872   0.000000
   89       -2.082638   0.000000
   90       -1.877374   0.000000
   91       -1.763600   0.000000
   92       -1.643256   0.000000
   93       -1.360667   0.000000
   94       -1.258929   0.000000
   95       -1.179925   0.000000
   96       -1.065206   0.000000
   97       -1.001689   0.000000
   98       -0.967671   0.000000
   99       -0.797199   0.000000
  100       -0.658937   0.000000
  101       -0.621975   0.000000
  102       -0.544529   0.000000
  103       -0.468458   0.000000
  104       -0.433722   0.000000
  105       -0.258489   0.000000
  106       -0.194661   0.000000
  107       -0.040577   0.000000
  108        0.008899   0.000000
  109        0.132640   0.000000
  110        0.193866   0.000000
  111        0.358306   0.000000
  112        0.479595   0.000000
  113        0.506620   0.000000
  114        0.953741   0.000000
  115        1.088164   0.000000
  116        1.228902   0.000000
  117        1.351869   0.000000
  118        1.646658   0.000000
  119        1.839558   0.000000
  120        2.166714   0.000000
 
  0.1250000E+00  0.2775558E-16  0.0000000E+00  0.3125000E-01
    1      -17.800190   1.000000
    2      -16.832264   1.000000
    3      -16.699911   1.000000
    4      -16.663151   1.000000
    5      -16.527871   1.000000
    6      -16.391455   1.000000
    7      -16.330557   1.000000
    8      -16.273725   1.000000
    9      -16.240000   1.000000
   10      -16.155880   1.000000
   11      -16.010951   1.000000
   12      -15.926846   1.000000
   13      -15.861443   1.000000
   14      -15.666422   1.000000
   15      -15.637506   1.000000
   16      -15.539404   1.000000
   17      -15.329087   1.000000
   18      -15.253484   1.000000
   19       -9.261572   1.000000
   20       -9.167439   1.000000
   21       -9.010197   1.000000
   22       -8.899334   1.000000
   23       -8.856367   1.000000
   24       -8.758209   1.000000
   25       -8.672572   1.000000
   26       -8.605610   1.000000
   27       -8.525285   1.000000
   28       -8.414630   1.000000
   29       -8.308792   1.000000
   30       -8.284188   1.000000
   31       -8.259491   1.000000
   32       -8.132338   1.000000
   33       -8.074596   1.000000
   34       -8.012240   1.000000
   35       -7.775867   1.000000
   36       -7.743557   1.000000
   37       -7.652260   1.000000
   38       -7.589587   1.000000
   39       -7.486016   1.000000
   40       -7.411473   1.000000
   41       -7.271208   1.000000
   42       -7.192926   1.000000
   43       -7.114623   1.000000
   44       -7.039537   1.000000
   45       -6.954286   1.000000
   46       -6.830389   1.000000
   47       -6.764422   1.000000
   48       -6.670069   1.000000
   49       -6.612630   1.000000
   50       -6.491041   1.000000
   51       -6.399232   1.000000
   52       -6.335182   1.000000
   53       -6.245053   1.000000
   54       -6.184338   1.000000
   55       -6.100591   1.000000
   56       -6.036827   1.000000
   57       -5.956645   1.000000
   58       -5.919775   1.000000
   59       -5.693503   1.000000
   60       -5.650603   1.000000
   61       -5.559536   1.000000
   62       -5.534221   1.000000
   63       -5.455106   1.000000
   64       -5.155028   1.000000
   65       -5.089907   1.000000
   66       -4.895700   1.000000
   67       -4.871663   1.000000
   68       -4.815999   1.000000
   69       -4.785357   1.000000
   70       -4.665579   1.000000
   71       -4.606595   1.000000
   72       -4.548596   1.000000
   73       -4.422522   1.000000
   74       -4.291390   1.000000
   75       -4.191998   1.000000
   76       -4.095762   1.000000
   77       -3.813995   0.999944
   78       -3.656268   0.997010
   79       -3.526279   0.966354
   80       -3.243091   0.431435
   81       -3.125876   0.158279
   82       -2.753435   0.000139
   83       -2.674616   0.000014
   84       -2.640896   0.000005
   85       -2.466095   0.000000
   86       -2.367927   0.000000
   87       -2.170036   0.000000
   88       -2.159230   0.000000
   89       -2.045109   0.000000
   90       -1.897730   0.000000
   91       -1.752551   0.000000
   92       -1.636377   0.000000
   93       -1.365571   0.000000
   94       -1.246996   0.000000
   95       -1.195455   0.000000
   96       -1.073248   0.000000
   97       -1.022648   0.000000
   98       -0.945516   0.000000
   99       -0.821722   0.000000
  100       -0.748008   0.000000
  101       -0.712120   0.000000
  102       -0.633310   0.000000
  103       -0.547063   0.000000
  104       -0.412761   0.000000
  105       -0.365764   0.000000
  106       -0.199476   0.000000
  107       -0.025614   0.000000
  108        0.088020   0.000000
  109        0.155368   0.000000
  110        0.237576   0.000000
  111        0.392139   0.000000
  112        0.509388   0.000000
  113        0.558710   0.000000
  114        0.964634   0.000000
  115        1.070844   0.000000
  116        1.184727   0.000000
  117        1.280395   0.000000
  118        1.690346   0.000000
  119        1.879948   0.000000
  120        2.201732   0.000000
 
  0.2500000E+00  0.5551115E-16  0.0000000E+00  0.3125000E-01
    1      -17.726412   1.000000
    2      -17.007942   1.000000
    3      -16.736509   1.000000
    4      -16.712734   1.000000
    5      -16.574414   1.000000
    6      -16.377681   1.000000
    7      -16.312869   1.000000
    8      -16.230251   1.000000
    9      -16.191327   1.000000
   10      -16.112017   1.000000
   11      -15.909947   1.000000
   12      -15.877617   1.000000
   13      -15.835926   1.000000
   14      -15.693066   1.000000
   15      -15.631592   1.000000
   16      -15.580959   1.000000
   17      -15.340362   1.000000
   18      -15.260249   1.000000
   19       -9.529852   1.000000
   20       -9.198116   1.000000
   21       -9.130279   1.000000
   22       -8.991795   1.000000
   23       -8.959309   1.000000
   24       -8.825076   1.000000
   25       -8.655964   1.000000
   26       -8.555266   1.000000
   27       -8.472949   1.000000
   28       -8.420631   1.000000
   29       -8.270341   1.000000
   30       -8.205082   1.000000
   31       -8.156973   1.000000
   32       -8.060016   1.000000
   33       -7.901368   1.000000
   34       -7.809004   1.000000
   35       -7.775260   1.000000
   36       -7.706007   1.000000
   37       -7.655321   1.000000
   38       -7.532527   1.000000
   39       -7.478542   1.000000
   40       -7.362327   1.000000
   41       -7.281807   1.000000
   42       -7.178161   1.000000
   43       -7.114510   1.000000
   44       -7.046689   1.000000
   45       -6.930006   1.000000
   46       -6.835893   1.000000
   47       -6.772681   1.000000
   48       -6.612281   1.000000
   49       -6.535590   1.000000
   50       -6.443630   1.000000
   51       -6.356877   1.000000
   52       -6.342867   1.000000
   53       -6.240723   1.000000
   54       -6.221051   1.000000
   55       -6.130645   1.000000
   56       -6.083334   1.000000
   57       -6.018281   1.000000
   58       -5.863593   1.000000
   59       -5.740959   1.000000
   60       -5.709104   1.000000
   61       -5.635063   1.000000
   62       -5.563227   1.000000
   63       -5.475088   1.000000
   64       -5.372297   1.000000
   65       -5.265184   1.000000
   66       -4.903251   1.000000
   67       -4.877234   1.000000
   68       -4.803318   1.000000
   69       -4.728410   1.000000
   70       -4.642789   1.000000
   71       -4.533112   1.000000
   72       -4.459347   1.000000
   73       -4.391659   1.000000
   74       -4.316443   1.000000
   75       -4.154223   1.000000
   76       -4.100382   1.000000
   77       -3.886328   0.999994
   78       -3.813665   0.999944
   79       -3.563961   0.981966
   80       -3.156911   0.217076
   81       -3.081140   0.093771
   82       -2.678810   0.000016
   83       -2.642077   0.000005
   84       -2.606931   0.000001
   85       -2.437383   0.000000
   86       -2.315520   0.000000
   87       -2.125289   0.000000
   88       -2.058272   0.000000
   89       -1.965623   0.000000
   90       -1.901347   0.000000
   91       -1.732353   0.000000
   92       -1.613934   0.000000
   93       -1.388368   0.000000
   94       -1.270243   0.000000
   95       -1.233488   0.000000
   96       -1.112679   0.000000
   97       -1.047492   0.000000
   98       -0.997708   0.000000
   99       -0.909575   0.000000
  100       -0.867113   0.000000
  101       -0.823171   0.000000
  102       -0.747270   0.000000
  103       -0.695748   0.000000
  104       -0.567007   0.000000
  105       -0.346578   0.000000
  106       -0.212510   0.000000
  107       -0.055667   0.000000
  108        0.105873   0.000000
  109        0.154319   0.000000
  110        0.370811   0.000000
  111        0.434946   0.000000
  112        0.517704   0.000000
  113        0.728859   0.000000
  114        0.974634   0.000000
  115        1.046056   0.000000
  116        1.110308   0.000000
  117        1.162380   0.000000
  118        1.811545   0.000000
  119        1.995419   0.000000
  120        2.305493   0.000000
 
  0.3750000E+00  0.0000000E+00  0.0000000E+00  0.3125000E-01
    1      -17.609847   1.000000
    2      -17.217268   1.000000
    3      -16.751204   1.000000
    4      -16.741620   1.000000
    5      -16.604288   1.000000
    6      -16.377079   1.000000
    7      -16.321409   1.000000
    8      -16.220121   1.000000
    9      -16.105264   1.000000
   10      -16.043257   1.000000
   11      -15.900025   1.000000
   12      -15.855742   1.000000
   13      -15.752469   1.000000
   14      -15.705491   1.000000
   15      -15.661229   1.000000
   16      -15.594050   1.000000
   17      -15.355063   1.000000
   18      -15.267593   1.000000
   19       -9.740723   1.000000
   20       -9.316185   1.000000
   21       -9.159489   1.000000
   22       -9.047683   1.000000
   23       -8.962974   1.000000
   24       -8.879389   1.000000
   25       -8.583961   1.000000
   26       -8.499806   1.000000
   27       -8.433497   1.000000
   28       -8.376100   1.000000
   29       -8.273972   1.000000
   30       -8.220649   1.000000
   31       -8.186232   1.000000
   32       -8.004994   1.000000
   33       -7.892524   1.000000
   34       -7.844157   1.000000
   35       -7.734559   1.000000
   36       -7.702621   1.000000
   37       -7.594299   1.000000
   38       -7.479692   1.000000
   39       -7.339261   1.000000
   40       -7.288753   1.000000
   41       -7.206257   1.000000
   42       -7.127631   1.000000
   43       -7.097675   1.000000
   44       -6.983231   1.000000
   45       -6.825935   1.000000
   46       -6.768946   1.000000
   47       -6.696482   1.000000
   48       -6.600777   1.000000
   49       -6.512680   1.000000
   50       -6.472379   1.000000
   51       -6.423170   1.000000
   52       -6.351699   1.000000
   53       -6.271367   1.000000
   54       -6.190084   1.000000
   55       -6.147635   1.000000
   56       -6.079676   1.000000
   57       -6.012627   1.000000
   58       -5.889779   1.000000
   59       -5.843046   1.000000
   60       -5.733857   1.000000
   61       -5.695074   1.000000
   62       -5.636361   1.000000
   63       -5.567633   1.000000
   64       -5.459978   1.000000
   65       -5.346678   1.000000
   66       -4.933814   1.000000
   67       -4.894748   1.000000
   68       -4.822199   1.000000
   69       -4.770743   1.000000
   70       -4.668393   1.000000
   71       -4.589430   1.000000
   72       -4.461040   1.000000
   73       -4.344480   1.000000
   74       -4.216399   1.000000
   75       -4.131248   1.000000
   76       -4.040223   1.000000
   77       -3.941360   0.999999
   78       -3.892830   0.999995
   79       -3.554425   0.978758
   80       -3.093153   0.108799
   81       -3.057669   0.068924
   82       -2.657124   0.000008
   83       -2.635523   0.000004
   84       -2.540327   0.000000
   85       -2.401835   0.000000
   86       -2.245840   0.000000
   87       -2.061284   0.000000
   88       -1.955756   0.000000
   89       -1.906462   0.000000
   90       -1.834089   0.000000
   91       -1.695120   0.000000
   92       -1.576533   0.000000
   93       -1.492008   0.000000
   94       -1.357812   0.000000
   95       -1.269793   0.000000
   96       -1.209143   0.000000
   97       -1.095143   0.000000
   98       -1.056248   0.000000
   99       -1.003046   0.000000
  100       -0.949050   0.000000
  101       -0.899242   0.000000
  102       -0.805066   0.000000
  103       -0.756127   0.000000
  104       -0.604171   0.000000
  105       -0.372394   0.000000
  106       -0.265101   0.000000
  107       -0.085267   0.000000
  108        0.070972   0.000000
  109        0.133153   0.000000
  110        0.369960   0.000000
  111        0.506547   0.000000
  112        0.581563   0.000000
  113        0.820750   0.000000
  114        0.880351   0.000000
  115        1.042238   0.000000
  116        1.098760   0.000000
  117        1.176853   0.000000
  118        1.991552   0.000000
  119        2.174295   0.000000
  120        2.457766   0.000000
 
  0.5000000E+00  0.1110223E-15  0.0000000E+00  0.1562500E-01
    1      -17.503443   1.000000
    2      -17.357270   1.000000
    3      -16.762671   1.000000
    4      -16.745682   1.000000
    5      -16.613247   1.000000
    6      -16.378353   1.000000
    7      -16.326147   1.000000
    8      -16.219700   1.000000
    9      -16.056496   1.000000
   10      -15.994159   1.000000
   11      -15.948295   1.000000
   12      -15.819463   1.000000
   13      -15.728662   1.000000
   14      -15.712759   1.000000
   15      -15.689927   1.000000
   16      -15.581458   1.000000
   17      -15.362325   1.000000
   18      -15.270847   1.000000
   19       -9.816433   1.000000
   20       -9.358481   1.000000
   21       -9.191895   1.000000
   22       -9.073465   1.000000
   23       -8.924749   1.000000
   24       -8.886745   1.000000
   25       -8.559863   1.000000
   26       -8.479725   1.000000
   27       -8.428297   1.000000
   28       -8.333948   1.000000
   29       -8.280426   1.000000
   30       -8.245613   1.000000
   31       -8.175300   1.000000
   32       -8.022352   1.000000
   33       -7.926690   1.000000
   34       -7.857254   1.000000
   35       -7.781285   1.000000
   36       -7.732120   1.000000
   37       -7.531168   1.000000
   38       -7.430403   1.000000
   39       -7.308170   1.000000
   40       -7.217254   1.000000
   41       -7.151541   1.000000
   42       -7.100241   1.000000
   43       -7.035388   1.000000
   44       -6.935817   1.000000
   45       -6.822727   1.000000
   46       -6.719306   1.000000
   47       -6.649983   1.000000
   48       -6.608758   1.000000
   49       -6.534226   1.000000
   50       -6.470334   1.000000
   51       -6.420502   1.000000
   52       -6.356937   1.000000
   53       -6.321340   1.000000
   54       -6.219610   1.000000
   55       -6.144165   1.000000
   56       -6.084926   1.000000
   57       -6.015835   1.000000
   58       -5.891129   1.000000
   59       -5.820449   1.000000
   60       -5.782731   1.000000
   61       -5.752153   1.000000
   62       -5.692369   1.000000
   63       -5.541205   1.000000
   64       -5.445072   1.000000
   65       -5.276238   1.000000
   66       -5.185340   1.000000
   67       -4.902450   1.000000
   68       -4.882615   1.000000
   69       -4.783043   1.000000
   70       -4.654270   1.000000
   71       -4.553885   1.000000
   72       -4.463343   1.000000
   73       -4.313437   1.000000
   74       -4.179104   1.000000
   75       -4.114533   1.000000
   76       -4.032569   1.000000
   77       -3.968097   1.000000
   78       -3.889236   0.999994
   79       -3.541102   0.973476
   80       -3.069584   0.080816
   81       -3.051393   0.063228
   82       -2.651731   0.000007
   83       -2.635436   0.000004
   84       -2.521513   0.000000
   85       -2.380319   0.000000
   86       -2.213691   0.000000
   87       -2.013652   0.000000
   88       -1.933641   0.000000
   89       -1.853048   0.000000
   90       -1.800938   0.000000
   91       -1.660444   0.000000
   92       -1.608919   0.000000
   93       -1.530087   0.000000
   94       -1.394952   0.000000
   95       -1.301636   0.000000
   96       -1.264282   0.000000
   97       -1.137184   0.000000
   98       -1.063234   0.000000
   99       -1.040877   0.000000
  100       -0.979839   0.000000
  101       -0.915561   0.000000
  102       -0.806413   0.000000
  103       -0.784071   0.000000
  104       -0.597482   0.000000
  105       -0.391222   0.000000
  106       -0.299485   0.000000
  107       -0.091507   0.000000
  108        0.052740   0.000000
  109        0.113681   0.000000
  110        0.366052   0.000000
  111        0.507076   0.000000
  112        0.664847   0.000000
  113        0.731449   0.000000
  114        0.913857   0.000000
  115        1.038774   0.000000
  116        1.090523   0.000000
  117        1.217446   0.000000
  118        2.174782   0.000000
  119        2.279984   0.000000
  120        2.385409   0.000000
 
  0.0000000E+00  0.1250000E+00  0.0000000E+00  0.3125000E-01
    1      -17.799594   1.000000
    2      -16.797446   1.000000
    3      -16.779217   1.000000
    4      -16.585143   1.000000
    5      -16.539282   1.000000
    6      -16.393255   1.000000
    7      -16.354664   1.000000
    8      -16.339395   1.000000
    9      -16.208909   1.000000
   10      -16.095669   1.000000
   11      -16.031475   1.000000
   12      -15.951806   1.000000
   13      -15.844313   1.000000
   14      -15.655447   1.000000
   15      -15.632492   1.000000
   16      -15.531093   1.000000
   17      -15.348857   1.000000
   18      -15.251934   1.000000
   19       -9.216785   1.000000
   20       -9.156618   1.000000
   21       -9.033777   1.000000
   22       -9.012370   1.000000
   23       -8.782486   1.000000
   24       -8.733530   1.000000
   25       -8.646438   1.000000
   26       -8.561022   1.000000
   27       -8.542961   1.000000
   28       -8.459410   1.000000
   29       -8.368662   1.000000
   30       -8.316288   1.000000
   31       -8.259138   1.000000
   32       -8.089622   1.000000
   33       -8.059470   1.000000
   34       -7.967510   1.000000
   35       -7.863427   1.000000
   36       -7.732616   1.000000
   37       -7.672243   1.000000
   38       -7.592012   1.000000
   39       -7.387069   1.000000
   40       -7.354937   1.000000
   41       -7.326567   1.000000
   42       -7.216889   1.000000
   43       -7.148816   1.000000
   44       -6.983573   1.000000
   45       -6.927723   1.000000
   46       -6.858954   1.000000
   47       -6.782749   1.000000
   48       -6.689450   1.000000
   49       -6.644886   1.000000
   50       -6.566762   1.000000
   51       -6.434663   1.000000
   52       -6.322467   1.000000
   53       -6.233379   1.000000
   54       -6.145967   1.000000
   55       -6.090143   1.000000
   56       -6.053889   1.000000
   57       -5.949177   1.000000
   58       -5.828726   1.000000
   59       -5.715828   1.000000
   60       -5.622988   1.000000
   61       -5.565958   1.000000
   62       -5.442987   1.000000
   63       -5.377375   1.000000
   64       -5.148289   1.000000
   65       -5.122001   1.000000
   66       -5.044926   1.000000
   67       -4.949275   1.000000
   68       -4.898051   1.000000
   69       -4.770076   1.000000
   70       -4.678595   1.000000
   71       -4.570365   1.000000
   72       -4.486771   1.000000
   73       -4.385101   1.000000
   74       -4.264790   1.000000
   75       -4.170076   1.000000
   76       -3.992534   1.000000
   77       -3.840840   0.999975
   78       -3.677286   0.998119
   79       -3.500643   0.950369
   80       -3.399043   0.823821
   81       -3.022005   0.041279
   82       -2.800737   0.000482
   83       -2.717066   0.000050
   84       -2.627991   0.000003
   85       -2.462390   0.000000
   86       -2.375541   0.000000
   87       -2.185856   0.000000
   88       -2.157288   0.000000
   89       -2.058330   0.000000
   90       -1.889658   0.000000
   91       -1.750454   0.000000
   92       -1.636296   0.000000
   93       -1.386450   0.000000
   94       -1.234373   0.000000
   95       -1.160979   0.000000
   96       -1.076439   0.000000
   97       -1.017488   0.000000
   98       -0.952850   0.000000
   99       -0.815753   0.000000
  100       -0.727043   0.000000
  101       -0.655817   0.000000
  102       -0.605956   0.000000
  103       -0.516956   0.000000
  104       -0.432039   0.000000
  105       -0.351771   0.000000
  106       -0.228783   0.000000
  107       -0.109173   0.000000
  108        0.064498   0.000000
  109        0.082072   0.000000
  110        0.239314   0.000000
  111        0.361660   0.000000
  112        0.465804   0.000000
  113        0.610725   0.000000
  114        0.921029   0.000000
  115        1.116234   0.000000
  116        1.237563   0.000000
  117        1.366557   0.000000
  118        1.692676   0.000000
  119        1.878002   0.000000
  120        2.202220   0.000000
 
  0.1250000E+00  0.1250000E+00  0.0000000E+00  0.3125000E-01
    1      -17.750002   1.000000
    2      -16.910131   1.000000
    3      -16.835005   1.000000
    4      -16.673186   1.000000
    5      -16.488827   1.000000
    6      -16.387031   1.000000
    7      -16.351738   1.000000
    8      -16.292889   1.000000
    9      -16.182372   1.000000
   10      -16.077438   1.000000
   11      -15.958134   1.000000
   12      -15.908616   1.000000
   13      -15.830572   1.000000
   14      -15.675976   1.000000
   15      -15.631284   1.000000
   16      -15.555430   1.000000
   17      -15.356862   1.000000
   18      -15.254465   1.000000
   19       -9.407376   1.000000
   20       -9.265504   1.000000
   21       -9.117932   1.000000
   22       -9.061826   1.000000
   23       -8.809426   1.000000
   24       -8.738405   1.000000
   25       -8.672262   1.000000
   26       -8.548914   1.000000
   27       -8.504636   1.000000
   28       -8.400862   1.000000
   29       -8.307183   1.000000
   30       -8.238612   1.000000
   31       -8.171514   1.000000
   32       -8.057962   1.000000
   33       -7.967452   1.000000
   34       -7.912372   1.000000
   35       -7.793297   1.000000
   36       -7.739063   1.000000
   37       -7.632236   1.000000
   38       -7.546928   1.000000
   39       -7.454952   1.000000
   40       -7.363311   1.000000
   41       -7.282133   1.000000
   42       -7.177594   1.000000
   43       -7.127342   1.000000
   44       -7.053925   1.000000
   45       -6.970997   1.000000
   46       -6.853221   1.000000
   47       -6.763169   1.000000
   48       -6.633430   1.000000
   49       -6.579341   1.000000
   50       -6.458628   1.000000
   51       -6.396160   1.000000
   52       -6.322598   1.000000
   53       -6.258897   1.000000
   54       -6.186808   1.000000
   55       -6.137766   1.000000
   56       -6.080640   1.000000
   57       -5.953368   1.000000
   58       -5.865370   1.000000
   59       -5.719091   1.000000
   60       -5.643176   1.000000
   61       -5.579779   1.000000
   62       -5.514457   1.000000
   63       -5.466586   1.000000
   64       -5.261291   1.000000
   65       -5.161879   1.000000
   66       -5.103232   1.000000
   67       -4.949836   1.000000
   68       -4.880162   1.000000
   69       -4.704423   1.000000
   70       -4.607638   1.000000
   71       -4.536521   1.000000
   72       -4.463737   1.000000
   73       -4.364720   1.000000
   74       -4.248830   1.000000
   75       -4.115219   1.000000
   76       -4.089047   1.000000
   77       -3.947346   0.999999
   78       -3.755938   0.999723
   79       -3.514927   0.959893
   80       -3.321958   0.649865
   81       -2.985193   0.022949
   82       -2.736150   0.000086
   83       -2.693889   0.000025
   84       -2.616497   0.000002
   85       -2.436249   0.000000
   86       -2.346603   0.000000
   87       -2.137427   0.000000
   88       -2.094676   0.000000
   89       -2.000118   0.000000
   90       -1.905054   0.000000
   91       -1.742250   0.000000
   92       -1.612017   0.000000
   93       -1.402507   0.000000
   94       -1.239137   0.000000
   95       -1.188684   0.000000
   96       -1.106711   0.000000
   97       -1.028816   0.000000
   98       -0.971950   0.000000
   99       -0.880786   0.000000
  100       -0.798113   0.000000
  101       -0.763723   0.000000
  102       -0.699653   0.000000
  103       -0.639558   0.000000
  104       -0.535525   0.000000
  105       -0.398481   0.000000
  106       -0.190984   0.000000
  107       -0.096984   0.000000
  108        0.052441   0.000000
  109        0.148926   0.000000
  110        0.280177   0.000000
  111        0.378789   0.000000
  112        0.519583   0.000000
  113        0.724871   0.000000
  114        0.943505   0.000000
  115        1.051465   0.000000
  116        1.193405   0.000000
  117        1.275607   0.000000
  118        1.775776   0.000000
  119        1.955820   0.000000
  120        2.271771   0.000000
 
  0.2500000E+00  0.1250000E+00  0.0000000E+00  0.3125000E-01
    1      -17.654020   1.000000
    2      -17.105031   1.000000
    3      -16.897430   1.000000
    4      -16.693072   1.000000
    5      -16.486199   1.000000
    6      -16.387379   1.000000
    7      -16.319343   1.000000
    8      -16.251076   1.000000
    9      -16.142951   1.000000
   10      -16.050922   1.000000
   11      -15.917713   1.000000
   12      -15.859342   1.000000
   13      -15.779070   1.000000
   14      -15.716581   1.000000
   15      -15.626866   1.000000
   16      -15.574964   1.000000
   17      -15.371651   1.000000
   18      -15.257403   1.000000
   19       -9.645353   1.000000
   20       -9.402681   1.000000
   21       -9.185011   1.000000
   22       -9.035334   1.000000
   23       -8.893644   1.000000
   24       -8.725770   1.000000
   25       -8.605593   1.000000
   26       -8.503779   1.000000
   27       -8.422526   1.000000
   28       -8.403233   1.000000
   29       -8.278269   1.000000
   30       -8.238097   1.000000
   31       -8.189482   1.000000
   32       -8.042028   1.000000
   33       -7.929687   1.000000
   34       -7.847938   1.000000
   35       -7.761750   1.000000
   36       -7.675184   1.000000
   37       -7.587859   1.000000
   38       -7.545786   1.000000
   39       -7.413656   1.000000
   40       -7.342404   1.000000
   41       -7.216283   1.000000
   42       -7.132529   1.000000
   43       -7.074014   1.000000
   44       -7.004078   1.000000
   45       -6.876480   1.000000
   46       -6.828131   1.000000
   47       -6.738627   1.000000