       N       E                     dE             d eps       ncg     rms          rms(c)
DAV:   1     0.112617544917E+04    0.11262E+04   -0.35979E+04  8160   0.577E+02
DAV:   2     0.852061050242E+00   -0.11253E+04   -0.10823E+04 10960   0.173E+02
DAV:   3    -0.199501580469E+03   -0.20035E+03   -0.19167E+03 10920   0.823E+01
DAV:   4    -0.208940668044E+03   -0.94391E+01   -0.91381E+01 11880   0.263E+01
DAV:   5    -0.209306730190E+03   -0.36606E+00   -0.36503E+00 11680   0.389E+00    0.275E+01
DAV:   6    -0.236786878725E+03   -0.27480E+02   -0.11014E+02 12560   0.603E+01    0.595E+01
DAV:   7    -0.196502167301E+03    0.40285E+02   -0.17787E+02 13440   0.152E+02    0.200E+01
DAV:   8    -0.189483122997E+03    0.70190E+01   -0.17620E+01 12000   0.128E+01    0.127E+01
DAV:   9    -0.188168673666E+03    0.13144E+01   -0.31307E+00 12520   0.631E+00    0.914E+00
DAV:  10    -0.187033526782E+03    0.11351E+01   -0.21296E+00 13560   0.740E+00    0.303E+00
DAV:  11    -0.186942223924E+03    0.91303E-01   -0.59101E-01 12320   0.231E+00    0.231E+00
DAV:  12    -0.187048458522E+03   -0.10623E+00   -0.66246E-01 12560   0.411E+00    0.450E+00
DAV:  13    -0.186881371623E+03    0.16709E+00   -0.44669E-01 12680   0.390E+00    0.208E+00
DAV:  14    -0.186845733134E+03    0.35638E-01   -0.10692E-01 13160   0.179E+00    0.125E+00
DAV:  15    -0.186839822114E+03    0.59110E-02   -0.61872E-02 12120   0.147E+00    0.108E+00
DAV:  16    -0.186829574826E+03    0.10247E-01   -0.18775E-02 12560   0.680E-01    0.465E-01
DAV:  17    -0.186827458218E+03    0.21166E-02   -0.90248E-03 12720   0.465E-01    0.244E-01
DAV:  18    -0.186827112298E+03    0.34592E-03   -0.20919E-03 11880   0.139E-01    0.175E-01
DAV:  19    -0.186826760819E+03    0.35148E-03   -0.94760E-04 10200   0.126E-01    0.515E-02
DAV:  20    -0.186827351710E+03   -0.59089E-03   -0.61448E-04  9440   0.576E-02    0.547E-02
DAV:  21    -0.186828009788E+03   -0.65808E-03   -0.40130E-04  9120   0.569E-02    0.437E-02
DAV:  22    -0.186829192763E+03   -0.11830E-02   -0.22975E-04  7600   0.597E-02    0.412E-02
DAV:  23    -0.186830456093E+03   -0.12633E-02   -0.15350E-04  7520   0.466E-02    0.116E-02
DAV:  24    -0.186831053341E+03   -0.59725E-03   -0.31779E-05  6680   0.141E-02    0.911E-03
DAV:  25    -0.186831438958E+03   -0.38562E-03   -0.17726E-05  5640   0.136E-02    0.561E-03
DAV:  26    -0.186831656239E+03   -0.21728E-03   -0.85388E-06  6840   0.747E-03    0.209E-03
DAV:  27    -0.186831763645E+03   -0.10741E-03   -0.39648E-06  6920   0.443E-03    0.128E-03
DAV:  28    -0.186831808889E+03   -0.45245E-04   -0.21149E-06  7280   0.349E-03
   1 F= -.18683181E+03 E0= -.18665906E+03  d E =-.186832E+03
       N       E                     dE             d eps       ncg     rms          rms(c)
DAV:   1    -0.187464454430E+03   -0.63269E+00   -0.27311E+02  8160   0.351E+01    0.463E+00
DAV:   2    -0.189363190515E+03   -0.18987E+01   -0.20262E+01 12200   0.153E+01    0.868E+00
DAV:   3    -0.189343551218E+03    0.19639E-01   -0.40259E+00 12480   0.120E+01    0.670E+00
DAV:   4    -0.188739898456E+03    0.60365E+00   -0.64033E-01 12680   0.469E+00    0.185E+00
DAV:   5    -0.188745239796E+03   -0.53413E-02   -0.29604E-01 11080   0.148E+00    0.228E+00
DAV:   6    -0.188671347831E+03    0.73892E-01   -0.28714E-01 11240   0.160E+00    0.135E+00
DAV:   7    -0.188687162368E+03   -0.15815E-01   -0.14739E-01 12000   0.218E+00    0.229E+00
DAV:   8    -0.188647928356E+03    0.39234E-01   -0.78780E-02 13120   0.170E+00    0.559E-01
DAV:   9    -0.188644685205E+03    0.32432E-02   -0.95411E-03 11160   0.469E-01    0.398E-01
DAV:  10    -0.188644463746E+03    0.22146E-03   -0.56146E-03 13600   0.423E-01    0.351E-01
DAV:  11    -0.188643478759E+03    0.98499E-03   -0.32753E-03 12960   0.275E-01    0.130E-01
DAV:  12    -0.188643521301E+03   -0.42541E-04   -0.10046E-03 12240   0.938E-02    0.107E-01
DAV:  13    -0.188643431874E+03    0.89427E-04   -0.32235E-04  7640   0.621E-02
   2 F= -.18864343E+03 E0= -.18850107E+03  d E =-.181162E+01
       N       E                     dE             d eps       ncg     rms          rms(c)
DAV:   1    -0.190563479417E+03   -0.19200E+01   -0.31202E+01  9240   0.142E+01    0.445E+00
DAV:   2    -0.190550884359E+03    0.12595E-01   -0.28456E+00 11400   0.969E+00    0.744E+00
DAV:   3    -0.190037778450E+03    0.51311E+00   -0.13547E+00 12360   0.865E+00    0.413E+00
DAV:   4    -0.189832406564E+03    0.20537E+00   -0.70743E-01 12760   0.407E+00    0.246E+00
DAV:   5    -0.189745008716E+03    0.87398E-01   -0.29144E-01 11640   0.187E+00    0.826E-01
DAV:   6    -0.189729858867E+03    0.15150E-01   -0.39478E-02 10600   0.674E-01    0.241E-01
DAV:   7    -0.189731492264E+03   -0.16334E-02   -0.82107E-03 12360   0.444E-01    0.428E-01
DAV:   8    -0.189730248424E+03    0.12438E-02   -0.33112E-03 12280   0.367E-01    0.173E-01
DAV:   9    -0.189730267536E+03   -0.19113E-04   -0.10088E-03 10080   0.138E-01    0.124E-01
DAV:  10    -0.189730304915E+03   -0.37379E-04   -0.60728E-04 10640   0.121E-01
   3 F= -.18973030E+03 E0= -.18960976E+03  d E =-.108687E+01
       N       E                     dE             d eps       ncg     rms          rms(c)
DAV:   1    -0.191293252432E+03   -0.15630E+01   -0.75083E+01  8160   0.198E+01    0.464E+00
DAV:   2    -0.191193289349E+03    0.99963E-01   -0.55285E+00 13120   0.847E+00    0.532E+00
DAV:   3    -0.191198442920E+03   -0.51536E-02   -0.16491E+00 12160   0.926E+00    0.629E+00
DAV:   4    -0.190864416406E+03    0.33403E+00   -0.13455E+00 12760   0.724E+00    0.322E+00
DAV:   5    -0.190851049059E+03    0.13367E-01   -0.56101E-01 11920   0.487E+00    0.335E+00
DAV:   6    -0.190712463481E+03    0.13859E+00   -0.21891E-01 12240   0.330E+00    0.928E-01
DAV:   7    -0.190703812672E+03    0.86508E-02   -0.41552E-02 12480   0.945E-01    0.427E-01
DAV:   8    -0.190701048564E+03    0.27641E-02   -0.70411E-03 10200   0.363E-01    0.214E-01
DAV:   9    -0.190701212872E+03   -0.16431E-03   -0.20660E-03 11480   0.313E-01    0.241E-01
DAV:  10    -0.190701133105E+03    0.79767E-04   -0.15370E-03 10760   0.251E-01    0.133E-01
DAV:  11    -0.190700958858E+03    0.17425E-03   -0.83820E-04 10320   0.119E-01    0.518E-02
DAV:  12    -0.190700944081E+03    0.14777E-04   -0.14986E-04  7960   0.454E-02
   4 F= -.19070094E+03 E0= -.19059650E+03  d E =-.970639E+00
       N       E                     dE             d eps       ncg     rms          rms(c)
DAV:   1    -0.192017921129E+03   -0.13170E+01   -0.15536E+02  8160   0.278E+01    0.564E+00
DAV:   2    -0.191878844810E+03    0.13908E+00   -0.94459E+00 12280   0.928E+00    0.500E+00
DAV:   3    -0.192203065269E+03   -0.32422E+00   -0.24289E+00 11400   0.109E+01    0.932E+00
DAV:   4    -0.191576433718E+03    0.62663E+00   -0.27977E+00 12080   0.113E+01    0.399E+00
DAV:   5    -0.191509923698E+03    0.66510E-01   -0.80097E-01 12240   0.580E+00    0.366E+00
DAV:   6    -0.191333067214E+03    0.17686E+00   -0.28889E-01 12240   0.392E+00    0.958E-01
DAV:   7    -0.191326524684E+03    0.65425E-02   -0.55869E-02 12240   0.118E+00    0.590E-01
DAV:   8    -0.191324873160E+03    0.16515E-02   -0.20035E-02 11920   0.874E-01    0.652E-01
DAV:   9    -0.191320886900E+03    0.39863E-02   -0.69614E-03 11840   0.598E-01    0.176E-01
DAV:  10    -0.191321323472E+03   -0.43657E-03   -0.20440E-03 10960   0.172E-01    0.125E-01
DAV:  11    -0.191321087921E+03    0.23555E-03   -0.79957E-04 11280   0.106E-01    0.480E-02
DAV:  12    -0.191321090019E+03   -0.20976E-05   -0.11773E-04  6520   0.403E-02
   5 F= -.19132109E+03 E0= -.19122051E+03  d E =-.620146E+00
       N       E                     dE             d eps       ncg     rms          rms(c)
DAV:   1    -0.191362326135E+03   -0.41238E-01   -0.38015E+00  8160   0.410E+00    0.514E-01
DAV:   2    -0.191403634910E+03   -0.41309E-01   -0.20422E-01 12640   0.230E+00    0.181E+00
DAV:   3    -0.191374111354E+03    0.29524E-01   -0.70871E-02 12120   0.181E+00    0.454E-01
DAV:   4    -0.191373996814E+03    0.11454E-03   -0.94786E-03 11040   0.667E-01    0.454E-01
DAV:   5    -0.191371913824E+03    0.20830E-02   -0.51030E-03 10320   0.517E-01    0.193E-01
DAV:   6    -0.191371798180E+03    0.11564E-03   -0.16129E-03 10280   0.221E-01    0.162E-01
DAV:   7    -0.191372156221E+03   -0.35804E-03   -0.21313E-03 10640   0.330E-01    0.248E-01
DAV:   8    -0.191371511331E+03    0.64489E-03   -0.10489E-03  9080   0.223E-01    0.331E-02
DAV:   9    -0.191371525598E+03   -0.14267E-04   -0.89573E-05  5880   0.369E-02
   6 F= -.19137153E+03 E0= -.19126919E+03  d E =-.504356E-01
       N       E                     dE             d eps       ncg     rms          rms(c)
DAV:   1    -0.191415691523E+03   -0.44180E-01   -0.47037E+00  8160   0.455E+00    0.513E-01
DAV:   2    -0.191446784702E+03   -0.31093E-01   -0.15705E-01 12920   0.180E+00    0.164E+00
DAV:   3    -0.191423761442E+03    0.23023E-01   -0.64877E-02 12200   0.172E+00    0.522E-01
DAV:   4    -0.191422328305E+03    0.14331E-02   -0.92620E-03 11080   0.591E-01    0.400E-01
DAV:   5    -0.191421054057E+03    0.12742E-02   -0.53134E-03 10840   0.522E-01    0.254E-01
DAV:   6    -0.191420664042E+03    0.39002E-03   -0.24634E-03 10080   0.305E-01    0.189E-01
DAV:   7    -0.191420913877E+03   -0.24984E-03   -0.23895E-03 10960   0.346E-01    0.240E-01
DAV:   8    -0.191420320649E+03    0.59323E-03   -0.11039E-03  9120   0.229E-01    0.438E-02
DAV:   9    -0.191420312196E+03    0.84527E-05   -0.10000E-04  5640   0.436E-02
   7 F= -.19142031E+03 E0= -.19131667E+03  d E =-.487866E-01
       N       E                     dE             d eps       ncg     rms          rms(c)
DAV:   1    -0.191432504861E+03   -0.12184E-01   -0.26522E-01  8160   0.110E+00    0.152E-01
DAV:   2    -0.191434406281E+03   -0.19014E-02   -0.10980E-02 12120   0.521E-01    0.421E-01
DAV:   3    -0.191432761677E+03    0.16446E-02   -0.40218E-03 11520   0.447E-01    0.133E-01
DAV:   4    -0.191432823082E+03   -0.61405E-04   -0.89409E-04  8520   0.212E-01
   8 F= -.19143282E+03 E0= -.19132895E+03  d E =-.125109E-01
       N       E                     dE             d eps       ncg     rms          rms(c)
DAV:   1    -0.191401504084E+03    0.31258E-01   -0.20352E+00  8160   0.302E+00    0.348E-01
DAV:   2    -0.191410492345E+03   -0.89883E-02   -0.72617E-02 12240   0.116E+00    0.747E-01
DAV:   3    -0.191404668312E+03    0.58240E-02   -0.16305E-02 12280   0.908E-01    0.282E-01
DAV:   4    -0.191404760417E+03   -0.92105E-04   -0.46332E-03 11200   0.422E-01    0.335E-01
DAV:   5    -0.191403877511E+03    0.88291E-03   -0.35518E-03 11000   0.404E-01    0.194E-01
DAV:   6    -0.191403571841E+03    0.30567E-03   -0.13575E-03  9920   0.205E-01    0.886E-02
DAV:   7    -0.191403578137E+03   -0.62953E-05   -0.55003E-04  9800   0.135E-01
   9 F= -.19140358E+03 E0= -.19130025E+03  d E =0.292449E-01
       N       E                     dE             d eps       ncg     rms          rms(c)
DAV:   1    -0.191423262902E+03   -0.19691E-01   -0.13710E+00  8160   0.247E+00    0.283E-01
DAV:   2    -0.191430882172E+03   -0.76193E-02   -0.45617E-02 12320   0.881E-01    0.794E-01
DAV:   3    -0.191425619783E+03    0.52624E-02   -0.18070E-02 11960   0.892E-01    0.334E-01
DAV:   4    -0.191424758440E+03    0.86134E-03   -0.29512E-03 11040   0.325E-01    0.200E-01
DAV:   5    -0.191424501652E+03    0.25679E-03   -0.15595E-03 10080   0.286E-01    0.149E-01
DAV:   6    -0.191424326548E+03    0.17510E-03   -0.85203E-04 10400   0.173E-01    0.924E-02
DAV:   7    -0.191424435429E+03   -0.10888E-03   -0.68570E-04  9080   0.184E-01    0.142E-01
DAV:   8    -0.191424234742E+03    0.20069E-03   -0.37386E-04  7840   0.141E-01    0.238E-02
DAV:   9    -0.191424240862E+03   -0.61201E-05   -0.33758E-05  5520   0.265E-02
  10 F= -.19142424E+03 E0= -.19132041E+03  d E =-.206627E-01
       N       E                     dE             d eps       ncg     rms          rms(c)
DAV:   1    -0.191448337779E+03   -0.24103E-01   -0.10927E+00  8160   0.224E+00    0.301E-01
DAV:   2    -0.191451108431E+03   -0.27707E-02   -0.34916E-02 13480   0.768E-01    0.513E-01
DAV:   3    -0.191449153189E+03    0.19552E-02   -0.10081E-02 12080   0.718E-01    0.318E-01
DAV:   4    -0.191448708816E+03    0.44437E-03   -0.39972E-03 11360   0.425E-01    0.285E-01
DAV:   5    -0.191448221778E+03    0.48704E-03   -0.29854E-03 10000   0.394E-01    0.221E-01
DAV:   6    -0.191447734452E+03    0.48733E-03   -0.12441E-03  9800   0.220E-01    0.696E-02
DAV:   7    -0.191447728442E+03    0.60101E-05   -0.38825E-04  7440   0.108E-01
  11 F= -.19144773E+03 E0= -.19134361E+03  d E =-.234876E-01
       N       E                     dE             d eps       ncg     rms          rms(c)
DAV:   1    -0.191406405811E+03    0.41329E-01   -0.30052E+00  8160   0.365E+00    0.395E-01
DAV:   2    -0.191420577264E+03   -0.14171E-01   -0.87578E-02 12520   0.130E+00    0.103E+00
DAV:   3    -0.191410643238E+03    0.99340E-02   -0.24944E-02 12160   0.114E+00    0.387E-01
DAV:   4    -0.191410053698E+03    0.58954E-03   -0.50231E-03 11000   0.472E-01    0.309E-01
DAV:   5    -0.191409246110E+03    0.80759E-03   -0.34558E-03 10800   0.431E-01    0.202E-01
DAV:   6    -0.191408917415E+03    0.32870E-03   -0.14826E-03 11440   0.224E-01    0.891E-02
DAV:   7    -0.191408800801E+03    0.11661E-03   -0.43305E-04  8880   0.851E-02    0.382E-02
DAV:   8    -0.191408791428E+03    0.93732E-05   -0.10132E-04  7600   0.622E-02
  12 F= -.19140879E+03 E0= -.19130500E+03  d E =0.389370E-01
       N       E                     dE             d eps       ncg     rms          rms(c)
DAV:   1    -0.191346482181E+03    0.62319E-01   -0.13622E+01  8160   0.774E+00    0.808E-01
DAV:   2    -0.191407309635E+03   -0.60827E-01   -0.34791E-01 12760   0.261E+00    0.228E+00
DAV:   3    -0.191365269787E+03    0.42040E-01   -0.12294E-01 12000   0.249E+00    0.820E-01
DAV:   4    -0.191359788641E+03    0.54811E-02   -0.17624E-02 11440   0.747E-01    0.416E-01
DAV:   5    -0.191358095384E+03    0.16933E-02   -0.89710E-03 11400   0.600E-01    0.412E-01
DAV:   6    -0.191357702622E+03    0.39276E-03   -0.77134E-03 11920   0.629E-01    0.332E-01
DAV:   7    -0.191357169563E+03    0.53306E-03   -0.38795E-03 11680   0.404E-01    0.274E-01
DAV:   8    -0.191356437737E+03    0.73183E-03   -0.16012E-03  9880   0.279E-01    0.730E-02
DAV:   9    -0.191356396077E+03    0.41660E-04   -0.16118E-04  6040   0.700E-02
  13 F= -.19135640E+03 E0= -.19125384E+03  d E =0.523954E-01
       N       E                     dE             d eps       ncg     rms          rms(c)
DAV:   1    -0.191360064336E+03   -0.36266E-02   -0.17734E+00  8160   0.280E+00    0.314E-01
DAV:   2    -0.191369453730E+03   -0.93894E-02   -0.50403E-02 13600   0.978E-01    0.862E-01
DAV:   3    -0.191362256361E+03    0.71974E-02   -0.20130E-02 12240   0.994E-01    0.310E-01
DAV:   4    -0.191362161842E+03    0.94519E-04   -0.35379E-03 10600   0.391E-01    0.292E-01
DAV:   5    -0.191361320648E+03    0.84119E-03   -0.18807E-03  9920   0.328E-01    0.124E-01
DAV:   6    -0.191361285249E+03    0.35400E-04   -0.76682E-04 10240   0.143E-01
  14 F= -.19136129E+03 E0= -.19125832E+03  d E =-.488917E-02
       N       E                     dE             d eps       ncg     rms          rms(c)
DAV:   1    -0.191377709480E+03   -0.16389E-01   -0.13687E+00  8160   0.251E+00    0.413E-01
DAV:   2    -0.191403328765E+03   -0.25619E-01   -0.84527E-02 12840   0.171E+00    0.168E+00
DAV:   3    -0.191378648327E+03    0.24680E-01   -0.50813E-02 11680   0.153E+00    0.306E-01
DAV:   4    -0.191378678311E+03   -0.29984E-04   -0.54858E-03 11480   0.475E-01    0.341E-01
DAV:   5    -0.191377719846E+03    0.95847E-03   -0.36589E-03 10920   0.428E-01    0.207E-01
DAV:   6    -0.191377461647E+03    0.25820E-03   -0.16046E-03  9640   0.263E-01    0.168E-01
DAV:   7    -0.191377308365E+03    0.15328E-03   -0.11090E-03  9680   0.233E-01    0.108E-01
DAV:   8    -0.191377173376E+03    0.13499E-03   -0.28438E-04  7120   0.104E-01    0.241E-02
DAV:   9    -0.191377164834E+03    0.85416E-05   -0.43129E-05  6560   0.276E-02
  15 F= -.19137716E+03 E0= -.19127281E+03  d E =-.158796E-01
       N       E                     dE             d eps       ncg     rms          rms(c)
DAV:   1    -0.191393462615E+03   -0.16289E-01   -0.12880E+00  8160   0.241E+00    0.298E-01
DAV:   2    -0.191403371040E+03   -0.99084E-02   -0.49499E-02 12800   0.110E+00    0.956E-01
DAV:   3    -0.191395376318E+03    0.79947E-02   -0.20579E-02 11600   0.959E-01    0.274E-01
DAV:   4    -0.191395431397E+03   -0.55078E-04   -0.36323E-03 11160   0.408E-01    0.290E-01
DAV:   5    -0.191394599440E+03    0.83196E-03   -0.21767E-03 10440   0.337E-01    0.124E-01
DAV:   6    -0.191394450962E+03    0.14848E-03   -0.67928E-04 10040   0.128E-01    0.598E-02
DAV:   7    -0.191394513693E+03   -0.62732E-04   -0.37192E-04  8520   0.126E-01
  16 F= -.19139451E+03 E0= -.19128921E+03  d E =-.173489E-01
       N       E                     dE             d eps       ncg     rms          rms(c)
DAV:   1    -0.191380007740E+03    0.14443E-01   -0.84099E-01  8160   0.196E+00    0.239E-01
DAV:   2    -0.191385232478E+03   -0.52247E-02   -0.30077E-02 12200   0.835E-01    0.668E-01
DAV:   3    -0.191380961490E+03    0.42710E-02   -0.10451E-02 12160   0.705E-01    0.209E-01
DAV:   4    -0.191380982333E+03   -0.20842E-04   -0.21512E-03  9920   0.316E-01    0.226E-01
DAV:   5    -0.191380507479E+03    0.47485E-03   -0.14795E-03 10040   0.280E-01    0.109E-01
DAV:   6    -0.191380376009E+03    0.13147E-03   -0.45907E-04  8280   0.109E-01    0.361E-02
DAV:   7    -0.191380366481E+03    0.95285E-05   -0.11833E-04  6640   0.486E-02
  17 F= -.19138037E+03 E0= -.19127567E+03  d E =0.141472E-01
       N       E                     dE             d eps       ncg     rms          rms(c)
DAV:   1    -0.191375487099E+03    0.48889E-02   -0.13247E-01  8160   0.773E-01    0.900E-02
DAV:   2    -0.191376381273E+03   -0.89417E-03   -0.43105E-03 13080   0.312E-01    0.285E-01
DAV:   3    -0.191375614790E+03    0.76648E-03   -0.16634E-03  9600   0.284E-01    0.696E-02
DAV:   4    -0.191375596779E+03    0.18011E-04   -0.13318E-04  5480   0.646E-02
  18 F= -.19137560E+03 E0= -.19127107E+03  d E =0.476970E-02
       N       E                     dE             d eps       ncg     rms          rms(c)
DAV:   1    -0.191378778132E+03   -0.31633E-02   -0.36020E-01  8160   0.127E+00    0.144E-01
DAV:   2    -0.191380825408E+03   -0.20473E-02   -0.13893E-02 13320   0.535E-01    0.357E-01
DAV:   3    -0.191379547081E+03    0.12783E-02   -0.37172E-03 11680   0.427E-01    0.133E-01
DAV:   4    -0.191379556419E+03   -0.93381E-05   -0.87902E-04  8600   0.187E-01
  19 F= -.19137956E+03 E0= -.19127439E+03  d E =-.395964E-02
       N       E                     dE             d eps       ncg     rms          rms(c)
DAV:   1    -0.191391898658E+03   -0.12352E-01   -0.87953E-01  8160   0.202E+00    0.265E-01
DAV:   2    -0.191397476654E+03   -0.55780E-02   -0.30987E-02 12680   0.819E-01    0.768E-01
DAV:   3    -0.191392641135E+03    0.48355E-02   -0.14373E-02 11640   0.793E-01    0.259E-01
DAV:   4    -0.191392057184E+03    0.58395E-03   -0.21521E-03 11360   0.263E-01    0.139E-01
DAV:   5    -0.191392073162E+03   -0.15978E-04   -0.14046E-03 10600   0.264E-01    0.180E-01
DAV:   6    -0.191391765560E+03    0.30760E-03   -0.94262E-04  9920   0.204E-01    0.744E-02
DAV:   7    -0.191391803689E+03   -0.38129E-04   -0.35301E-04  7520   0.131E-01
  20 F= -.19139180E+03 E0= -.19128599E+03  d E =-.122473E-01
       N       E                     dE             d eps       ncg     rms          rms(c)
DAV:   1    -0.191400601187E+03   -0.88356E-02   -0.45736E-01  8160   0.144E+00    0.179E-01
DAV:   2    -0.191404364485E+03   -0.37633E-02   -0.18374E-02 13280   0.667E-01    0.578E-01
DAV:   3    -0.191401376258E+03    0.29882E-02   -0.75363E-03 11320   0.583E-01    0.169E-01
DAV:   4    -0.191401361272E+03    0.14985E-04   -0.12433E-03  9600   0.229E-01    0.162E-01
DAV:   5    -0.191401117682E+03    0.24359E-03   -0.69692E-04  9280   0.193E-01    0.768E-02
DAV:   6    -0.191401067705E+03    0.49977E-04   -0.21239E-04  6200   0.850E-02
  21 F= -.19140107E+03 E0= -.19129476E+03  d E =-.926402E-02
       N       E                     dE             d eps       ncg     rms          rms(c)
DAV:   1    -0.191405563799E+03   -0.44461E-02   -0.14103E-01  8160   0.812E-01    0.141E-01
DAV:   2    -0.191408684169E+03   -0.31204E-02   -0.91491E-03 11920   0.621E-01    0.562E-01
DAV:   3    -0.191405454168E+03    0.32300E-02   -0.49291E-03 10520   0.513E-01    0.830E-02
DAV:   4    -0.191405523102E+03   -0.68934E-04   -0.44463E-04  8280   0.146E-01
  22 F= -.19140552E+03 E0= -.19129933E+03  d E =-.445540E-02
       N       E                     dE             d eps       ncg     rms          rms(c)
DAV:   1    -0.191414090549E+03   -0.86364E-02   -0.47573E-01  8160   0.148E+00    0.272E-01
DAV:   2    -0.191425859069E+03   -0.11769E-01   -0.37939E-02 12240   0.123E+00    0.108E+00
DAV:   3    -0.191414449180E+03    0.11410E-01   -0.20879E-02 11400   0.100E+00    0.216E-01
DAV:   4    -0.191414668808E+03   -0.21963E-03   -0.27986E-03 10360   0.363E-01    0.252E-01
DAV:   5    -0.191413986573E+03    0.68223E-03   -0.13375E-03 10000   0.240E-01    0.670E-02
DAV:   6    -0.191413971051E+03    0.15522E-04   -0.34215E-04  7080   0.876E-02
  23 F= -.19141397E+03 E0= -.19130725E+03  d E =-.844795E-02
       N       E                     dE             d eps       ncg     rms          rms(c)
DAV:   1    -0.191442546145E+03   -0.28560E-01   -0.33568E+00  8160   0.395E+00    0.540E-01
DAV:   2    -0.191469946194E+03   -0.27400E-01   -0.14147E-01 13080   0.188E+00    0.170E+00
DAV:   3    -0.191446089226E+03    0.23857E-01   -0.63301E-02 12040   0.166E+00    0.485E-01
DAV:   4    -0.191447429125E+03   -0.13399E-02   -0.13674E-02 11360   0.830E-01    0.620E-01
DAV:   5    -0.191443222295E+03    0.42068E-02   -0.88488E-03 10480   0.671E-01    0.201E-01
DAV:   6    -0.191443044355E+03    0.17794E-03   -0.26328E-03 11040   0.250E-01    0.177E-01
DAV:   7    -0.191443086003E+03   -0.41647E-04   -0.18164E-03 10360   0.309E-01    0.200E-01
DAV:   8    -0.191442657167E+03    0.42884E-03   -0.59869E-04  8360   0.173E-01    0.276E-02
DAV:   9    -0.191442662773E+03   -0.56057E-05   -0.60725E-05  6040   0.309E-02
  24 F= -.19144266E+03 E0= -.19133561E+03  d E =-.286917E-01
       N       E                     dE             d eps       ncg     rms          rms(c)
DAV:   1    -0.191441080599E+03    0.15766E-02   -0.28065E-01  8160   0.115E+00    0.209E-01
DAV:   2    -0.191445932728E+03   -0.48521E-02   -0.18882E-02 11560   0.853E-01    0.676E-01
DAV:   3    -0.191440963567E+03    0.49692E-02   -0.83667E-03 11440   0.669E-01    0.139E-01
DAV:   4    -0.191441324362E+03   -0.36079E-03   -0.18410E-03  9640   0.292E-01    0.246E-01
DAV:   5    -0.191440753795E+03    0.57057E-03   -0.13406E-03  9520   0.252E-01    0.841E-02
DAV:   6    -0.191440663323E+03    0.90472E-04   -0.28541E-04  6360   0.807E-02
  25 F= -.19144066E+03 E0= -.19133402E+03  d E =0.199945E-02
       N       E                     dE             d eps       ncg     rms          rms(c)
DAV:   1    -0.191465161248E+03   -0.24407E-01   -0.18985E+00  8160   0.292E+00    0.290E-01
DAV:   2    -0.191469235212E+03   -0.40740E-02   -0.43611E-02 11920   0.734E-01    0.487E-01
DAV:   3    -0.191468470181E+03    0.76503E-03   -0.10644E-02 12200   0.726E-01    0.428E-01
DAV:   4    -0.191466844579E+03    0.16256E-02   -0.31284E-03 10960   0.372E-01    0.146E-01
DAV:   5    -0.191466891572E+03   -0.46993E-04   -0.15536E-03 10080   0.262E-01    0.186E-01
DAV:   6    -0.191466704362E+03    0.18721E-03   -0.12754E-03 10080   0.253E-01    0.117E-01
DAV:   7    -0.191466636875E+03    0.67487E-04   -0.55118E-04  8360   0.160E-01
  26 F= -.19146664E+03 E0= -.19136077E+03  d E =-.259736E-01
       N       E                     dE             d eps       ncg     rms          rms(c)
DAV:   1    -0.191450784791E+03    0.15920E-01   -0.61410E-01  8160   0.169E+00    0.195E-01
DAV:   2    -0.191452091160E+03   -0.13064E-02   -0.17171E-02 12280   0.462E-01    0.315E-01
DAV:   3    -0.191451764568E+03    0.32659E-03   -0.45886E-03 11720   0.463E-01    0.276E-01
DAV:   4    -0.191451108521E+03    0.65605E-03   -0.17815E-03  9520   0.278E-01    0.128E-01
DAV:   5    -0.191451117001E+03   -0.84799E-05   -0.10158E-03  9640   0.227E-01    0.139E-01
DAV:   6    -0.191450913010E+03    0.20399E-03   -0.50974E-04  8640   0.150E-01    0.409E-02
DAV:   7    -0.191450923021E+03   -0.10011E-04   -0.12802E-04  6440   0.705E-02
  27 F= -.19145092E+03 E0= -.19134475E+03  d E =0.157139E-01
       N       E                     dE             d eps       ncg     rms          rms(c)
DAV:   1    -0.191492807066E+03   -0.41894E-01   -0.42601E+00  8160   0.444E+00    0.527E-01
DAV:   2    -0.191500793223E+03   -0.79862E-02   -0.11837E-01 12480   0.122E+00    0.797E-01
DAV:   3    -0.191499780230E+03    0.10130E-02   -0.31012E-02 11800   0.125E+00    0.738E-01
DAV:   4    -0.191495037754E+03    0.47425E-02   -0.12825E-02 11920   0.779E-01    0.398E-01
DAV:   5    -0.191494471550E+03    0.56620E-03   -0.81116E-03  9800   0.639E-01    0.373E-01
DAV:   6    -0.191493084602E+03    0.13869E-02   -0.39858E-03 11280   0.391E-01    0.116E-01
DAV:   7    -0.191492876033E+03    0.20857E-03   -0.77144E-04 10120   0.110E-01    0.494E-02
DAV:   8    -0.191492831374E+03    0.44659E-04   -0.13375E-04  7600   0.599E-02
  28 F= -.19149283E+03 E0= -.19138769E+03  d E =-.419084E-01
       N       E                     dE             d eps       ncg     rms          rms(c)
DAV:   1    -0.191499416510E+03   -0.65405E-02   -0.99902E-02  8160   0.683E-01    0.106E-01
DAV:   2    -0.191500426233E+03   -0.10097E-02   -0.47471E-03 12120   0.384E-01    0.320E-01
DAV:   3    -0.191499419772E+03    0.10065E-02   -0.21815E-03 10080   0.334E-01    0.874E-02
DAV:   4    -0.191499438540E+03   -0.18768E-04   -0.34681E-04  8240   0.129E-01
  29 F= -.19149944E+03 E0= -.19139460E+03  d E =-.660717E-02
       N       E                     dE             d eps       ncg     rms          rms(c)
DAV:   1    -0.191531108451E+03   -0.31689E-01   -0.22849E+00  8160   0.321E+00    0.327E-01
DAV:   2    -0.191534408970E+03   -0.33005E-02   -0.53169E-02 11760   0.703E-01    0.334E-01
DAV:   3    -0.191535892454E+03   -0.14835E-02   -0.11009E-02 12480   0.710E-01    0.566E-01
DAV:   4    -0.191533102457E+03    0.27900E-02   -0.59428E-03 11200   0.547E-01    0.173E-01
DAV:   5    -0.191532798586E+03    0.30387E-03   -0.15290E-03 10160   0.211E-01    0.134E-01
DAV:   6    -0.191533024015E+03   -0.22543E-03   -0.14597E-03 10720   0.275E-01    0.191E-01
DAV:   7    -0.191532668134E+03    0.35588E-03   -0.74872E-04  8480   0.197E-01    0.767E-02
DAV:   8    -0.191532620654E+03    0.47479E-04   -0.15815E-04  6240   0.919E-02
  30 F= -.19153262E+03 E0= -.19142970E+03  d E =-.331821E-01
       N       E                     dE             d eps       ncg     rms          rms(c)
DAV:   1    -0.191530517937E+03    0.21502E-02   -0.10516E-02  8160   0.224E-01    0.280E-02
DAV:   2    -0.191530581756E+03   -0.63820E-04   -0.37778E-04 11520   0.831E-02
  31 F= -.19153058E+03 E0= -.19142753E+03  d E =0.203890E-02
       N       E                     dE             d eps       ncg     rms          rms(c)
DAV:   1    -0.191560249553E+03   -0.29732E-01   -0.19385E+00  8160   0.296E+00    0.308E-01
DAV:   2    -0.191565242451E+03   -0.49929E-02   -0.52550E-02 11920   0.805E-01    0.520E-01
DAV:   3    -0.191564155652E+03    0.10868E-02   -0.12445E-02 12360   0.790E-01    0.436E-01
DAV:   4    -0.191562429429E+03    0.17262E-02   -0.41009E-03 11080   0.420E-01    0.156E-01
DAV:   5    -0.191562192741E+03    0.23669E-03   -0.15754E-03 10120   0.224E-01    0.146E-01
DAV:   6    -0.191562213673E+03   -0.20932E-04   -0.12444E-03 10520   0.250E-01    0.142E-01
DAV:   7    -0.191562021313E+03    0.19236E-03   -0.51655E-04  8400   0.156E-01    0.731E-02
DAV:   8    -0.191561979296E+03    0.42017E-04   -0.16774E-04  6160   0.959E-02
  32 F= -.19156198E+03 E0= -.19146061E+03  d E =-.313975E-01
       N       E                     dE             d eps       ncg     rms          rms(c)
DAV:   1    -0.191564879296E+03   -0.28580E-02   -0.16152E-02  8160   0.273E-01    0.332E-02
DAV:   2    -0.191564925971E+03   -0.46676E-04   -0.51272E-04 12040   0.791E-02
  33 F= -.19156493E+03 E0= -.19146376E+03  d E =-.294668E-02
       N       E                     dE             d eps       ncg     rms          rms(c)
DAV:   1    -0.191597520114E+03   -0.32641E-01   -0.21574E+00  8160   0.313E+00    0.349E-01
DAV:   2    -0.191604350450E+03   -0.68303E-02   -0.60242E-02 11840   0.941E-01    0.687E-01
DAV:   3    -0.191601173507E+03    0.31769E-02   -0.18034E-02 11920   0.939E-01    0.433E-01
DAV:   4    -0.191599376728E+03    0.17968E-02   -0.40331E-03 10960   0.386E-01    0.150E-01
DAV:   5    -0.191599095910E+03    0.28082E-03   -0.15296E-03 11240   0.202E-01    0.134E-01
DAV:   6    -0.191599219079E+03   -0.12317E-03   -0.13295E-03 10320   0.263E-01    0.162E-01
DAV:   7    -0.191598904660E+03    0.31442E-03   -0.60060E-04  8520   0.179E-01    0.357E-02
DAV:   8    -0.191598889809E+03    0.14851E-04   -0.72358E-05  6160   0.389E-02
  34 F= -.19159889E+03 E0= -.19149957E+03  d E =-.339638E-01
       N       E                     dE             d eps       ncg     rms          rms(c)
DAV:   1    -0.191663365520E+03   -0.64461E-01   -0.11816E+01  8160   0.733E+00    0.752E-01
DAV:   2    -0.191691164196E+03   -0.27799E-01   -0.31600E-01 11600   0.186E+00    0.112E+00
DAV:   3    -0.191688685263E+03    0.24789E-02   -0.75238E-02 11800   0.191E+00    0.111E+00
DAV:   4    -0.191676769097E+03    0.11916E-01   -0.27006E-02 12280   0.106E+00    0.332E-01
DAV:   5    -0.191674883548E+03    0.18855E-02   -0.73375E-03 10880   0.378E-01    0.250E-01
DAV:   6    -0.191676536471E+03   -0.16529E-02   -0.72034E-03 12600   0.588E-01    0.475E-01
DAV:   7    -0.191674396671E+03    0.21398E-02   -0.41913E-03 11600   0.492E-01    0.129E-01
DAV:   8    -0.191674173918E+03    0.22275E-03   -0.58802E-04  8840   0.148E-01    0.604E-02
DAV:   9    -0.191674161114E+03    0.12804E-04   -0.19526E-04  8680   0.100E-01
  35 F= -.19167416E+03 E0= -.19157951E+03  d E =-.752713E-01
       N       E                     dE             d eps       ncg     rms          rms(c)
DAV:   1    -0.191716399045E+03   -0.42225E-01   -0.57570E+00  8160   0.510E+00    0.553E-01
DAV:   2    -0.191740301521E+03   -0.23902E-01   -0.18795E-01 12240   0.169E+00    0.119E+00
DAV:   3    -0.191728537826E+03    0.11764E-01   -0.52565E-02 11920   0.160E+00    0.611E-01
DAV:   4    -0.191724868917E+03    0.36689E-02   -0.97674E-03 11600   0.590E-01    0.242E-01
DAV:   5    -0.191724321995E+03    0.54692E-03   -0.37020E-03 11520   0.356E-01    0.241E-01
DAV:   6    -0.191724460472E+03   -0.13848E-03   -0.33674E-03 11520   0.418E-01    0.255E-01
DAV:   7    -0.191723924864E+03    0.53561E-03   -0.19214E-03 10960   0.292E-01    0.134E-01
DAV:   8    -0.191723751421E+03    0.17344E-03   -0.53030E-04  8520   0.170E-01    0.630E-02
DAV:   9    -0.191723706070E+03    0.45351E-04   -0.10879E-04  6760   0.705E-02
  36 F= -.19172371E+03 E0= -.19163203E+03  d E =-.495450E-01
       N       E                     dE             d eps       ncg     rms          rms(c)
DAV:   1    -0.191735203865E+03   -0.11452E-01   -0.31712E-01  8160   0.121E+00    0.144E-01
DAV:   2    -0.191736640121E+03   -0.14363E-02   -0.11111E-02 12680   0.433E-01    0.315E-01
DAV:   3    -0.191735771293E+03    0.86883E-03   -0.34569E-03 12360   0.413E-01    0.148E-01
DAV:   4    -0.191735568266E+03    0.20303E-03   -0.67889E-04  8560   0.155E-01    0.695E-02
DAV:   5    -0.191735545441E+03    0.22825E-04   -0.34887E-04  8160   0.119E-01
  37 F= -.19173555E+03 E0= -.19164434E+03  d E =-.118394E-01
       N       E                     dE             d eps       ncg     rms          rms(c)
DAV:   1    -0.191693539043E+03    0.42029E-01   -0.42986E+00  8160   0.445E+00    0.555E-01
DAV:   2    -0.191717957297E+03   -0.24418E-01   -0.15050E-01 13600   0.166E+00    0.140E+00
DAV:   3    -0.191699532149E+03    0.18425E-01   -0.62003E-02 11400   0.169E+00    0.522E-01
DAV:   4    -0.191697106314E+03    0.24258E-02   -0.89850E-03 11320   0.519E-01    0.278E-01
DAV:   5    -0.191696817122E+03    0.28919E-03   -0.50445E-03 11920   0.472E-01    0.337E-01
DAV:   6    -0.191696193085E+03    0.62404E-03   -0.36576E-03 11520   0.456E-01    0.205E-01
DAV:   7    -0.191695771065E+03    0.42202E-03   -0.12604E-03 11040   0.217E-01    0.841E-02
DAV:   8    -0.191695729650E+03    0.41416E-04   -0.33752E-04  9440   0.135E-01
  38 F= -.19169573E+03 E0= -.19160321E+03  d E =0.398158E-01
       N       E                     dE             d eps       ncg     rms          rms(c)
DAV:   1    -0.191694365927E+03    0.14051E-02   -0.87528E-03  8240   0.212E-01    0.352E-02
DAV:   2    -0.191694439831E+03   -0.73904E-04   -0.41797E-04 10480   0.990E-02
  39 F= -.19169444E+03 E0= -.19160193E+03  d E =0.128982E-02
       N       E                     dE             d eps       ncg     rms          rms(c)
DAV:   1    -0.191714971727E+03   -0.20606E-01   -0.14467E+00  8160   0.258E+00    0.373E-01
DAV:   2    -0.191726759467E+03   -0.11788E-01   -0.69009E-02 12240   0.129E+00    0.104E+00
DAV:   3    -0.191716746762E+03    0.10013E-01   -0.26350E-02 12120   0.115E+00    0.289E-01
DAV:   4    -0.191715973561E+03    0.77320E-03   -0.36006E-03 11480   0.382E-01    0.220E-01
DAV:   5    -0.191715777060E+03    0.19650E-03   -0.26639E-03 11480   0.393E-01    0.211E-01
DAV:   6    -0.191715336900E+03    0.44016E-03   -0.14805E-03 10120   0.255E-01    0.962E-02
DAV:   7    -0.191715360701E+03   -0.23801E-04   -0.63775E-04  8520   0.183E-01
  40 F= -.19171536E+03 E0= -.19162408E+03  d E =-.209209E-01
       N       E                     dE             d eps       ncg     rms          rms(c)
DAV:   1    -0.191735317518E+03   -0.19981E-01   -0.14849E+00  8160   0.259E+00    0.283E-01
DAV:   2    -0.191740725729E+03   -0.54082E-02   -0.47176E-02 12240   0.783E-01    0.534E-01
DAV:   3    -0.191738512120E+03    0.22136E-02   -0.13116E-02 11960   0.786E-01    0.350E-01
DAV:   4    -0.191737422065E+03    0.10901E-02   -0.32430E-03 11320   0.351E-01    0.137E-01
DAV:   5    -0.191737225561E+03    0.19650E-03   -0.11001E-03 10160   0.186E-01    0.121E-01
DAV:   6    -0.191737269088E+03   -0.43527E-04   -0.83145E-04 10240   0.215E-01
  41 F= -.19173727E+03 E0= -.19164674E+03  d E =-.219084E-01
       N       E                     dE             d eps       ncg     rms          rms(c)
DAV:   1    -0.191743490252E+03   -0.62647E-02   -0.12614E-01  8160   0.761E-01    0.106E-01
DAV:   2    -0.191744422051E+03   -0.93180E-03   -0.51833E-03 11720   0.338E-01    0.278E-01
DAV:   3    -0.191743650731E+03    0.77132E-03   -0.20122E-03 10200   0.326E-01    0.943E-02
DAV:   4    -0.191743599051E+03    0.51680E-04   -0.36461E-04  8240   0.110E-01
  42 F= -.19174360E+03 E0= -.19165374E+03  d E =-.632996E-02
       N       E                     dE             d eps       ncg     rms          rms(c)
DAV:   1    -0.191773214600E+03   -0.29564E-01   -0.31488E+00  8160   0.378E+00    0.434E-01
DAV:   2    -0.191789135901E+03   -0.15921E-01   -0.10367E-01 13600   0.140E+00    0.106E+00
DAV:   3    -0.191778229083E+03    0.10907E-01   -0.34627E-02 12160   0.132E+00    0.396E-01
DAV:   4    -0.191776858262E+03    0.13708E-02   -0.57051E-03 11440   0.401E-01    0.203E-01
DAV:   5    -0.191776395515E+03    0.46275E-03   -0.26386E-03 11880   0.290E-01    0.193E-01
DAV:   6    -0.191776611029E+03   -0.21551E-03   -0.21719E-03 12000   0.366E-01    0.226E-01
DAV:   7    -0.191776058447E+03    0.55258E-03   -0.10546E-03  9560   0.224E-01    0.506E-02
DAV:   8    -0.191776038243E+03    0.20204E-04   -0.15140E-04  6480   0.824E-02
  43 F= -.19177604E+03 E0= -.19168776E+03  d E =-.324392E-01
       N       E                     dE             d eps       ncg     rms          rms(c)
DAV:   1    -0.191768821328E+03    0.72371E-02   -0.13325E-01  8160   0.781E-01    0.863E-02
DAV:   2    -0.191769531057E+03   -0.70973E-03   -0.43399E-03 13600   0.283E-01    0.225E-01
DAV:   3    -0.191768998424E+03    0.53263E-03   -0.15080E-03 10400   0.267E-01    0.709E-02
DAV:   4    -0.191768967343E+03    0.31082E-04   -0.16772E-04  5600   0.803E-02
  44 F= -.19176897E+03 E0= -.19168048E+03  d E =0.707090E-02
       N       E                     dE             d eps       ncg     rms          rms(c)
DAV:   1    -0.191772923271E+03   -0.39248E-02   -0.16664E-01  8160   0.899E-01    0.188E-01
DAV:   2    -0.191774389814E+03   -0.14665E-02   -0.11553E-02 11600   0.604E-01    0.416E-01
DAV:   3    -0.191772469094E+03    0.19207E-02   -0.50705E-03 11680   0.509E-01    0.136E-01
DAV:   4    -0.191772441796E+03    0.27297E-04   -0.12279E-03  9680   0.235E-01    0.156E-01
DAV:   5    -0.191772298513E+03    0.14328E-03   -0.10742E-03  9840   0.245E-01    0.122E-01
DAV:   6    -0.191772124437E+03    0.17408E-03   -0.43449E-04  8280   0.131E-01    0.345E-02
DAV:   7    -0.191772110893E+03    0.13544E-04   -0.92592E-05  6360   0.405E-02
  45 F= -.19177211E+03 E0= -.19168424E+03  d E =-.314355E-02
       N       E                     dE             d eps       ncg     rms          rms(c)
DAV:   1    -0.191795360576E+03   -0.23236E-01   -0.13335E+00  8160   0.250E+00    0.311E-01
DAV:   2    -0.191799166583E+03   -0.38060E-02   -0.43265E-02 13480   0.771E-01    0.507E-01
DAV:   3    -0.191797540507E+03    0.16261E-02   -0.12660E-02 12240   0.805E-01    0.368E-01
DAV:   4    -0.191796138550E+03    0.14020E-02   -0.41565E-03 11480   0.395E-01    0.142E-01
DAV:   5    -0.191795956007E+03    0.18254E-03   -0.17099E-03 10520   0.212E-01    0.128E-01
DAV:   6    -0.191795949539E+03    0.64680E-05   -0.12099E-03 10200   0.246E-01    0.127E-01
DAV:   7    -0.191795741874E+03    0.20767E-03   -0.39456E-04  8400   0.141E-01    0.293E-02
DAV:   8    -0.191795731213E+03    0.10660E-04   -0.57018E-05  6800   0.403E-02
  46 F= -.19179573E+03 E0= -.19170865E+03  d E =-.236203E-01
       N       E                     dE             d eps       ncg     rms          rms(c)
DAV:   1    -0.191820808285E+03   -0.25066E-01   -0.15164E+00  8160   0.264E+00    0.290E-01
DAV:   2    -0.191825541603E+03   -0.47333E-02   -0.45273E-02 13600   0.778E-01    0.512E-01
DAV:   3    -0.191823594474E+03    0.19471E-02   -0.12138E-02 12200   0.778E-01    0.323E-01
DAV:   4    -0.191822507366E+03    0.10871E-02   -0.29131E-03 11400   0.325E-01    0.116E-01
DAV:   5    -0.191822398374E+03    0.10899E-03   -0.11368E-03 10440   0.153E-01    0.990E-02
DAV:   6    -0.191822489967E+03   -0.91593E-04   -0.92113E-04 10680   0.216E-01
  47 F= -.19182249E+03 E0= -.19173685E+03  d E =-.267588E-01
       N       E                     dE             d eps       ncg     rms          rms(c)
DAV:   1    -0.191816154431E+03    0.62439E-02   -0.74148E-02  8160   0.607E-01    0.772E-02
DAV:   2    -0.191817009847E+03   -0.85542E-03   -0.35015E-03 12720   0.336E-01    0.266E-01
DAV:   3    -0.191816227749E+03    0.78210E-03   -0.14092E-03  9880   0.282E-01    0.453E-02
DAV:   4    -0.191816217254E+03    0.10494E-04   -0.77600E-05  5720   0.462E-02
  48 F= -.19181622E+03 E0= -.19173005E+03  d E =0.627271E-02
       N       E                     dE             d eps       ncg     rms          rms(c)
DAV:   1    -0.191833387380E+03   -0.17160E-01   -0.75048E-01  8160   0.189E+00    0.239E-01
DAV:   2    -0.191834959026E+03   -0.15716E-02   -0.22519E-02 12440   0.528E-01    0.352E-01
DAV:   3    -0.191834390437E+03    0.56859E-03   -0.60001E-03 12240   0.601E-01    0.302E-01
DAV:   4    -0.191833434954E+03    0.95548E-03   -0.21556E-03 11560   0.329E-01    0.116E-01
DAV:   5    -0.191833392583E+03    0.42371E-04   -0.10122E-03 10360   0.205E-01    0.132E-01
DAV:   6    -0.191833232142E+03    0.16044E-03   -0.62998E-04  9040   0.189E-01    0.677E-02
DAV:   7    -0.191833179485E+03    0.52656E-04   -0.21386E-04  7000   0.885E-02
  49 F= -.19183318E+03 E0= -.19174751E+03  d E =-.169622E-01
       N       E                     dE             d eps       ncg     rms          rms(c)
DAV:   1    -0.191842413684E+03   -0.91815E-02   -0.26009E-01  8160   0.114E+00    0.245E-01
DAV:   2    -0.191847033889E+03   -0.46202E-02   -0.21718E-02 11720   0.864E-01    0.706E-01
DAV:   3    -0.191841823250E+03    0.52106E-02   -0.11002E-02 11400   0.792E-01    0.159E-01
DAV:   4    -0.191841529406E+03    0.29384E-03   -0.11723E-03  9880   0.180E-01    0.102E-01
DAV:   5    -0.191841640718E+03   -0.11131E-03   -0.10931E-03 10520   0.226E-01    0.163E-01
DAV:   6    -0.191841359255E+03    0.28146E-03   -0.64746E-04  9200   0.194E-01    0.495E-02
DAV:   7    -0.191841343043E+03    0.16212E-04   -0.10396E-04  5960   0.608E-02
  50 F= -.19184134E+03 E0= -.19175667E+03  d E =-.816356E-02
       N       E                     dE             d eps       ncg     rms          rms(c)
DAV:   1    -0.191879632747E+03   -0.38273E-01   -0.25625E+00  8160   0.343E+00    0.368E-01
DAV:   2    -0.191886597817E+03   -0.69651E-02   -0.69732E-02 12720   0.964E-01    0.586E-01
DAV:   3    -0.191883751304E+03    0.28465E-02   -0.14163E-02 11400   0.882E-01    0.367E-01
DAV:   4    -0.191882753786E+03    0.99752E-03   -0.40624E-03 11400   0.446E-01    0.243E-01
DAV:   5    -0.191882467248E+03    0.28654E-03   -0.25333E-03 10120   0.396E-01    0.199E-01
DAV:   6    -0.191882220644E+03    0.24660E-03   -0.13849E-03 10440   0.254E-01    0.982E-02
DAV:   7    -0.191882074841E+03    0.14580E-03   -0.51186E-04  9400   0.121E-01    0.567E-02
DAV:   8    -0.191882047620E+03    0.27220E-04   -0.14281E-04  6640   0.904E-02
  51 F= -.19188205E+03 E0= -.19179934E+03  d E =-.407046E-01
       N       E                     dE             d eps       ncg     rms          rms(c)
DAV:   1    -0.191852909675E+03    0.29165E-01   -0.11319E+00  8160   0.229E+00    0.245E-01
DAV:   2    -0.191855249929E+03   -0.23403E-02   -0.28446E-02 12280   0.546E-01    0.331E-01
DAV:   3    -0.191854835892E+03    0.41404E-03   -0.59955E-03 11960   0.573E-01    0.297E-01
DAV:   4    -0.191854012235E+03    0.82366E-03   -0.20119E-03 11080   0.328E-01    0.147E-01
DAV:   5    -0.191853935557E+03    0.76679E-04   -0.10415E-03 10040   0.251E-01    0.137E-01
DAV:   6    -0.191853823943E+03    0.11161E-03   -0.67572E-04  9760   0.184E-01    0.709E-02
DAV:   7    -0.191853742843E+03    0.81100E-04   -0.21903E-04  7120   0.815E-02
  52 F= -.19185374E+03 E0= -.19176988E+03  d E =0.283048E-01
       N       E                     dE             d eps       ncg     rms          rms(c)
DAV:   1    -0.191886786265E+03   -0.32962E-01   -0.21474E+00  8160   0.318E+00    0.349E-01
DAV:   2    -0.191890446719E+03   -0.36605E-02   -0.59742E-02 12560   0.742E-01    0.388E-01
DAV:   3    -0.191891382993E+03   -0.93627E-03   -0.11720E-02 12200   0.817E-01    0.515E-01
DAV:   4    -0.191888354324E+03    0.30287E-02   -0.47934E-03 11440   0.532E-01    0.122E-01
DAV:   5    -0.191888332666E+03    0.21658E-04   -0.14578E-03 11200   0.179E-01    0.126E-01
DAV:   6    -0.191888342025E+03   -0.93586E-05   -0.11930E-03 11200   0.252E-01    0.144E-01
DAV:   7    -0.191888112061E+03    0.22996E-03   -0.54206E-04  8400   0.171E-01    0.412E-02
DAV:   8    -0.191888093767E+03    0.18294E-04   -0.78196E-05  5760   0.516E-02
  53 F= -.19188809E+03 E0= -.19180547E+03  d E =-.343509E-01
       N       E                     dE             d eps       ncg     rms          rms(c)
DAV:   1    -0.191911502547E+03   -0.23390E-01   -0.72684E-01  8160   0.183E+00    0.222E-01
DAV:   2    -0.191914866979E+03   -0.33644E-02   -0.23842E-02 12640   0.752E-01    0.476E-01
DAV:   3    -0.191912344688E+03    0.25223E-02   -0.54652E-03 12160   0.590E-01    0.154E-01
DAV:   4    -0.191912371955E+03   -0.27267E-04   -0.10190E-03  9840   0.245E-01    0.176E-01
DAV:   5    -0.191912137091E+03    0.23486E-03   -0.89324E-04  9960   0.256E-01    0.106E-01
DAV:   6    -0.191912060087E+03    0.77004E-04   -0.39838E-04  8120   0.124E-01
  54 F= -.19191206E+03 E0= -.19183043E+03  d E =-.239663E-01
       N       E                     dE             d eps       ncg     rms          rms(c)
DAV:   1    -0.191955132943E+03   -0.42996E-01   -0.24525E+00  8160   0.337E+00    0.388E-01
DAV:   2    -0.191963973848E+03   -0.88409E-02   -0.70463E-02 12600   0.114E+00    0.741E-01
DAV:   3    -0.191958309691E+03    0.56642E-02   -0.14789E-02 11960   0.987E-01    0.319E-01
DAV:   4    -0.191958053048E+03    0.25664E-03   -0.34541E-03 11280   0.462E-01    0.299E-01
DAV:   5    -0.191957296353E+03    0.75670E-03   -0.26014E-03 10320   0.434E-01    0.172E-01
DAV:   6    -0.191957134944E+03    0.16141E-03   -0.11664E-03 10360   0.213E-01    0.856E-02
DAV:   7    -0.191956983737E+03    0.15121E-03   -0.32856E-04  8480   0.869E-02    0.323E-02
DAV:   8    -0.191956983649E+03    0.88640E-07   -0.82563E-05  6840   0.654E-02
  55 F= -.19195698E+03 E0= -.19187686E+03  d E =-.449236E-01
       N       E                     dE             d eps       ncg     rms          rms(c)
DAV:   1    -0.191954149009E+03    0.28347E-02   -0.11029E-02  8160   0.232E-01    0.330E-02
DAV:   2    -0.191954238549E+03   -0.89540E-04   -0.44293E-04 10360   0.114E-01
  56 F= -.19195424E+03 E0= -.19187399E+03  d E =0.274510E-02
       N       E                     dE             d eps       ncg     rms          rms(c)
DAV:   1    -0.192016028216E+03   -0.61879E-01   -0.51164E+00  8160   0.487E+00    0.536E-01
DAV:   2    -0.192030415451E+03   -0.14387E-01   -0.13820E-01 12840   0.138E+00    0.883E-01
DAV:   3    -0.192023756080E+03    0.66594E-02   -0.26071E-02 12040   0.132E+00    0.526E-01
DAV:   4    -0.192021715596E+03    0.20405E-02   -0.67397E-03 11520   0.658E-01    0.357E-01
DAV:   5    -0.192020847837E+03    0.86776E-03   -0.44311E-03 11320   0.574E-01    0.251E-01
DAV:   6    -0.192020364508E+03    0.48333E-03   -0.21650E-03 11600   0.307E-01    0.109E-01
DAV:   7    -0.192020117828E+03    0.24668E-03   -0.58637E-04 10560   0.110E-01    0.400E-02
DAV:   8    -0.192020126888E+03   -0.90598E-05   -0.13863E-04  6880   0.852E-02
  57 F= -.19202013E+03 E0= -.19194170E+03  d E =-.658883E-01
       N       E                     dE             d eps       ncg     rms          rms(c)
DAV:   1    -0.192056187420E+03   -0.36070E-01   -0.17012E+00  8160   0.281E+00    0.343E-01
DAV:   2    -0.192063693692E+03   -0.75063E-02   -0.54305E-02 12040   0.102E+00    0.698E-01
DAV:   3    -0.192058540804E+03    0.51529E-02   -0.12377E-02 11600   0.920E-01    0.280E-01
DAV:   4    -0.192058072219E+03    0.46859E-03   -0.24713E-03 11480   0.372E-01    0.215E-01
DAV:   5    -0.192057722909E+03    0.34931E-03   -0.16592E-03 11040   0.343E-01    0.151E-01
DAV:   6    -0.192057584571E+03    0.13834E-03   -0.84504E-04  9800   0.204E-01    0.862E-02
DAV:   7    -0.192057532193E+03    0.52378E-04   -0.40127E-04  9240   0.145E-01
  58 F= -.19205753E+03 E0= -.19197939E+03  d E =-.374053E-01
       N       E                     dE             d eps       ncg     rms          rms(c)
DAV:   1    -0.192125623546E+03   -0.68039E-01   -0.82297E+00  8160   0.616E+00    0.705E-01
DAV:   2    -0.192152734892E+03   -0.27111E-01   -0.24836E-01 12240   0.203E+00    0.121E+00
DAV:   3    -0.192138474435E+03    0.14260E-01   -0.44926E-02 11640   0.176E+00    0.615E-01
DAV:   4    -0.192136004721E+03    0.24697E-02   -0.11156E-02 11480   0.844E-01    0.480E-01
DAV:   5    -0.192134266087E+03    0.17386E-02   -0.73573E-03 11920   0.761E-01    0.322E-01
DAV:   6    -0.192133479867E+03    0.78622E-03   -0.37169E-03 11840   0.407E-01    0.154E-01
DAV:   7    -0.192133083624E+03    0.39624E-03   -0.12642E-03 10840   0.185E-01    0.960E-02
DAV:   8    -0.192133003365E+03    0.80259E-04   -0.38975E-04  9160   0.143E-01
  59 F= -.19213300E+03 E0= -.19205656E+03  d E =-.754712E-01
       N       E                     dE             d eps       ncg     rms          rms(c)
DAV:   1    -0.192180537861E+03   -0.47454E-01   -0.66347E+00  8160   0.553E+00    0.639E-01
DAV:   2    -0.192197022719E+03   -0.16485E-01   -0.22847E-01 11920   0.140E+00    0.690E-01
DAV:   3    -0.192199346753E+03   -0.23240E-02   -0.32170E-02 12240   0.149E+00    0.879E-01
DAV:   4    -0.192190764021E+03    0.85827E-02   -0.12643E-02 12240   0.981E-01    0.275E-01
DAV:   5    -0.192190953397E+03   -0.18938E-03   -0.47757E-03 12240   0.564E-01    0.331E-01
DAV:   6    -0.192190056260E+03    0.89714E-03   -0.36302E-03 11720   0.493E-01    0.173E-01
DAV:   7    -0.192189582289E+03    0.47397E-03   -0.10433E-03 10720   0.195E-01    0.569E-02
DAV:   8    -0.192189592850E+03   -0.10561E-04   -0.26760E-04  8280   0.116E-01
  60 F= -.19218959E+03 E0= -.19211390E+03  d E =-.565895E-01
       N       E                     dE             d eps       ncg     rms          rms(c)
DAV:   1    -0.192205692451E+03   -0.16110E-01   -0.92946E-01  8160   0.206E+00    0.288E-01
DAV:   2    -0.192210478287E+03   -0.47858E-02   -0.46155E-02 11800   0.103E+00    0.522E-01
DAV:   3    -0.192207356226E+03    0.31221E-02   -0.87028E-03 12160   0.743E-01    0.199E-01
DAV:   4    -0.192206870490E+03    0.48574E-03   -0.14495E-03 11120   0.258E-01    0.134E-01
DAV:   5    -0.192206958240E+03   -0.87750E-04   -0.11688E-03 10240   0.268E-01    0.175E-01
DAV:   6    -0.192206695085E+03    0.26315E-03   -0.88871E-04 10320   0.239E-01    0.798E-02
DAV:   7    -0.192206616591E+03    0.78494E-04   -0.22092E-04  7320   0.856E-02
  61 F= -.19220662E+03 E0= -.19213222E+03  d E =-.170237E-01
       N       E                     dE             d eps       ncg     rms          rms(c)
DAV:   1    -0.192221902071E+03   -0.15207E-01   -0.81061E-01  8160   0.193E+00    0.241E-01
DAV:   2    -0.192223975262E+03   -0.20732E-02   -0.31493E-02 11600   0.549E-01    0.269E-01
DAV:   3    -0.192224222419E+03   -0.24716E-03   -0.60568E-03 12400   0.589E-01    0.320E-01
DAV:   4    -0.192222949473E+03    0.12729E-02   -0.21749E-03 11320   0.368E-01    0.833E-02
DAV:   5    -0.192222926323E+03    0.23150E-04   -0.60702E-04 10240   0.120E-01
  62 F= -.19222293E+03 E0= -.19214899E+03  d E =-.163097E-01
       N       E                     dE             d eps       ncg     rms          rms(c)
DAV:   1    -0.192243231762E+03   -0.20282E-01   -0.21891E+00  8160   0.313E+00    0.364E-01
DAV:   2    -0.192250597188E+03   -0.73654E-02   -0.78267E-02 12080   0.103E+00    0.546E-01
DAV:   3    -0.192248303980E+03    0.22932E-02   -0.14139E-02 12120   0.964E-01    0.370E-01
DAV:   4    -0.192246882879E+03    0.14211E-02   -0.29725E-03 11600   0.451E-01    0.186E-01
DAV:   5    -0.192246790133E+03    0.92746E-04   -0.15342E-03 11120   0.352E-01    0.177E-01
DAV:   6    -0.192246607179E+03    0.18295E-03   -0.10073E-03 10800   0.230E-01    0.956E-02
DAV:   7    -0.192246489978E+03    0.11720E-03   -0.35522E-04  8680   0.131E-01    0.615E-02
DAV:   8    -0.192246453382E+03    0.36596E-04   -0.99809E-05  6800   0.867E-02
  63 F= -.19224645E+03 E0= -.19217388E+03  d E =-.235271E-01
       N       E                     dE             d eps       ncg     rms          rms(c)
DAV:   1    -0.192270200312E+03   -0.23710E-01   -0.12228E+01  8160   0.742E+00    0.803E-01
DAV:   2    -0.192301579939E+03   -0.31380E-01   -0.40650E-01 12240   0.196E+00    0.863E-01
DAV:   3    -0.192301760492E+03   -0.18055E-03   -0.59792E-02 11200   0.189E+00    0.959E-01
DAV:   4    -0.192290930843E+03    0.10830E-01   -0.20350E-02 12120   0.120E+00    0.344E-01
DAV:   5    -0.192290530049E+03    0.40079E-03   -0.69738E-03 12320   0.657E-01    0.357E-01
DAV:   6    -0.192290167414E+03    0.36264E-03   -0.52526E-03 12280   0.599E-01    0.276E-01
DAV:   7    -0.192289045164E+03    0.11223E-02   -0.20959E-03 11400   0.299E-01    0.824E-02
DAV:   8    -0.192289020175E+03    0.24989E-04   -0.33046E-04  9680   0.145E-01
  64 F= -.19228902E+03 E0= -.19221976E+03  d E =-.425668E-01
       N       E                     dE             d eps       ncg     rms          rms(c)
DAV:   1    -0.192298703848E+03   -0.96587E-02   -0.14326E+00  8160   0.254E+00    0.290E-01
DAV:   2    -0.192302571214E+03   -0.38674E-02   -0.52053E-02 12200   0.731E-01    0.303E-01
DAV:   3    -0.192303120863E+03   -0.54965E-03   -0.71063E-03 12360   0.710E-01    0.377E-01
DAV:   4    -0.192301399194E+03    0.17217E-02   -0.23308E-03 11400   0.439E-01    0.108E-01
DAV:   5    -0.192301551698E+03   -0.15250E-03   -0.86260E-04 10280   0.245E-01    0.151E-01
DAV:   6    -0.192301389229E+03    0.16247E-03   -0.71791E-04 10800   0.227E-01    0.831E-02
DAV:   7    -0.192301310205E+03    0.79023E-04   -0.19769E-04  7520   0.112E-01
  65 F= -.19230131E+03 E0= -.19223302E+03  d E =-.122900E-01
       N       E                     dE             d eps       ncg     rms          rms(c)
DAV:   1    -0.192311265617E+03   -0.98764E-02   -0.21514E+00  8160   0.312E+00    0.341E-01
DAV:   2    -0.192316100065E+03   -0.48344E-02   -0.65921E-02 12000   0.838E-01    0.375E-01
DAV:   3    -0.192316357901E+03   -0.25784E-03   -0.10055E-02 12440   0.834E-01    0.423E-01
DAV:   4    -0.192314240785E+03    0.21171E-02   -0.30450E-03 11840   0.498E-01    0.140E-01
DAV:   5    -0.192314258758E+03   -0.17972E-04   -0.12829E-03 10720   0.278E-01    0.158E-01
DAV:   6    -0.192314195692E+03    0.63066E-04   -0.10090E-03 10800   0.273E-01    0.127E-01
DAV:   7    -0.192313983687E+03    0.21201E-03   -0.35557E-04  8720   0.151E-01    0.450E-02
DAV:   8    -0.192313971117E+03    0.12569E-04   -0.69503E-05  6800   0.710E-02
  66 F= -.19231397E+03 E0= -.19224677E+03  d E =-.126609E-01
       N       E                     dE             d eps       ncg     rms          rms(c)
DAV:   1    -0.192321569927E+03   -0.75862E-02   -0.21343E+00  8160   0.312E+00    0.351E-01
DAV:   2    -0.192327698833E+03   -0.61289E-02   -0.74263E-02 11880   0.954E-01    0.442E-01
DAV:   3    -0.192327113461E+03    0.58537E-03   -0.10944E-02 12440   0.893E-01    0.404E-01
DAV:   4    -0.192325200474E+03    0.19130E-02   -0.27706E-03 11600   0.475E-01    0.151E-01
DAV:   5    -0.192325288610E+03   -0.88136E-04   -0.14456E-03 10680   0.327E-01    0.184E-01
DAV:   6    -0.192325068475E+03    0.22013E-03   -0.10842E-03 10920   0.270E-01    0.106E-01
DAV:   7    -0.192324926004E+03    0.14247E-03   -0.33557E-04  8720   0.141E-01    0.548E-02
DAV:   8    -0.192324896720E+03    0.29284E-04   -0.79051E-05  6800   0.779E-02
  67 F= -.19232490E+03 E0= -.19225853E+03  d E =-.109256E-01
       N       E                     dE             d eps       ncg     rms          rms(c)
DAV:   1    -0.192329351867E+03   -0.44259E-02   -0.27722E+00  8160   0.356E+00    0.389E-01
DAV:   2    -0.192336872227E+03   -0.75204E-02   -0.92569E-02 11840   0.104E+00    0.478E-01
DAV:   3    -0.192336562802E+03    0.30942E-03   -0.12383E-02 12440   0.982E-01    0.466E-01
DAV:   4    -0.192333959288E+03    0.26035E-02   -0.33377E-03 11520   0.532E-01    0.156E-01
DAV:   5    -0.192334198309E+03   -0.23902E-03   -0.18182E-03 11080   0.365E-01    0.210E-01
DAV:   6    -0.192333818082E+03    0.38023E-03   -0.12731E-03 10960   0.292E-01    0.101E-01
DAV:   7    -0.192333682146E+03    0.13594E-03   -0.32865E-04  8880   0.139E-01    0.535E-02
DAV:   8    -0.192333655643E+03    0.26503E-04   -0.80013E-05  7080   0.782E-02
  68 F= -.19233366E+03 E0= -.19226796E+03  d E =-.875892E-02
       N       E                     dE             d eps       ncg     rms          rms(c)
DAV:   1    -0.192335947890E+03   -0.22657E-02   -0.46008E-01  8160   0.145E+00    0.167E-01
DAV:   2    -0.192337605422E+03   -0.16575E-02   -0.18676E-02 11720   0.477E-01    0.228E-01
DAV:   3    -0.192337408575E+03    0.19685E-03   -0.21943E-03 12200   0.428E-01    0.194E-01
DAV:   4    -0.192336958684E+03    0.44989E-03   -0.52323E-04  9640   0.215E-01    0.602E-02
DAV:   5    -0.192337041846E+03   -0.83162E-04   -0.34285E-04  9160   0.157E-01
  69 F= -.19233704E+03 E0= -.19227152E+03  d E =-.338620E-02
       N       E                     dE             d eps       ncg     rms          rms(c)
DAV:   1    -0.192336015993E+03    0.94269E-03   -0.11223E-01  8160   0.719E-01    0.818E-02
DAV:   2    -0.192336336473E+03   -0.32048E-03   -0.37242E-03 11360   0.220E-01    0.113E-01
DAV:   3    -0.192336247812E+03    0.88662E-04   -0.58367E-04 10920   0.205E-01
  70 F= -.19233625E+03 E0= -.19227086E+03  d E =0.794034E-03
       N       E                     dE             d eps       ncg     rms          rms(c)
DAV:   1    -0.192337209887E+03   -0.87341E-03   -0.89731E-02  8160   0.645E-01    0.654E-02
DAV:   2    -0.192337564026E+03   -0.35414E-03   -0.37335E-03 11400   0.184E-01    0.849E-02
DAV:   3    -0.192337532849E+03    0.31178E-04   -0.41368E-04 10800   0.166E-01
  71 F= -.19233753E+03 E0= -.19227212E+03  d E =-.128504E-02
       N       E                     dE             d eps       ncg     rms          rms(c)
DAV:   1    -0.192337905502E+03   -0.34148E-03   -0.99488E-03  8240   0.230E-01    0.371E-02
DAV:   2    -0.192337936715E+03   -0.31213E-04   -0.39505E-04 10640   0.684E-02
  72 F= -.19233794E+03 E0= -.19227252E+03  d E =-.403866E-03
       N       E                     dE             d eps       ncg     rms          rms(c)
DAV:   1    -0.192339046430E+03   -0.11409E-02   -0.91018E-02  8160   0.648E-01    0.824E-02
DAV:   2    -0.192339376525E+03   -0.33009E-03   -0.32020E-03 12800   0.226E-01    0.132E-01
DAV:   3    -0.192339191622E+03    0.18490E-03   -0.64814E-04 11000   0.216E-01    0.709E-02
DAV:   4    -0.192339148162E+03    0.43460E-04   -0.10204E-04  6080   0.895E-02
  73 F= -.19233915E+03 E0= -.19227388E+03  d E =-.121145E-02
       N       E                     dE             d eps       ncg     rms          rms(c)
DAV:   1    -0.192339176934E+03    0.14688E-04   -0.88561E-04 10680   0.963E-02    0.457E-02
DAV:   2    -0.192339524653E+03   -0.34772E-03   -0.58233E-04 10080   0.233E-01    0.168E-01
DAV:   3    -0.192339147316E+03    0.37734E-03   -0.33149E-04  8480   0.186E-01    0.171E-02
DAV:   4    -0.192339156974E+03   -0.96579E-05   -0.15853E-05  5600   0.349E-02
  74 F= -.19233916E+03 E0= -.19227385E+03  d E =-.881214E-05
       N       E                     dE             d eps       ncg     rms          rms(c)
DAV:   1    -0.192339934800E+03   -0.78748E-03   -0.52479E-02  8160   0.489E-01    0.547E-02
DAV:   2    -0.192340104682E+03   -0.16988E-03   -0.21490E-03 10960   0.146E-01    0.606E-02
DAV:   3    -0.192340113108E+03   -0.84257E-05   -0.20313E-04  9240   0.129E-01
  75 F= -.19234011E+03 E0= -.19227483E+03  d E =-.956133E-03
       N       E                     dE             d eps       ncg     rms          rms(c)
DAV:   1    -0.192341111685E+03   -0.10070E-02   -0.11677E-01  8160   0.733E-01    0.957E-02
DAV:   2    -0.192341680509E+03   -0.56882E-03   -0.44414E-03 12640   0.314E-01    0.186E-01
DAV:   3    -0.192341311706E+03    0.36880E-03   -0.76801E-04 11080   0.257E-01    0.733E-02
DAV:   4    -0.192341274926E+03    0.36780E-04   -0.11981E-04  5640   0.103E-01
  76 F= -.19234127E+03 E0= -.19227617E+03  d E =-.116182E-02
       N       E                     dE             d eps       ncg     rms          rms(c)
DAV:   1    -0.192342307767E+03   -0.99606E-03   -0.82518E-01  8160   0.194E+00    0.226E-01
DAV:   2    -0.192345286047E+03   -0.29783E-02   -0.31510E-02 12320   0.607E-01    0.331E-01
DAV:   3    -0.192344654557E+03    0.63149E-03   -0.39882E-03 12440   0.578E-01    0.248E-01
DAV:   4    -0.192343897932E+03    0.75662E-03   -0.90504E-04  9880   0.264E-01    0.687E-02
DAV:   5    -0.192344036479E+03   -0.13855E-03   -0.52885E-04 10480   0.163E-01    0.112E-01
DAV:   6    -0.192343888845E+03    0.14763E-03   -0.36966E-04  9640   0.171E-01    0.453E-02
DAV:   7    -0.192343860045E+03    0.28799E-04   -0.66708E-05  6480   0.608E-02
  77 F= -.19234386E+03 E0= -.19227895E+03  d E =-.258512E-02
       N       E                     dE             d eps       ncg     rms          rms(c)
DAV:   1    -0.192344373774E+03   -0.48493E-03   -0.94622E-02  8160   0.655E-01    0.724E-02
DAV:   2    -0.192344692134E+03   -0.31836E-03   -0.38359E-03 11440   0.198E-01    0.893E-02
DAV:   3    -0.192344686229E+03    0.59052E-05   -0.45659E-04 10440   0.185E-01
  78 F= -.19234469E+03 E0= -.19227972E+03  d E =-.826184E-03
