<?xml version="1.0" encoding="ISO-8859-1"?>
<modeling>
 <generator>
  <i name="program" type="string">vasp </i>
  <i name="version" type="string">5.4.1  </i>
  <i name="subversion" type="string">05Feb16 (build Jul 05 2020 17:13:04) complex                          parallel </i>
  <i name="platform" type="string">IFC91_ompi </i>
  <i name="date" type="string">2024 04 24 </i>
  <i name="time" type="string">03:55:59 </i>
 </generator>
 <incar>
  <i type="int" name="ISTART">     0</i>
  <i type="string" name="PREC">normal</i>
  <i type="string" name="ALGO"> Normal</i>
  <i type="int" name="ISPIN">     1</i>
  <i type="int" name="ICHARG">     2</i>
  <i type="int" name="IBRION">     1</i>
  <i type="int" name="NSW">   100</i>
  <i type="int" name="ISIF">     3</i>
  <i type="int" name="ISYM">     0</i>
  <i name="SYMPREC">      0.00000001</i>
  <i name="POTIM">      0.50000000</i>
  <i type="logical" name="LREAL"> F  </i>
  <i type="logical" name="LPLANE"> F  </i>
  <i type="int" name="ISMEAR">     0</i>
  <i type="logical" name="LWAVE"> F  </i>
  <i type="logical" name="LCHARG"> F  </i>
  <v type="int" name="KPOINT_BSE">    -1     0     0     0</v>
 </incar>
 <kpoints>
  <generation param="Gamma">
   <v type="int" name="divisions">       8        8        1 </v>
   <v name="usershift">      0.00000000       0.00000000       0.00000000 </v>
   <v name="genvec1">      0.12500000       0.00000000       0.00000000 </v>
   <v name="genvec2">     -0.00000000       0.12500000       0.00000000 </v>
   <v name="genvec3">      0.00000000       0.00000000       1.00000000 </v>
   <v name="shift">      0.00000000       0.00000000       0.00000000 </v>
  </generation>
  <varray name="kpointlist" >
   <v>       0.00000000       0.00000000       0.00000000 </v>
   <v>       0.12500000       0.00000000       0.00000000 </v>
   <v>       0.25000000       0.00000000       0.00000000 </v>
   <v>       0.37500000       0.00000000       0.00000000 </v>
   <v>       0.50000000       0.00000000       0.00000000 </v>
   <v>       0.00000000       0.12500000       0.00000000 </v>
   <v>       0.12500000       0.12500000       0.00000000 </v>
   <v>       0.25000000       0.12500000       0.00000000 </v>
   <v>       0.37500000       0.12500000       0.00000000 </v>
   <v>       0.50000000       0.12500000       0.00000000 </v>
   <v>      -0.37500000       0.12500000       0.00000000 </v>
   <v>      -0.25000000       0.12500000       0.00000000 </v>
   <v>      -0.12500000       0.12500000       0.00000000 </v>
   <v>       0.00000000       0.25000000       0.00000000 </v>
   <v>       0.12500000       0.25000000       0.00000000 </v>
   <v>       0.25000000       0.25000000       0.00000000 </v>
   <v>       0.37500000       0.25000000       0.00000000 </v>
   <v>       0.50000000       0.25000000       0.00000000 </v>
   <v>      -0.37500000       0.25000000       0.00000000 </v>
   <v>      -0.25000000       0.25000000       0.00000000 </v>
   <v>      -0.12500000       0.25000000       0.00000000 </v>
   <v>      -0.00000000       0.37500000       0.00000000 </v>
   <v>       0.12500000       0.37500000       0.00000000 </v>
   <v>       0.25000000       0.37500000       0.00000000 </v>
   <v>       0.37500000       0.37500000       0.00000000 </v>
   <v>       0.50000000       0.37500000       0.00000000 </v>
   <v>      -0.37500000       0.37500000       0.00000000 </v>
   <v>      -0.25000000       0.37500000       0.00000000 </v>
   <v>      -0.12500000       0.37500000       0.00000000 </v>
   <v>       0.00000000       0.50000000       0.00000000 </v>
   <v>       0.12500000       0.50000000       0.00000000 </v>
   <v>       0.25000000       0.50000000       0.00000000 </v>
   <v>       0.37500000       0.50000000       0.00000000 </v>
   <v>       0.50000000       0.50000000       0.00000000 </v>
  </varray>
  <varray name="weights" >
   <v>       0.01562500 </v>
   <v>       0.03125000 </v>
   <v>       0.03125000 </v>
   <v>       0.03125000 </v>
   <v>       0.01562500 </v>
   <v>       0.03125000 </v>
   <v>       0.03125000 </v>
   <v>       0.03125000 </v>
   <v>       0.03125000 </v>
   <v>       0.03125000 </v>
   <v>       0.03125000 </v>
   <v>       0.03125000 </v>
   <v>       0.03125000 </v>
   <v>       0.03125000 </v>
   <v>       0.03125000 </v>
   <v>       0.03125000 </v>
   <v>       0.03125000 </v>
   <v>       0.03125000 </v>
   <v>       0.03125000 </v>
   <v>       0.03125000 </v>
   <v>       0.03125000 </v>
   <v>       0.03125000 </v>
   <v>       0.03125000 </v>
   <v>       0.03125000 </v>
   <v>       0.03125000 </v>
   <v>       0.03125000 </v>
   <v>       0.03125000 </v>
   <v>       0.03125000 </v>
   <v>       0.03125000 </v>
   <v>       0.01562500 </v>
   <v>       0.03125000 </v>
   <v>       0.03125000 </v>
   <v>       0.03125000 </v>
   <v>       0.01562500 </v>
  </varray>
 </kpoints>
 <parameters>
  <separator name="general" >
   <i type="string" name="SYSTEM">unknown system</i>
   <i type="logical" name="LCOMPAT"> F  </i>
  </separator>
  <separator name="electronic" >
   <i type="string" name="PREC">normal</i>
   <i name="ENMAX">    280.00000000</i>
   <i name="ENAUG">    373.43800000</i>
   <i name="EDIFF">      0.00010000</i>
   <i type="int" name="IALGO">    38</i>
   <i type="int" name="IWAVPR">    11</i>
   <i type="int" name="NBANDS">   120</i>
   <i name="NELECT">    159.00000000</i>
   <i type="int" name="TURBO">     0</i>
   <i type="int" name="IRESTART">     0</i>
   <i type="int" name="NREBOOT">     0</i>
   <i type="int" name="NMIN">     0</i>
   <i name="EREF">      0.00000000</i>
   <separator name="electronic smearing" >
    <i type="int" name="ISMEAR">     0</i>
    <i name="SIGMA">      0.20000000</i>
    <i name="KSPACING">      0.50000000</i>
    <i type="logical" name="KGAMMA"> T  </i>
   </separator>
   <separator name="electronic projectors" >
    <i type="logical" name="LREAL"> F  </i>
    <v name="ROPT">      0.00000000      0.00000000      0.00000000      0.00000000</v>
    <i type="int" name="LMAXPAW">  -100</i>
    <i type="int" name="LMAXMIX">     2</i>
    <i type="logical" name="NLSPLINE"> F  </i>
   </separator>
   <separator name="electronic startup" >
    <i type="int" name="ISTART">     0</i>
    <i type="int" name="ICHARG">     2</i>
    <i type="int" name="INIWAV">     1</i>
   </separator>
   <separator name="electronic spin" >
    <i type="int" name="ISPIN">     1</i>
    <i type="logical" name="LNONCOLLINEAR"> F  </i>
    <v name="MAGMOM">      1.00000000      1.00000000      1.00000000      1.00000000      1.00000000      1.00000000      1.00000000      1.00000000      1.00000000      1.00000000      1.00000000      1.00000000      1.00000000      1.00000000      1.00000000      1.00000000      1.00000000      1.00000000      1.00000000      1.00000000
      1.00000000      1.00000000      1.00000000      1.00000000      1.00000000      1.00000000      1.00000000</v>
    <i name="NUPDOWN">     -1.00000000</i>
    <i type="logical" name="LSORBIT"> F  </i>
    <v name="SAXIS">      0.00000000      0.00000000      1.00000000</v>
    <i type="logical" name="LSPIRAL"> F  </i>
    <v name="QSPIRAL">      0.00000000      0.00000000      0.00000000</v>
    <i type="logical" name="LZEROZ"> F  </i>
   </separator>
   <separator name="electronic exchange-correlation" >
    <i type="logical" name="LASPH"> F  </i>
    <i type="logical" name="LMETAGGA"> F  </i>
   </separator>
   <separator name="electronic convergence" >
    <i type="int" name="NELM">    60</i>
    <i type="int" name="NELMDL">    -5</i>
    <i type="int" name="NELMIN">     2</i>
    <i name="ENINI">    280.00000000</i>
    <separator name="electronic convergence detail" >
     <i type="logical" name="LDIAG"> T  </i>
     <i type="logical" name="LSUBROT"> F  </i>
     <i name="WEIMIN">      0.00100000</i>
     <i name="EBREAK">      0.00000021</i>
     <i name="DEPER">      0.30000000</i>
     <i type="int" name="NRMM">     4</i>
     <i name="TIME">      0.40000000</i>
    </separator>
   </separator>
   <separator name="electronic mixer" >
    <i name="AMIX">      0.40000000</i>
    <i name="BMIX">      1.00000000</i>
    <i name="AMIN">      0.10000000</i>
    <i name="AMIX_MAG">      1.60000000</i>
    <i name="BMIX_MAG">      1.00000000</i>
    <separator name="electronic mixer details" >
     <i type="int" name="IMIX">     4</i>
     <i type="logical" name="MIXFIRST"> F  </i>
     <i type="int" name="MAXMIX">   -45</i>
     <i name="WC">    100.00000000</i>
     <i type="int" name="INIMIX">     1</i>
     <i type="int" name="MIXPRE">     1</i>
     <i type="int" name="MREMOVE">     5</i>
    </separator>
   </separator>
   <separator name="electronic dipolcorrection" >
    <i type="logical" name="LDIPOL"> F  </i>
    <i type="logical" name="LMONO"> F  </i>
    <i type="int" name="IDIPOL">     0</i>
    <i name="EPSILON">      1.00000000</i>
    <v name="DIPOL">   -100.00000000   -100.00000000   -100.00000000</v>
    <i name="EFIELD">      0.00000000</i>
   </separator>
  </separator>
  <separator name="grids" >
   <i type="int" name="NGX">    42</i>
   <i type="int" name="NGY">    42</i>
   <i type="int" name="NGZ">   126</i>
   <i type="int" name="NGXF">    84</i>
   <i type="int" name="NGYF">    84</i>
   <i type="int" name="NGZF">   252</i>
   <i type="logical" name="ADDGRID"> F  </i>
  </separator>
  <separator name="ionic" >
   <i type="int" name="NSW">   100</i>
   <i type="int" name="IBRION">     1</i>
   <i type="int" name="ISIF">     3</i>
   <i name="PSTRESS">      0.00000000</i>
   <i name="EDIFFG">      0.00100000</i>
   <i type="int" name="NFREE">     0</i>
   <i name="POTIM">      0.50000000</i>
   <i name="SMASS">     -3.00000000</i>
   <i name="SCALEE">      1.00000000</i>
  </separator>
  <separator name="ionic md" >
   <i name="TEBEG">      0.00010000</i>
   <i name="TEEND">      0.00010000</i>
   <i type="int" name="NBLOCK">     1</i>
   <i type="int" name="KBLOCK">   100</i>
   <i type="int" name="NPACO">   256</i>
   <i name="APACO">     16.00000000</i>
  </separator>
  <separator name="symmetry" >
   <i type="int" name="ISYM">     0</i>
   <i name="SYMPREC">      0.00000001</i>
  </separator>
  <separator name="dos" >
   <i type="logical" name="LORBIT"> F  </i>
   <v name="RWIGS">     -1.00000000     -1.00000000     -1.00000000     -1.00000000</v>
   <i type="int" name="NEDOS">   301</i>
   <i name="EMIN">     10.00000000</i>
   <i name="EMAX">    -10.00000000</i>
   <i name="EFERMI">      0.00000000</i>
  </separator>
  <separator name="writing" >
   <i type="int" name="NWRITE">     2</i>
   <i type="logical" name="LWAVE"> F  </i>
   <i type="logical" name="LCHARG"> F  </i>
   <i type="logical" name="LPARD"> F  </i>
   <i type="logical" name="LVTOT"> F  </i>
   <i type="logical" name="LVHAR"> F  </i>
   <i type="logical" name="LELF"> F  </i>
   <i type="logical" name="LOPTICS"> F  </i>
   <v name="STM">      0.00000000      0.00000000      0.00000000      0.00000000      0.00000000      0.00000000      0.00000000</v>
  </separator>
  <separator name="performance" >
   <i type="int" name="NPAR">    40</i>
   <i type="int" name="NSIM">     4</i>
   <i type="int" name="NBLK">    -1</i>
   <i type="logical" name="LPLANE"> F  </i>
   <i type="logical" name="LSCALAPACK"> T  </i>
   <i type="logical" name="LSCAAWARE"> F  </i>
   <i type="logical" name="LSCALU"> F  </i>
   <i type="logical" name="LASYNC"> F  </i>
   <i type="logical" name="LORBITALREAL"> F  </i>
  </separator>
  <separator name="miscellaneous" >
   <i type="int" name="IDIOT">     3</i>
   <i type="logical" name="LMUSIC"> F  </i>
   <v name="POMASS">     50.94100000     95.94000000    183.85000000     32.06600000</v>
   <v name="DARWINR">      0.00000000      0.00000000      0.00000000      0.00000000</v>
   <v name="DARWINV">      1.00000000      1.00000000      1.00000000      1.00000000</v>
   <i type="logical" name="LCORR"> T  </i>
  </separator>
  <i type="logical" name="GGA_COMPAT"> T  </i>
  <i type="logical" name="LBERRY"> F  </i>
  <i type="int" name="ICORELEVEL">     0</i>
  <i type="logical" name="LDAU"> F  </i>
  <i type="int" name="I_CONSTRAINED_M">     0</i>
  <separator name="electronic exchange-correlation" >
   <i type="string" name="GGA">--</i>
   <i type="int" name="VOSKOWN">     0</i>
   <i type="logical" name="LHFCALC"> F  </i>
   <i type="string" name="PRECFOCK"></i>
   <i type="logical" name="LSYMGRAD"> F  </i>
   <i type="logical" name="LHFONE"> F  </i>
   <i type="logical" name="LRHFCALC"> F  </i>
   <i type="logical" name="LTHOMAS"> F  </i>
   <i type="logical" name="LMODELHF"> F  </i>
   <i name="ENCUT4O">     -1.00000000</i>
   <i type="int" name="EXXOEP">     0</i>
   <i type="int" name="FOURORBIT">     0</i>
   <i name="AEXX">      0.00000000</i>
   <i name="HFALPHA">      0.00000000</i>
   <i name="MCALPHA">      0.00000000</i>
   <i name="ALDAX">      1.00000000</i>
   <i name="AGGAX">      1.00000000</i>
   <i name="ALDAC">      1.00000000</i>
   <i name="AGGAC">      1.00000000</i>
   <i type="int" name="NKREDX">     1</i>
   <i type="int" name="NKREDY">     1</i>
   <i type="int" name="NKREDZ">     1</i>
   <i type="logical" name="SHIFTRED"> F  </i>
   <i type="logical" name="ODDONLY"> F  </i>
   <i type="logical" name="EVENONLY"> F  </i>
   <i type="int" name="LMAXFOCK">     0</i>
   <i type="int" name="NMAXFOCKAE">     0</i>
   <i type="logical" name="LFOCKAEDFT"> F  </i>
   <i name="HFSCREEN">      0.00000000</i>
   <i name="HFSCREENC">      0.00000000</i>
   <i type="int" name="NBANDSGWLOW">     0</i>
  </separator>
  <separator name="vdW DFT" >
   <i type="logical" name="LUSE_VDW"> F  </i>
   <i name="Zab_VDW">     -0.84910000</i>
   <i name="PARAM1">      0.12340000</i>
   <i name="PARAM2">      1.00000000</i>
   <i name="PARAM3">      0.00000000</i>
  </separator>
  <separator name="model GW" >
   <i type="int" name="MODEL_GW">     0</i>
   <i name="MODEL_EPS0">     58.26239943</i>
   <i name="MODEL_ALPHA">      1.00000000</i>
  </separator>
  <separator name="linear response parameters" >
   <i type="logical" name="LEPSILON"> F  </i>
   <i type="logical" name="LRPA"> F  </i>
   <i type="logical" name="LNABLA"> F  </i>
   <i type="logical" name="LVEL"> F  </i>
   <i type="int" name="KINTER">     0</i>
   <i name="CSHIFT">      0.10000000</i>
   <i name="OMEGAMAX">     -1.00000000</i>
   <i name="DEG_THRESHOLD">      0.00200000</i>
  </separator>
  <separator name="orbital magnetization" >
   <i type="logical" name="NUCIND"> F  </i>
   <v name="MAGPOS">      0.00000000      0.00000000      0.00000000</v>
   <i type="logical" name="LNICSALL"> T  </i>
   <i type="logical" name="ORBITALMAG"> F  </i>
   <i type="logical" name="LMAGBLOCH"> F  </i>
   <i type="logical" name="LCHIMAG"> F  </i>
   <i type="logical" name="LGAUGE"> T  </i>
   <i type="int" name="MAGATOM">     0</i>
   <v name="MAGDIPOL">      0.00000000      0.00000000      0.00000000</v>
   <v name="AVECCONST">      0.00000000      0.00000000      0.00000000</v>
  </separator>
  <separator name="response functions" >
   <i type="logical" name="LADDER"> F  </i>
   <i type="logical" name="LFXC"> F  </i>
   <i type="logical" name="LHARTREE"> T  </i>
   <i type="int" name="IBSE">     0</i>
   <v type="int" name="KPOINT">    -1     0     0     0</v>
   <i type="logical" name="LTCTE"> F  </i>
   <i type="logical" name="LTETE"> F  </i>
   <i type="logical" name="LTRIPLET"> F  </i>
   <i type="logical" name="LFXCEPS"> F  </i>
   <i type="logical" name="LFXHEG"> F  </i>
   <i type="int" name="NATURALO">     0</i>
   <i type="logical" name="L2ORDER"> F  </i>
   <i type="logical" name="LUSEW"> F  </i>
   <i name="ENCUTGW">     -2.00000000</i>
   <i name="ENCUTGWSOFT">     -2.00000000</i>
   <i name="ENCUTLF">     -1.00000000</i>
   <i type="int" name="LMAXMP2">    -1</i>
   <i name="SCISSOR">      0.00000000</i>
   <i type="int" name="NOMEGA">     0</i>
   <i type="int" name="NOMEGAR">     0</i>
   <i type="int" name="NBANDSGW">    -1</i>
   <i type="int" name="NBANDSO">    -1</i>
   <i type="int" name="NBANDSV">    -1</i>
   <i type="int" name="NELM">     1</i>
   <i type="int" name="NELMHF">     1</i>
   <i type="int" name="DIM">     3</i>
   <i type="int" name="ANTIRES">     0</i>
   <i name="OMEGAMAX">    -30.00000000</i>
   <i name="OMEGAMIN">    -30.00000000</i>
   <i name="OMEGATL">   -200.00000000</i>
   <i type="int" name="OMEGAGRID">     0</i>
   <i name="CSHIFT">     -0.10000000</i>
   <i type="logical" name="SELFENERGY"> F  </i>
   <i type="logical" name="LSPECTRAL"> F  </i>
   <i type="logical" name="LSPECTRALGW"> F  </i>
   <i type="logical" name="LSINGLES"> F  </i>
   <i type="logical" name="LFERMIGW"> F  </i>
   <i type="logical" name="ODDONLYGW"> F  </i>
   <i type="logical" name="EVENONLYGW"> F  </i>
   <i type="int" name="NKREDLFX">     1</i>
   <i type="int" name="NKREDLFY">     1</i>
   <i type="int" name="NKREDLFZ">     1</i>
   <i type="int" name="MAXMEM">  1800</i>
   <i type="int" name="TELESCOPE">     0</i>
   <i type="int" name="TAUPAR">     1</i>
   <i type="int" name="OMEGAPAR">    -1</i>
   <i name="LAMBDA">      1.00000000</i>
  </separator>
  <separator name="External order field" >
   <i name="OFIELD_KAPPA">      0.00000000</i>
   <v name="OFIELD_K">      0.00000000      0.00000000      0.00000000</v>
   <i name="OFIELD_Q6_NEAR">      0.00000000</i>
   <i name="OFIELD_Q6_FAR">      0.00000000</i>
   <i name="OFIELD_A">      0.00000000</i>
  </separator>
 </parameters>
 <atominfo>
  <atoms>      27 </atoms>
  <types>       4 </types>
  <array name="atoms" >
   <dimension dim="1">ion</dimension>
   <field type="string">element</field>
   <field type="int">atomtype</field>
   <set>
    <rc><c>V </c><c>   1</c></rc>
    <rc><c>V </c><c>   1</c></rc>
    <rc><c>V </c><c>   1</c></rc>
    <rc><c>Mo</c><c>   2</c></rc>
    <rc><c>Mo</c><c>   2</c></rc>
    <rc><c>Mo</c><c>   2</c></rc>
    <rc><c>W </c><c>   3</c></rc>
    <rc><c>W </c><c>   3</c></rc>
    <rc><c>W </c><c>   3</c></rc>
    <rc><c>S </c><c>   4</c></rc>
    <rc><c>S </c><c>   4</c></rc>
    <rc><c>S </c><c>   4</c></rc>
    <rc><c>S </c><c>   4</c></rc>
    <rc><c>S </c><c>   4</c></rc>
    <rc><c>S </c><c>   4</c></rc>
    <rc><c>S </c><c>   4</c></rc>
    <rc><c>S </c><c>   4</c></rc>
    <rc><c>S </c><c>   4</c></rc>
    <rc><c>S </c><c>   4</c></rc>
    <rc><c>S </c><c>   4</c></rc>
    <rc><c>S </c><c>   4</c></rc>
    <rc><c>S </c><c>   4</c></rc>
    <rc><c>S </c><c>   4</c></rc>
    <rc><c>S </c><c>   4</c></rc>
    <rc><c>S </c><c>   4</c></rc>
    <rc><c>S </c><c>   4</c></rc>
    <rc><c>S </c><c>   4</c></rc>
   </set>
  </array>
  <array name="atomtypes" >
   <dimension dim="1">type</dimension>
   <field type="int">atomspertype</field>
   <field type="string">element</field>
   <field>mass</field>
   <field>valence</field>
   <field type="string">pseudopotential</field>
   <set>
    <rc><c>   3</c><c>V </c><c>     50.94100000</c><c>      5.00000000</c><c> PAW_PBE V 08Apr2002                    </c></rc>
    <rc><c>   3</c><c>Mo</c><c>     95.94000000</c><c>      6.00000000</c><c> PAW_PBE Mo 08Apr2002                   </c></rc>
    <rc><c>   3</c><c>W </c><c>    183.85000000</c><c>      6.00000000</c><c> PAW_PBE W 08Apr2002                    </c></rc>
    <rc><c>  18</c><c>S </c><c>     32.06600000</c><c>      6.00000000</c><c>  PAW_PBE S 17Jan2003                   </c></rc>
   </set>
  </array>
 </atominfo>
 <structure name="initialpos" >
  <crystal>
   <varray name="basis" >
    <v>       8.66999996       5.03999989       0.00000000 </v>
    <v>      -8.66999982       5.04000013       0.00000000 </v>
    <v>       0.00000000       0.00000000      30.00000000 </v>
   </varray>
   <i name="volume">   2621.80797419 </i>
   <varray name="rec_basis" >
    <v>       0.05767013       0.09920635       0.00000000 </v>
    <v>      -0.05767013       0.09920635       0.00000000 </v>
    <v>       0.00000000       0.00000000       0.03333333 </v>
   </varray>
  </crystal>
  <varray name="positions" >
   <v>       0.00000000       0.00000000       0.00000000 </v>
   <v>       1.00000000       0.33333334       0.00000000 </v>
   <v>       0.33333334       0.66666669       0.00000000 </v>
   <v>       0.33333334       0.00000000       0.00000000 </v>
   <v>       0.33333334       0.33333334       0.00000000 </v>
   <v>       0.66666669       0.00000000       0.00000000 </v>
   <v>       0.00000000       0.66666669       0.00000000 </v>
   <v>       0.66666669       0.33333334       0.00000000 </v>
   <v>       0.66666669       0.66666669       0.00000000 </v>
   <v>       0.11068511       0.22244981       0.95539999 </v>
   <v>       0.22244981       0.11068511       0.04460000 </v>
   <v>       0.11068511       0.55578315       0.95539999 </v>
   <v>       0.22244981       0.44401845       0.04460000 </v>
   <v>       0.11068511       0.88911647       0.95539999 </v>
   <v>       0.22244981       0.77735180       0.04460000 </v>
   <v>       0.44401845       0.22244981       0.95539999 </v>
   <v>       0.55578315       0.11068511       0.04460000 </v>
   <v>       0.44401845       0.55578315       0.95539999 </v>
   <v>       0.55578315       0.44401845       0.04460000 </v>
   <v>       0.44401845       0.88911647       0.95539999 </v>
   <v>       0.55578315       0.77735180       0.04460000 </v>
   <v>       0.77735180       0.22244981       0.95539999 </v>
   <v>       0.88911647       0.11068511       0.04460000 </v>
   <v>       0.77735180       0.55578315       0.95539999 </v>
   <v>       0.88911647       0.44401845       0.04460000 </v>
   <v>       0.77735180       0.88911647       0.95539999 </v>
   <v>       0.88911647       0.77735180       0.04460000 </v>
  </varray>
 </structure>
 <calculation>
  <scstep>
   <time name="dav">   21.63   21.68</time>
   <time name="total">   21.67   21.73</time>
   <energy>
    <i name="alphaZ">     81.65567618 </i>
    <i name="ewald">  41890.23010355 </i>
    <i name="hartreedc"> -47722.87379188 </i>
    <i name="XCdc">   -242.92723506 </i>
    <i name="pawpsdc">   3467.42045192 </i>
    <i name="pawaedc">  -2871.19716117 </i>
    <i name="eentropy">     -0.53200626 </i>
    <i name="bandstr">   -237.04311238 </i>
    <i name="atom">   6761.44252427 </i>
    <i name="e_fr_energy">   1126.17544917 </i>
    <i name="e_wo_entrp">   1126.70745543 </i>
    <i name="e_0_energy">   1126.44145230 </i>
   </energy>
  </scstep>
  <scstep>
   <time name="dav">   27.50   27.57</time>
   <time name="total">   27.51   27.58</time>
   <energy>
    <i name="e_fr_energy">      0.85206105 </i>
    <i name="e_wo_entrp">      1.03988771 </i>
    <i name="e_0_energy">      0.94597438 </i>
   </energy>
  </scstep>
  <scstep>
   <time name="dav">   27.45   27.51</time>
   <time name="total">   27.45   27.52</time>
   <energy>
    <i name="e_fr_energy">   -199.50158047 </i>
    <i name="e_wo_entrp">   -199.23133641 </i>
    <i name="e_0_energy">   -199.36645844 </i>
   </energy>
  </scstep>
  <scstep>
   <time name="dav">   29.41   29.48</time>
   <time name="total">   29.41   29.49</time>
   <energy>
    <i name="e_fr_energy">   -208.94066804 </i>
    <i name="e_wo_entrp">   -208.63176718 </i>
    <i name="e_0_energy">   -208.78621761 </i>
   </energy>
  </scstep>
  <scstep>
   <time name="dav">   28.95   29.02</time>
   <time name="total">   29.41   29.49</time>
   <energy>
    <i name="e_fr_energy">   -209.30673019 </i>
    <i name="e_wo_entrp">   -209.00098577 </i>
    <i name="e_0_energy">   -209.15385798 </i>
   </energy>
  </scstep>
  <scstep>
   <time name="dav">   30.69   30.76</time>
   <time name="total">   31.18   31.27</time>
   <energy>
    <i name="e_fr_energy">   -236.78687872 </i>
    <i name="e_wo_entrp">   -236.50468050 </i>
    <i name="e_0_energy">   -236.64577961 </i>
   </energy>
  </scstep>
  <scstep>
   <time name="dav">   32.61   32.69</time>
   <time name="total">   33.12   33.20</time>
   <energy>
    <i name="e_fr_energy">   -196.50216730 </i>
    <i name="e_wo_entrp">   -196.18609829 </i>
    <i name="e_0_energy">   -196.34413279 </i>
   </energy>
  </scstep>
  <scstep>
   <time name="dav">   29.60   29.68</time>
   <time name="total">   30.11   30.19</time>
   <energy>
    <i name="e_fr_energy">   -189.48312300 </i>
    <i name="e_wo_entrp">   -189.19367924 </i>
    <i name="e_0_energy">   -189.33840112 </i>
   </energy>
  </scstep>
  <scstep>
   <time name="dav">   30.70   30.77</time>
   <time name="total">   31.22   31.30</time>
   <energy>
    <i name="e_fr_energy">   -188.16867367 </i>
    <i name="e_wo_entrp">   -187.82821960 </i>
    <i name="e_0_energy">   -187.99844663 </i>
   </energy>
  </scstep>
  <scstep>
   <time name="dav">   32.87   32.95</time>
   <time name="total">   33.39   33.48</time>
   <energy>
    <i name="e_fr_energy">   -187.03352678 </i>
    <i name="e_wo_entrp">   -186.68703497 </i>
    <i name="e_0_energy">   -186.86028088 </i>
   </energy>
  </scstep>
  <scstep>
   <time name="dav">   30.30   30.37</time>
   <time name="total">   30.83   30.91</time>
   <energy>
    <i name="e_fr_energy">   -186.94222392 </i>
    <i name="e_wo_entrp">   -186.59112136 </i>
    <i name="e_0_energy">   -186.76667264 </i>
   </energy>
  </scstep>
  <scstep>
   <time name="dav">   30.76   30.84</time>
   <time name="total">   31.29   31.38</time>
   <energy>
    <i name="e_fr_energy">   -187.04845852 </i>
    <i name="e_wo_entrp">   -186.71142397 </i>
    <i name="e_0_energy">   -186.87994125 </i>
   </energy>
  </scstep>
  <scstep>
   <time name="dav">   31.07   31.14</time>
   <time name="total">   31.60   31.69</time>
   <energy>
    <i name="e_fr_energy">   -186.88137162 </i>
    <i name="e_wo_entrp">   -186.54282897 </i>
    <i name="e_0_energy">   -186.71210029 </i>
   </energy>
  </scstep>
  <scstep>
   <time name="dav">   32.02   32.09</time>
   <time name="total">   32.55   32.63</time>
   <energy>
    <i name="e_fr_energy">   -186.84573313 </i>
    <i name="e_wo_entrp">   -186.50048063 </i>
    <i name="e_0_energy">   -186.67310688 </i>
   </energy>
  </scstep>
  <scstep>
   <time name="dav">   29.83   29.91</time>
   <time name="total">   30.37   30.45</time>
   <energy>
    <i name="e_fr_energy">   -186.83982211 </i>
    <i name="e_wo_entrp">   -186.49283117 </i>
    <i name="e_0_energy">   -186.66632664 </i>
   </energy>
  </scstep>
  <scstep>
   <time name="dav">   30.73   30.80</time>
   <time name="total">   31.26   31.34</time>
   <energy>
    <i name="e_fr_energy">   -186.82957483 </i>
    <i name="e_wo_entrp">   -186.48239566 </i>
    <i name="e_0_energy">   -186.65598524 </i>
   </energy>
  </scstep>
  <scstep>
   <time name="dav">   31.01   31.09</time>
   <time name="total">   31.55   31.63</time>
   <energy>
    <i name="e_fr_energy">   -186.82745822 </i>
    <i name="e_wo_entrp">   -186.48219813 </i>
    <i name="e_0_energy">   -186.65482818 </i>
   </energy>
  </scstep>
  <scstep>
   <time name="dav">   29.34   29.41</time>
   <time name="total">   29.88   29.96</time>
   <energy>
    <i name="e_fr_energy">   -186.82711230 </i>
    <i name="e_wo_entrp">   -186.48174425 </i>
    <i name="e_0_energy">   -186.65442827 </i>
   </energy>
  </scstep>
  <scstep>
   <time name="dav">   25.92   25.98</time>
   <time name="total">   26.45   26.52</time>
   <energy>
    <i name="e_fr_energy">   -186.82676082 </i>
    <i name="e_wo_entrp">   -186.48101289 </i>
    <i name="e_0_energy">   -186.65388685 </i>
   </energy>
  </scstep>
  <scstep>
   <time name="dav">   24.24   24.30</time>
   <time name="total">   24.77   24.84</time>
   <energy>
    <i name="e_fr_energy">   -186.82735171 </i>
    <i name="e_wo_entrp">   -186.48165960 </i>
    <i name="e_0_energy">   -186.65450566 </i>
   </energy>
  </scstep>
  <scstep>
   <time name="dav">   23.54   23.60</time>
   <time name="total">   24.08   24.14</time>
   <energy>
    <i name="e_fr_energy">   -186.82800979 </i>
    <i name="e_wo_entrp">   -186.48258114 </i>
    <i name="e_0_energy">   -186.65529547 </i>
   </energy>
  </scstep>
  <scstep>
   <time name="dav">   20.52   20.57</time>
   <time name="total">   21.05   21.11</time>
   <energy>
    <i name="e_fr_energy">   -186.82919276 </i>
    <i name="e_wo_entrp">   -186.48361649 </i>
    <i name="e_0_energy">   -186.65640463 </i>
   </energy>
  </scstep>
  <scstep>
   <time name="dav">   20.35   20.40</time>
   <time name="total">   20.89   20.95</time>
   <energy>
    <i name="e_fr_energy">   -186.83045609 </i>
    <i name="e_wo_entrp">   -186.48498885 </i>
    <i name="e_0_energy">   -186.65772247 </i>
   </energy>
  </scstep>
  <scstep>
   <time name="dav">   18.69   18.74</time>
   <time name="total">   19.23   19.28</time>
   <energy>
    <i name="e_fr_energy">   -186.83105334 </i>
    <i name="e_wo_entrp">   -186.48557440 </i>
    <i name="e_0_energy">   -186.65831387 </i>
   </energy>
  </scstep>
  <scstep>
   <time name="dav">   16.55   16.59</time>
   <time name="total">   17.09   17.14</time>
   <energy>
    <i name="e_fr_energy">   -186.83143896 </i>
    <i name="e_wo_entrp">   -186.48591382 </i>
    <i name="e_0_energy">   -186.65867639 </i>
   </energy>
  </scstep>
  <scstep>
   <time name="dav">   19.02   19.07</time>
   <time name="total">   19.56   19.61</time>
   <energy>
    <i name="e_fr_energy">   -186.83165624 </i>
    <i name="e_wo_entrp">   -186.48614645 </i>
    <i name="e_0_energy">   -186.65890134 </i>
   </energy>
  </scstep>
  <scstep>
   <time name="dav">   19.21   19.26</time>
   <time name="total">   19.75   19.80</time>
   <energy>
    <i name="e_fr_energy">   -186.83176364 </i>
    <i name="e_wo_entrp">   -186.48625709 </i>
    <i name="e_0_energy">   -186.65901037 </i>
   </energy>
  </scstep>
  <scstep>
   <time name="dav">   20.02   20.06</time>
   <time name="total">   20.05   20.11</time>
   <energy>
    <i name="alphaZ">     81.65567618 </i>
    <i name="ewald">  41890.23010355 </i>
    <i name="hartreedc"> -47832.88096500 </i>
    <i name="XCdc">   -231.61131527 </i>
    <i name="pawpsdc">   4192.03330333 </i>
    <i name="pawaedc">  -3610.03628871 </i>
    <i name="eentropy">     -0.34550503 </i>
    <i name="bandstr">  -1437.31934221 </i>
    <i name="atom">   6761.44252427 </i>
    <i name="e_fr_energy">   -186.83180889 </i>
    <i name="e_wo_entrp">   -186.48630386 </i>
    <i name="e_0_energy">   -186.65905637 </i>
   </energy>
  </scstep>
  <structure>
   <crystal>
    <varray name="basis" >
     <v>       8.66999996       5.03999989       0.00000000 </v>
     <v>      -8.66999982       5.04000013       0.00000000 </v>
     <v>       0.00000000       0.00000000      30.00000000 </v>
    </varray>
    <i name="volume">   2621.80797419 </i>
    <varray name="rec_basis" >
     <v>       0.05767013       0.09920635       0.00000000 </v>
     <v>      -0.05767013       0.09920635       0.00000000 </v>
     <v>       0.00000000       0.00000000       0.03333333 </v>
    </varray>
   </crystal>
   <varray name="positions" >
    <v>       0.00000000       0.00000000       0.00000000 </v>
    <v>       1.00000000       0.33333334       0.00000000 </v>
    <v>       0.33333334       0.66666669       0.00000000 </v>
    <v>       0.33333334       0.00000000       0.00000000 </v>
    <v>       0.33333334       0.33333334       0.00000000 </v>
    <v>       0.66666669       0.00000000       0.00000000 </v>
    <v>       0.00000000       0.66666669       0.00000000 </v>
    <v>       0.66666669       0.33333334       0.00000000 </v>
    <v>       0.66666669       0.66666669       0.00000000 </v>
    <v>       0.11068511       0.22244981       0.95539999 </v>
    <v>       0.22244981       0.11068511       0.04460000 </v>
    <v>       0.11068511       0.55578315       0.95539999 </v>
    <v>       0.22244981       0.44401845       0.04460000 </v>
    <v>       0.11068511       0.88911647       0.95539999 </v>
    <v>       0.22244981       0.77735180       0.04460000 </v>
    <v>       0.44401845       0.22244981       0.95539999 </v>
    <v>       0.55578315       0.11068511       0.04460000 </v>
    <v>       0.44401845       0.55578315       0.95539999 </v>
    <v>       0.55578315       0.44401845       0.04460000 </v>
    <v>       0.44401845       0.88911647       0.95539999 </v>
    <v>       0.55578315       0.77735180       0.04460000 </v>
    <v>       0.77735180       0.22244981       0.95539999 </v>
    <v>       0.88911647       0.11068511       0.04460000 </v>
    <v>       0.77735180       0.55578315       0.95539999 </v>
    <v>       0.88911647       0.44401845       0.04460000 </v>
    <v>       0.77735180       0.88911647       0.95539999 </v>
    <v>       0.88911647       0.77735180       0.04460000 </v>
   </varray>
  </structure>
  <varray name="forces" >
   <v>      -0.07536774       0.26765408       0.10347725 </v>
   <v>       0.29836842      -0.07075182       0.03396934 </v>
   <v>       0.00635474       0.15275720      -0.08343772 </v>
   <v>       0.00404606       0.28338321      -0.12097484 </v>
   <v>       0.18320681      -0.16677720       0.07321632 </v>
   <v>      -0.24003955      -0.12923061      -0.01948104 </v>
   <v>       0.07559366       0.34171481      -0.04439575 </v>
   <v>       0.05344465      -0.64570656      -0.01878258 </v>
   <v>      -0.34589815      -0.13594265       0.08702432 </v>
   <v>      -0.32333499      -0.66514387      -1.43561996 </v>
   <v>      -0.55186106      -0.71403152       2.15057715 </v>
   <v>       0.74178747       0.02161426      -1.48522710 </v>
   <v>      -0.88841729      -0.00476808       1.43223232 </v>
   <v>      -0.64476479      -0.14169666      -2.10219104 </v>
   <v>       0.66021140      -0.15316701       2.09563188 </v>
   <v>       0.21657925       0.15037446      -2.94958605 </v>
   <v>      -0.19613671       0.18077458       2.93017885 </v>
   <v>      -0.69091492       0.14563784      -2.13700986 </v>
   <v>      -0.04497582       0.17415702       2.91038898 </v>
   <v>       0.52539245      -0.71537239      -2.16696458 </v>
   <v>      -0.34803721      -0.69125353       2.17118533 </v>
   <v>       0.35842486       0.70804136      -2.15675811 </v>
   <v>       0.34787244       0.67532873       1.43124669 </v>
   <v>       0.16163135      -0.01041764      -2.86482948 </v>
   <v>       0.57916555      -0.00011056       2.08513868 </v>
   <v>       0.61373284       0.55854405      -2.11950368 </v>
   <v>      -0.47606373       0.58438851       2.20049467 </v>
  </varray>
  <varray name="stress" >
   <v>       7.30395050       0.04591064      -1.53147062 </v>
   <v>       0.04591046       4.43596451      -0.00017181 </v>
   <v>      -1.53147064      -0.00017178      30.32799460 </v>
  </varray>
  <energy>
   <i name="e_fr_energy">   -186.83180889 </i>
   <i name="e_wo_entrp">   -186.65905637 </i>
   <i name="e_0_energy">     -0.34550503 </i>
  </energy>
  <time name="totalsc">  798.46  800.62</time>
 </calculation>
 <calculation>
  <scstep>
   <time name="dav">   21.56   21.61</time>
   <time name="total">   22.10   22.16</time>
   <energy>
    <i name="alphaZ">     78.92465202 </i>
    <i name="ewald">  39380.90968752 </i>
    <i name="hartreedc"> -45338.36534321 </i>
    <i name="XCdc">   -239.07001852 </i>
    <i name="pawpsdc">   4192.03467884 </i>
    <i name="pawaedc">  -3610.03765667 </i>
    <i name="eentropy">     -0.28728321 </i>
    <i name="bandstr">  -1413.01569546 </i>
    <i name="atom">   6761.44252427 </i>
    <i name="e_fr_energy">   -187.46445443 </i>
    <i name="e_wo_entrp">   -187.17717122 </i>
    <i name="e_0_energy">   -187.32081282 </i>
   </energy>
  </scstep>
  <scstep>
   <time name="dav">   30.08   30.16</time>
   <time name="total">   30.62   30.70</time>
   <energy>
    <i name="e_fr_energy">   -189.36319051 </i>
    <i name="e_wo_entrp">   -189.04241547 </i>
    <i name="e_0_energy">   -189.20280299 </i>
   </energy>
  </scstep>
  <scstep>
   <time name="dav">   30.48   30.55</time>
   <time name="total">   31.03   31.11</time>
   <energy>
    <i name="e_fr_energy">   -189.34355122 </i>
    <i name="e_wo_entrp">   -189.06293954 </i>
    <i name="e_0_energy">   -189.20324538 </i>
   </energy>
  </scstep>
  <scstep>
   <time name="dav">   30.95   31.02</time>
   <time name="total">   31.49   31.57</time>
   <energy>
    <i name="e_fr_energy">   -188.73989846 </i>
    <i name="e_wo_entrp">   -188.45401661 </i>
    <i name="e_0_energy">   -188.59695753 </i>
   </energy>
  </scstep>
  <scstep>
   <time name="dav">   27.61   27.68</time>
   <time name="total">   28.15   28.23</time>
   <energy>
    <i name="e_fr_energy">   -188.74523980 </i>
    <i name="e_wo_entrp">   -188.45638302 </i>
    <i name="e_0_energy">   -188.60081141 </i>
   </energy>
  </scstep>
  <scstep>
   <time name="dav">   27.99   28.06</time>
   <time name="total">   28.53   28.61</time>
   <energy>
    <i name="e_fr_energy">   -188.67134783 </i>
    <i name="e_wo_entrp">   -188.38460075 </i>
    <i name="e_0_energy">   -188.52797429 </i>
   </energy>
  </scstep>
  <scstep>
   <time name="dav">   29.56   29.64</time>
   <time name="total">   30.11   30.19</time>
   <energy>
    <i name="e_fr_energy">   -188.68716237 </i>
    <i name="e_wo_entrp">   -188.40044055 </i>
    <i name="e_0_energy">   -188.54380146 </i>
   </energy>
  </scstep>
  <scstep>
   <time name="dav">   31.97   32.04</time>
   <time name="total">   32.51   32.59</time>
   <energy>
    <i name="e_fr_energy">   -188.64792836 </i>
    <i name="e_wo_entrp">   -188.36267463 </i>
    <i name="e_0_energy">   -188.50530149 </i>
   </energy>
  </scstep>
  <scstep>
   <time name="dav">   27.79   27.86</time>
   <time name="total">   28.33   28.41</time>
   <energy>
    <i name="e_fr_energy">   -188.64468520 </i>
    <i name="e_wo_entrp">   -188.35942728 </i>
    <i name="e_0_energy">   -188.50205624 </i>
   </energy>
  </scstep>
  <scstep>
   <time name="dav">   32.94   33.02</time>
   <time name="total">   33.48   33.57</time>
   <energy>
    <i name="e_fr_energy">   -188.64446375 </i>
    <i name="e_wo_entrp">   -188.35879985 </i>
    <i name="e_0_energy">   -188.50163180 </i>
   </energy>
  </scstep>
  <scstep>
   <time name="dav">   31.52   31.60</time>
   <time name="total">   32.06   32.14</time>
   <energy>
    <i name="e_fr_energy">   -188.64347876 </i>
    <i name="e_wo_entrp">   -188.35898033 </i>
    <i name="e_0_energy">   -188.50122954 </i>
   </energy>
  </scstep>
  <scstep>
   <time name="dav">   30.15   30.23</time>
   <time name="total">   30.69   30.78</time>
   <energy>
    <i name="e_fr_energy">   -188.64352130 </i>
    <i name="e_wo_entrp">   -188.35883221 </i>
    <i name="e_0_energy">   -188.50117676 </i>
   </energy>
  </scstep>
  <scstep>
   <time name="dav">   20.75   20.80</time>
   <time name="total">   20.78   20.84</time>
   <energy>
    <i name="alphaZ">     78.92465202 </i>
    <i name="ewald">  39380.90968752 </i>
    <i name="hartreedc"> -45349.21892600 </i>
    <i name="XCdc">   -237.97941944 </i>
    <i name="pawpsdc">   3950.37895773 </i>
    <i name="pawaedc">  -3364.88338081 </i>
    <i name="eentropy">     -0.28472330 </i>
    <i name="bandstr">  -1407.93280385 </i>
    <i name="atom">   6761.44252427 </i>
    <i name="e_fr_energy">   -188.64343187 </i>
    <i name="e_wo_entrp">   -188.35870858 </i>
    <i name="e_0_energy">   -188.50107023 </i>
   </energy>
  </scstep>
  <structure>
   <crystal>
    <varray name="basis" >
     <v>       8.85583117       5.10653340       0.00000000 </v>
     <v>      -8.85447793       5.10420598       0.00000000 </v>
     <v>       0.00000000       0.00000000      30.00000000 </v>
    </varray>
    <i name="volume">   2712.53021039 </i>
    <varray name="rec_basis" >
     <v>       0.05645142       0.09792862       0.00000000 </v>
     <v>      -0.05647716       0.09794359       0.00000000 </v>
     <v>       0.00000000       0.00000000       0.03333333 </v>
    </varray>
   </crystal>
   <varray name="positions" >
    <v>       0.00107130       0.00149067       0.00016640 </v>
    <v>       1.00049149       0.33216462       0.00005463 </v>
    <v>       0.33408212       0.66738010      -0.00013418 </v>
    <v>       0.33470087       0.00134501      -0.00019454 </v>
    <v>       0.33304486       0.33202544       0.00011774 </v>
    <v>       0.66538036       0.00004933      -0.00003133 </v>
    <v>       0.00184575       0.66809181      -0.00007139 </v>
    <v>       0.66372504       0.33009431      -0.00003020 </v>
    <v>       0.66505372       0.66697841       0.00013994 </v>
    <v>       0.10660218       0.22016602       0.95309139 </v>
    <v>       0.21749710       0.10880314       0.04805832 </v>
    <v>       0.11285233       0.55382283       0.95301161 </v>
    <v>       0.21995527       0.44646735       0.04690316 </v>
    <v>       0.10821311       0.89023215       0.95201948 </v>
    <v>       0.22355357       0.77478193       0.04796996 </v>
    <v>       0.44534070       0.22256694       0.95065679 </v>
    <v>       0.55610265       0.11209598       0.04931199 </v>
    <v>       0.44279324       0.55840241       0.95196349 </v>
    <v>       0.55649153       0.44497709       0.04928016 </v>
    <v>       0.44205642       0.88423098       0.95191532 </v>
    <v>       0.55150653       0.77501177       0.04809146 </v>
    <v>       0.78173766       0.22484128       0.95193173 </v>
    <v>       0.89331641       0.11294938       0.04690157 </v>
    <v>       0.77775162       0.55528361       0.95079309 </v>
    <v>       0.89072727       0.44240659       0.04795309 </v>
    <v>       0.78173248       0.89008214       0.95199164 </v>
    <v>       0.89058885       0.78147315       0.04813859 </v>
   </varray>
  </structure>
  <varray name="forces" >
   <v>      -0.00372212       0.16173836       0.04884077 </v>
   <v>       0.18951605      -0.05756080       0.09966414 </v>
   <v>       0.00678314       0.16185704      -0.02667413 </v>
   <v>       0.00917360       0.48621907      -0.03095925 </v>
   <v>       0.44769875       0.04416879       0.09018068 </v>
   <v>      -0.34555743      -0.15641263      -0.08608528 </v>
   <v>      -0.04814017       0.25368820       0.00066640 </v>
   <v>      -0.05425972      -0.71736391      -0.01101843 </v>
   <v>      -0.16841420      -0.12273341      -0.07144240 </v>
   <v>      -0.00651602      -0.03832223       0.00523607 </v>
   <v>      -0.02377366      -0.07702859       0.08487810 </v>
   <v>      -0.09212156       0.01562896       0.12320159 </v>
   <v>      -0.03317110      -0.00778304      -0.16440882 </v>
   <v>       0.01792452      -0.09919729       0.00068875 </v>
   <v>      -0.02233594      -0.10588991      -0.04418469 </v>
   <v>       0.05659588       0.09306556      -0.28062948 </v>
   <v>      -0.06098625       0.09473278       0.23803010 </v>
   <v>       0.00631200       0.09184729       0.00892723 </v>
   <v>       0.09110751       0.12230233       0.03375714 </v>
   <v>       0.02614731      -0.07724931      -0.12453869 </v>
   <v>       0.09419869      -0.06871613       0.05843829 </v>
   <v>      -0.10250207       0.05890414       0.03649208 </v>
   <v>       0.00617111       0.04330836      -0.05216170 </v>
   <v>      -0.01275992      -0.01159253       0.25770259 </v>
   <v>      -0.10113753       0.00591000      -0.23877918 </v>
   <v>       0.08188282      -0.04996717       0.14638784 </v>
   <v>       0.04188629      -0.04355395      -0.10220970 </v>
  </varray>
  <varray name="stress" >
   <v>     -19.88722522      -0.00933231       0.01216799 </v>
   <v>      -0.00933218     -19.47272691      -0.02020409 </v>
   <v>       0.01216800      -0.02020403      -1.75076125 </v>
  </varray>
  <energy>
   <i name="e_fr_energy">   -188.64343187 </i>
   <i name="e_wo_entrp">   -188.50107023 </i>
   <i name="e_0_energy">     -0.28472330 </i>
  </energy>
  <time name="totalsc">  421.62  422.74</time>
 </calculation>
 <calculation>
  <scstep>
   <time name="dav">   23.79   23.85</time>
   <time name="total">   24.32   24.38</time>
   <energy>
    <i name="alphaZ">     82.35069569 </i>
    <i name="ewald">  41305.25005891 </i>
    <i name="hartreedc"> -47304.12684131 </i>
    <i name="XCdc">   -233.85461612 </i>
    <i name="pawpsdc">   3949.82446131 </i>
    <i name="pawaedc">  -3364.32406072 </i>
    <i name="eentropy">     -0.23751109 </i>
    <i name="bandstr">  -1386.88819036 </i>
    <i name="atom">   6761.44252427 </i>
    <i name="e_fr_energy">   -190.56347942 </i>
    <i name="e_wo_entrp">   -190.32596833 </i>
    <i name="e_0_energy">   -190.44472387 </i>
   </energy>
  </scstep>
  <scstep>
   <time name="dav">   28.26   28.33</time>
   <time name="total">   28.78   28.86</time>
   <energy>
    <i name="e_fr_energy">   -190.55088436 </i>
    <i name="e_wo_entrp">   -190.30819262 </i>
    <i name="e_0_energy">   -190.42953849 </i>
   </energy>
  </scstep>
  <scstep>
   <time name="dav">   30.24   30.31</time>
   <time name="total">   30.76   30.85</time>
   <energy>
    <i name="e_fr_energy">   -190.03777845 </i>
    <i name="e_wo_entrp">   -189.78919547 </i>
    <i name="e_0_energy">   -189.91348696 </i>
   </energy>
  </scstep>
  <scstep>
   <time name="dav">   31.11   31.18</time>
   <time name="total">   31.63   31.72</time>
   <energy>
    <i name="e_fr_energy">   -189.83240656 </i>
    <i name="e_wo_entrp">   -189.59246333 </i>
    <i name="e_0_energy">   -189.71243495 </i>
   </energy>
  </scstep>
  <scstep>
   <time name="dav">   28.71   28.78</time>
   <time name="total">   29.24   29.32</time>
   <energy>
    <i name="e_fr_energy">   -189.74500872 </i>
    <i name="e_wo_entrp">   -189.50309051 </i>
    <i name="e_0_energy">   -189.62404961 </i>
   </energy>
  </scstep>
  <scstep>
   <time name="dav">   26.64   26.71</time>
   <time name="total">   27.17   27.25</time>
   <energy>
    <i name="e_fr_energy">   -189.72985887 </i>
    <i name="e_wo_entrp">   -189.48886978 </i>
    <i name="e_0_energy">   -189.60936432 </i>
   </energy>
  </scstep>
  <scstep>
   <time name="dav">   30.26   30.33</time>
   <time name="total">   30.79   30.87</time>
   <energy>
    <i name="e_fr_energy">   -189.73149226 </i>
    <i name="e_wo_entrp">   -189.48993251 </i>
    <i name="e_0_energy">   -189.61071239 </i>
   </energy>
  </scstep>
  <scstep>
   <time name="dav">   30.15   30.22</time>
   <time name="total">   30.68   30.76</time>
   <energy>
    <i name="e_fr_energy">   -189.73024842 </i>
    <i name="e_wo_entrp">   -189.48939114 </i>
    <i name="e_0_energy">   -189.60981978 </i>
   </energy>
  </scstep>
  <scstep>
   <time name="dav">   25.51   25.57</time>
   <time name="total">   26.04   26.11</time>
   <energy>
    <i name="e_fr_energy">   -189.73026754 </i>
    <i name="e_wo_entrp">   -189.48908337 </i>
    <i name="e_0_energy">   -189.60967545 </i>
   </energy>
  </scstep>
  <scstep>
   <time name="dav">   26.65   26.71</time>
   <time name="total">   26.68   26.76</time>
   <energy>
    <i name="alphaZ">     82.35069569 </i>
    <i name="ewald">  41305.25005891 </i>
    <i name="hartreedc"> -47277.19171588 </i>
    <i name="XCdc">   -235.24344076 </i>
    <i name="pawpsdc">   4037.10789260 </i>
    <i name="pawaedc">  -3452.79695272 </i>
    <i name="eentropy">     -0.24108088 </i>
    <i name="bandstr">  -1410.40828615 </i>
    <i name="atom">   6761.44252427 </i>
    <i name="e_fr_energy">   -189.73030492 </i>
    <i name="e_wo_entrp">   -189.48922404 </i>
    <i name="e_0_energy">   -189.60976448 </i>
   </energy>
  </scstep>
  <structure>
   <crystal>
    <varray name="basis" >
     <v>       8.66764803       5.00022356       0.00000000 </v>
     <v>      -8.66642533       4.99812111       0.00000000 </v>
     <v>       0.00000000       0.00000000      30.00000000 </v>
    </varray>
    <i name="volume">   2599.68056306 </i>
    <varray name="rec_basis" >
     <v>       0.05767771       0.10000950       0.00000000 </v>
     <v>      -0.05770198       0.10002361       0.00000000 </v>
     <v>       0.00000000       0.00000000       0.03333333 </v>
    </varray>
   </crystal>
   <varray name="positions" >
    <v>       0.00133755       0.00176412       0.00019414 </v>
    <v>       1.00057772       0.33188624       0.00011122 </v>
    <v>       0.33435866       0.66764364      -0.00014932 </v>
    <v>       0.33552084       0.00214746      -0.00021212 </v>
    <v>       0.33354909       0.33166839       0.00016895 </v>
    <v>       0.66478710       0.00012082      -0.00008021 </v>
    <v>       0.00222268       0.66856142      -0.00007101 </v>
    <v>       0.66247610       0.32894957      -0.00003646 </v>
    <v>       0.66468701       0.66693566       0.00009937 </v>
    <v>       0.10653198       0.22010834       0.95309436 </v>
    <v>       0.21734574       0.10869749       0.04810652 </v>
    <v>       0.11278981       0.55393754       0.95308157 </v>
    <v>       0.21991039       0.44648628       0.04680979 </v>
    <v>       0.10806486       0.89004939       0.95201987 </v>
    <v>       0.22335543       0.77462674       0.04794487 </v>
    <v>       0.44555039       0.22266777       0.95049744 </v>
    <v>       0.55620204       0.11231272       0.04944715 </v>
    <v>       0.44295253       0.55854959       0.95196856 </v>
    <v>       0.55678319       0.44509350       0.04929933 </v>
    <v>       0.44195270       0.88407693       0.95184460 </v>
    <v>       0.55148249       0.77480648       0.04812464 </v>
    <v>       0.78173736       0.22503819       0.95195245 </v>
    <v>       0.89339460       0.11301571       0.04687195 </v>
    <v>       0.77772001       0.55527654       0.95093943 </v>
    <v>       0.89063986       0.44251376       0.04781749 </v>
    <v>       0.78172787       0.88991999       0.95207477 </v>
    <v>       0.89055647       0.78136018       0.04808055 </v>
   </varray>
  </structure>
  <varray name="forces" >
   <v>       0.04023184       0.10684441       0.02344971 </v>
   <v>       0.14234718      -0.05137769       0.09267140 </v>
   <v>       0.01240314       0.18521894      -0.00488839 </v>
   <v>       0.01118992       0.53552628      -0.00288597 </v>
   <v>       0.52330885       0.11721998       0.06749403 </v>
   <v>      -0.37404516      -0.18473001      -0.07626829 </v>
   <v>      -0.08408633       0.22668131       0.01481312 </v>
   <v>      -0.10289444      -0.72796102      -0.00514587 </v>
   <v>      -0.11886675      -0.13239084      -0.08765518 </v>
   <v>      -0.03486208      -0.08619288      -0.43937648 </v>
   <v>      -0.04244826      -0.13804530       0.58194808 </v>
   <v>       0.07847622       0.01443727      -0.34225705 </v>
   <v>      -0.10114004       0.00442706       0.26959949 </v>
   <v>      -0.09643602      -0.00498130      -0.50282156 </v>
   <v>       0.08950322      -0.01303848       0.44783185 </v>
   <v>       0.00717533       0.01354348      -0.87255443 </v>
   <v>      -0.01489473       0.00993941       0.81611308 </v>
   <v>      -0.10736327       0.00009321      -0.48905488 </v>
   <v>       0.06041571       0.06427869       0.60249556 </v>
   <v>       0.05560566      -0.14990499      -0.62736871 </v>
   <v>      -0.04143910      -0.13006824       0.56537316 </v>
   <v>       0.01456654       0.12507751      -0.46211396 </v>
   <v>       0.03041955       0.08628120       0.39354979 </v>
   <v>      -0.00239956      -0.02429263      -0.27133648 </v>
   <v>       0.03097436      -0.00963427       0.23780952 </v>
   <v>       0.06791023       0.08662651      -0.33922677 </v>
   <v>      -0.04365200       0.07642239       0.40980527 </v>
  </varray>
  <varray name="stress" >
   <v>     -10.15147922      -0.00858664      -0.00575303 </v>
   <v>      -0.00858645      -9.82749399      -0.02361690 </v>
   <v>      -0.00575297      -0.02361687       6.58953264 </v>
  </varray>
  <energy>
   <i name="e_fr_energy">   -189.73030492 </i>
   <i name="e_wo_entrp">   -189.60976448 </i>
   <i name="e_0_energy">     -0.24108088 </i>
  </energy>
  <time name="totalsc">  328.09  328.96</time>
 </calculation>
 <calculation>
  <scstep>
   <time name="dav">   21.59   21.65</time>
   <time name="total">   22.11   22.17</time>
   <energy>
    <i name="alphaZ">     85.83342094 </i>
    <i name="ewald">  42838.19493219 </i>
    <i name="hartreedc"> -48854.62354283 </i>
    <i name="XCdc">   -232.95563785 </i>
    <i name="pawpsdc">   4037.83933105 </i>
    <i name="pawaedc">  -3453.53464762 </i>
    <i name="eentropy">     -0.20224295 </i>
    <i name="bandstr">  -1373.28738962 </i>
    <i name="atom">   6761.44252427 </i>
    <i name="e_fr_energy">   -191.29325243 </i>
    <i name="e_wo_entrp">   -191.09100948 </i>
    <i name="e_0_energy">   -191.19213095 </i>
   </energy>
  </scstep>
  <scstep>
   <time name="dav">   31.90   31.97</time>
   <time name="total">   32.41   32.49</time>
   <energy>
    <i name="e_fr_energy">   -191.19328935 </i>
    <i name="e_wo_entrp">   -190.98277224 </i>
    <i name="e_0_energy">   -191.08803080 </i>
   </energy>
  </scstep>
  <scstep>
   <time name="dav">   29.81   29.88</time>
   <time name="total">   30.32   30.40</time>
   <energy>
    <i name="e_fr_energy">   -191.19844292 </i>
    <i name="e_wo_entrp">   -190.98097297 </i>
    <i name="e_0_energy">   -191.08970794 </i>
   </energy>
  </scstep>
  <scstep>
   <time name="dav">   31.12   31.20</time>
   <time name="total">   31.64   31.73</time>
   <energy>
    <i name="e_fr_energy">   -190.86441641 </i>
    <i name="e_wo_entrp">   -190.65264984 </i>
    <i name="e_0_energy">   -190.75853312 </i>
   </energy>
  </scstep>
  <scstep>
   <time name="dav">   29.32   29.39</time>
   <time name="total">   29.83   29.91</time>
   <energy>
    <i name="e_fr_energy">   -190.85104906 </i>
    <i name="e_wo_entrp">   -190.64620085 </i>
    <i name="e_0_energy">   -190.74862496 </i>
   </energy>
  </scstep>
  <scstep>
   <time name="dav">   29.95   30.03</time>
   <time name="total">   30.47   30.55</time>
   <energy>
    <i name="e_fr_energy">   -190.71246348 </i>
    <i name="e_wo_entrp">   -190.50203222 </i>
    <i name="e_0_energy">   -190.60724785 </i>
   </energy>
  </scstep>
  <scstep>
   <time name="dav">   30.50   30.58</time>
   <time name="total">   31.02   31.10</time>
   <energy>
    <i name="e_fr_energy">   -190.70381267 </i>
    <i name="e_wo_entrp">   -190.49508903 </i>
    <i name="e_0_energy">   -190.59945085 </i>
   </energy>
  </scstep>
  <scstep>
   <time name="dav">   25.79   25.85</time>
   <time name="total">   26.30   26.38</time>
   <energy>
    <i name="e_fr_energy">   -190.70104856 </i>
    <i name="e_wo_entrp">   -190.49211273 </i>
    <i name="e_0_energy">   -190.59658065 </i>
   </energy>
  </scstep>
  <scstep>
   <time name="dav">   28.50   28.57</time>
   <time name="total">   29.02   29.09</time>
   <energy>
    <i name="e_fr_energy">   -190.70121287 </i>
    <i name="e_wo_entrp">   -190.49230813 </i>
    <i name="e_0_energy">   -190.59676050 </i>
   </energy>
  </scstep>
  <scstep>
   <time name="dav">   26.91   26.98</time>
   <time name="total">   27.43   27.51</time>
   <energy>
    <i name="e_fr_energy">   -190.70113310 </i>
    <i name="e_wo_entrp">   -190.49212050 </i>
    <i name="e_0_energy">   -190.59662680 </i>
   </energy>
  </scstep>
  <scstep>
   <time name="dav">   26.07   26.13</time>
   <time name="total">   26.58   26.66</time>
   <energy>
    <i name="e_fr_energy">   -190.70095886 </i>
    <i name="e_wo_entrp">   -190.49210282 </i>
    <i name="e_0_energy">   -190.59653084 </i>
   </energy>
  </scstep>
  <scstep>
   <time name="dav">   21.46   21.51</time>
   <time name="total">   21.50   21.56</time>
   <energy>
    <i name="alphaZ">     85.83342094 </i>
    <i name="ewald">  42838.19493219 </i>
    <i name="hartreedc"> -48826.39560273 </i>
    <i name="XCdc">   -234.28643742 </i>
    <i name="pawpsdc">   4063.77159177 </i>
    <i name="pawaedc">  -3479.65419142 </i>
    <i name="eentropy">     -0.20889601 </i>
    <i name="bandstr">  -1399.39828567 </i>
    <i name="atom">   6761.44252427 </i>
    <i name="e_fr_energy">   -190.70094408 </i>
    <i name="e_wo_entrp">   -190.49204807 </i>
    <i name="e_0_energy">   -190.59649608 </i>
   </energy>
  </scstep>
  <structure>
   <crystal>
    <varray name="basis" >
     <v>       8.48543389       4.90001166       0.00000000 </v>
     <v>      -8.48453340       4.89846533       0.00000000 </v>
     <v>       0.00000000       0.00000000      30.00000000 </v>
    </varray>
    <i name="volume">   2494.19748853 </i>
    <varray name="rec_basis" >
     <v>       0.05891833       0.10205126       0.00000000 </v>
     <v>      -0.05893693       0.10206209       0.00000000 </v>
     <v>       0.00000000       0.00000000       0.03333333 </v>
    </varray>
   </crystal>
   <varray name="positions" >
    <v>       0.00207896       0.00208829       0.00022116 </v>
    <v>       1.00071796       0.33113259       0.00029724 </v>
    <v>       0.33563067       0.66880996      -0.00014096 </v>
    <v>       0.33904349       0.00558387      -0.00019428 </v>
    <v>       0.33646642       0.33058394       0.00028950 </v>
    <v>       0.66216552       0.00028605      -0.00022986 </v>
    <v>       0.00322042       0.67027079      -0.00002833 </v>
    <v>       0.65744534       0.32480213      -0.00004214 </v>
    <v>       0.66347465       0.66644039      -0.00009594 </v>
    <v>       0.10570566       0.21961554       0.95180701 </v>
    <v>       0.21614814       0.10786042       0.04973368 </v>
    <v>       0.11340619       0.55349597       0.95197770 </v>
    <v>       0.21950525       0.44700799       0.04773649 </v>
    <v>       0.10775553       0.89076626       0.95055113 </v>
    <v>       0.22398948       0.77429201       0.04928996 </v>
    <v>       0.44539195       0.22259950       0.94818785 </v>
    <v>       0.55606535       0.11215122       0.05162809 </v>
    <v>       0.44217289       0.55887314       0.95053303 </v>
    <v>       0.55721572       0.44517737       0.05102987 </v>
    <v>       0.44107541       0.88271267       0.95011846 </v>
    <v>       0.55016962       0.77418308       0.04972585 </v>
    <v>       0.78290713       0.22576621       0.95057219 </v>
    <v>       0.89418731       0.11351880       0.04806531 </v>
    <v>       0.77754231       0.55508639       0.94992850 </v>
    <v>       0.89084256       0.44211265       0.04871447 </v>
    <v>       0.78283674       0.89057803       0.95096007 </v>
    <v>       0.89105380       0.78241921       0.04936384 </v>
   </varray>
  </structure>
  <varray name="forces" >
   <v>       0.08879603       0.03090197      -0.03459458 </v>
   <v>       0.11268158      -0.03037862       0.04977905 </v>
   <v>       0.01651550       0.16850637       0.03615172 </v>
   <v>      -0.01754799       0.54699355       0.02170070 </v>
   <v>       0.56753272       0.14622822       0.01323298 </v>
   <v>      -0.37866005      -0.16938188      -0.04043036 </v>
   <v>      -0.08730925       0.28471444       0.01664317 </v>
   <v>      -0.12933709      -0.73277614      -0.00012900 </v>
   <v>      -0.10433921      -0.13006255      -0.06561565 </v>
   <v>       0.03645560       0.01416404      -0.27805473 </v>
   <v>       0.01942365      -0.00981436       0.42016664 </v>
   <v>       0.05133551       0.01022474      -0.25796024 </v>
   <v>       0.05017781       0.01568176       0.18551185 </v>
   <v>      -0.02596627       0.08569861      -0.32154996 </v>
   <v>       0.00137517       0.07166219       0.27381701 </v>
   <v>       0.00210260      -0.04598233      -0.71494519 </v>
   <v>       0.00514276      -0.03534593       0.62473201 </v>
   <v>      -0.02939222      -0.07148633      -0.33031538 </v>
   <v>       0.04870072       0.01786154       0.44809203 </v>
   <v>      -0.03215036      -0.05222693      -0.49199674 </v>
   <v>      -0.05071468      -0.03806072       0.36664155 </v>
   <v>      -0.01552682       0.00949684      -0.29396755 </v>
   <v>      -0.01504301      -0.02806332       0.28979722 </v>
   <v>       0.04415392      -0.07647015      -0.09576521 </v>
   <v>      -0.03376151      -0.07141735       0.06821506 </v>
   <v>      -0.04206309       0.04564680      -0.17904858 </v>
   <v>      -0.08258204       0.04368555       0.28989217 </v>
  </varray>
  <varray name="stress" >
   <v>      -5.73880487       0.06926907      -0.03634320 </v>
   <v>       0.06926913      -5.65848286       0.04962085 </v>
   <v>      -0.03634320       0.04962097       4.48930781 </v>
  </varray>
  <energy>
   <i name="e_fr_energy">   -190.70094408 </i>
   <i name="e_wo_entrp">   -190.59649608 </i>
   <i name="e_0_energy">     -0.20889601 </i>
  </energy>
  <time name="totalsc">  380.40  381.42</time>
 </calculation>
 <calculation>
  <scstep>
   <time name="dav">   21.57   21.62</time>
   <time name="total">   22.08   22.13</time>
   <energy>
    <i name="alphaZ">     90.12573942 </i>
    <i name="ewald">  44641.35912311 </i>
    <i name="hartreedc"> -50684.23755420 </i>
    <i name="XCdc">   -231.87631763 </i>
    <i name="pawpsdc">   4063.72004500 </i>
    <i name="pawaedc">  -3479.59714138 </i>
    <i name="eentropy">     -0.19262202 </i>
    <i name="bandstr">  -1352.76171771 </i>
    <i name="atom">   6761.44252427 </i>
    <i name="e_fr_energy">   -192.01792113 </i>
    <i name="e_wo_entrp">   -191.82529911 </i>
    <i name="e_0_energy">   -191.92161012 </i>
   </energy>
  </scstep>
  <scstep>
   <time name="dav">   30.06   30.13</time>
   <time name="total">   30.56   30.64</time>
   <energy>
    <i name="e_fr_energy">   -191.87884481 </i>
    <i name="e_wo_entrp">   -191.67386900 </i>
    <i name="e_0_energy">   -191.77635691 </i>
   </energy>
  </scstep>
  <scstep>
   <time name="dav">   28.28   28.35</time>
   <time name="total">   28.79   29.18</time>
   <energy>
    <i name="e_fr_energy">   -192.20306527 </i>
    <i name="e_wo_entrp">   -191.99578627 </i>
    <i name="e_0_energy">   -192.09942577 </i>
   </energy>
  </scstep>
  <scstep>
   <time name="dav">   29.67   29.74</time>
   <time name="total">   30.18   30.26</time>
   <energy>
    <i name="e_fr_energy">   -191.57643372 </i>
    <i name="e_wo_entrp">   -191.37224330 </i>
    <i name="e_0_energy">   -191.47433851 </i>
   </energy>
  </scstep>
  <scstep>
   <time name="dav">   29.98   30.05</time>
   <time name="total">   30.49   30.57</time>
   <energy>
    <i name="e_fr_energy">   -191.50992370 </i>
    <i name="e_wo_entrp">   -191.31432089 </i>
    <i name="e_0_energy">   -191.41212229 </i>
   </energy>
  </scstep>
  <scstep>
   <time name="dav">   29.98   30.05</time>
   <time name="total">   30.49   30.57</time>
   <energy>
    <i name="e_fr_energy">   -191.33306721 </i>
    <i name="e_wo_entrp">   -191.13086716 </i>
    <i name="e_0_energy">   -191.23196719 </i>
   </energy>
  </scstep>
  <scstep>
   <time name="dav">   29.98   30.05</time>
   <time name="total">   30.49   30.57</time>
   <energy>
    <i name="e_fr_energy">   -191.32652468 </i>
    <i name="e_wo_entrp">   -191.12534287 </i>
    <i name="e_0_energy">   -191.22593378 </i>
   </energy>
  </scstep>
  <scstep>
   <time name="dav">   29.41   29.48</time>
   <time name="total">   29.92   30.00</time>
   <energy>
    <i name="e_fr_energy">   -191.32487316 </i>
    <i name="e_wo_entrp">   -191.12398322 </i>
    <i name="e_0_energy">   -191.22442819 </i>
   </energy>
  </scstep>
  <scstep>
   <time name="dav">   29.23   29.30</time>
   <time name="total">   29.73   29.81</time>
   <energy>
    <i name="e_fr_energy">   -191.32088690 </i>
    <i name="e_wo_entrp">   -191.11964919 </i>
    <i name="e_0_energy">   -191.22026804 </i>
   </energy>
  </scstep>
  <scstep>
   <time name="dav">   27.38   27.44</time>
   <time name="total">   27.88   27.96</time>
   <energy>
    <i name="e_fr_energy">   -191.32132347 </i>
    <i name="e_wo_entrp">   -191.12022727 </i>
    <i name="e_0_energy">   -191.22077537 </i>
   </energy>
  </scstep>
  <scstep>
   <time name="dav">   28.12   28.18</time>
   <time name="total">   28.62   28.70</time>
   <energy>
    <i name="e_fr_energy">   -191.32108792 </i>
    <i name="e_wo_entrp">   -191.11997095 </i>
    <i name="e_0_energy">   -191.22052944 </i>
   </energy>
  </scstep>
  <scstep>
   <time name="dav">   18.40   18.44</time>
   <time name="total">   18.44   18.49</time>
   <energy>
    <i name="alphaZ">     90.12573942 </i>
    <i name="ewald">  44641.35912311 </i>
    <i name="hartreedc"> -50650.96651598 </i>
    <i name="XCdc">   -233.37796104 </i>
    <i name="pawpsdc">   4084.63276354 </i>
    <i name="pawaedc">  -3500.59624339 </i>
    <i name="eentropy">     -0.20115440 </i>
    <i name="bandstr">  -1383.73936556 </i>
    <i name="atom">   6761.44252427 </i>
    <i name="e_fr_energy">   -191.32109002 </i>
    <i name="e_wo_entrp">   -191.11993562 </i>
    <i name="e_0_energy">   -191.22051282 </i>
   </energy>
  </scstep>
  <structure>
   <crystal>
    <varray name="basis" >
     <v>       8.28054041       4.78673251       0.00000000 </v>
     <v>      -8.27566476       4.77830049       0.00000000 </v>
     <v>       0.00000000       0.00000000      30.00000000 </v>
    </varray>
    <i name="volume">   2375.40911515 </i>
    <varray name="rec_basis" >
     <v>       0.06034708       0.10451671       0.00000000 </v>
     <v>      -0.06045358       0.10457829       0.00000000 </v>
     <v>       0.00000000       0.00000000       0.03333333 </v>
    </varray>
   </crystal>
   <varray name="positions" >
    <v>       0.00307692       0.00178228       0.00008963 </v>
    <v>       1.00107497       0.32999944       0.00051124 </v>
    <v>       0.33790398       0.67083999       0.00000228 </v>
    <v>       0.34575059       0.01247770      -0.00009370 </v>
    <v>       0.34249478       0.32844616       0.00034888 </v>
    <v>       0.65727990       0.00082401      -0.00040018 </v>
    <v>       0.00585221       0.67424607       0.00005066 </v>
    <v>       0.64751003       0.31679904      -0.00003961 </v>
    <v>       0.66118749       0.66548886      -0.00038444 </v>
    <v>       0.10571867       0.21934375       0.95018339 </v>
    <v>       0.21568971       0.10730746       0.05197392 </v>
    <v>       0.11420287       0.55295583       0.95045462 </v>
    <v>       0.21981064       0.44711804       0.04894066 </v>
    <v>       0.10848264       0.89237023       0.94868668 </v>
    <v>       0.22526710       0.77501438       0.05094948 </v>
    <v>       0.44464032       0.22197107       0.94468487 </v>
    <v>       0.55555961       0.11145945       0.05477660 </v>
    <v>       0.44068806       0.55832526       0.94865101 </v>
    <v>       0.55764885       0.44500250       0.05344690 </v>
    <v>       0.43997465       0.88180087       0.94760085 </v>
    <v>       0.54880625       0.77396325       0.05178229 </v>
    <v>       0.78351451       0.22615003       0.94882921 </v>
    <v>       0.89413327       0.11351042       0.04970620 </v>
    <v>       0.77694249       0.55391859       0.94894062 </v>
    <v>       0.89006929       0.44125723       0.04953863 </v>
    <v>       0.78363678       0.89180758       0.94969115 </v>
    <v>       0.89129786       0.78403496       0.05107806 </v>
   </varray>
  </structure>
  <varray name="forces" >
   <v>       0.10093965      -0.01669512       0.00576794 </v>
   <v>       0.12098780      -0.00057198       0.02939681 </v>
   <v>      -0.00501294       0.11171704      -0.03788507 </v>
   <v>      -0.03339972       0.02520418      -0.03466546 </v>
   <v>       0.21776931       0.08805476      -0.05596320 </v>
   <v>      -0.16665752      -0.11904401       0.02292017 </v>
   <v>      -0.00782793       0.37868897       0.00592077 </v>
   <v>      -0.04521485      -0.22843949       0.04252708 </v>
   <v>      -0.11170681      -0.15472678       0.00691809 </v>
   <v>       0.09417961       0.09494737       0.00854036 </v>
   <v>       0.09227530       0.14201987       0.06819368 </v>
   <v>      -0.01532678       0.03478284       0.02076137 </v>
   <v>       0.24182229       0.04442908      -0.05179192 </v>
   <v>       0.04792611       0.15705432      -0.06471274 </v>
   <v>      -0.08422593       0.14982678       0.03947479 </v>
   <v>       0.01066309      -0.07472628      -0.34358869 </v>
   <v>       0.02158818      -0.03598997       0.27403806 </v>
   <v>       0.05342225      -0.09771690      -0.02362775 </v>
   <v>       0.09576268       0.01808644       0.13406954 </v>
   <v>      -0.12988134       0.03586451      -0.11747274 </v>
   <v>      -0.02038843       0.03350708       0.05924156 </v>
   <v>      -0.13456614      -0.10853424       0.00350442 </v>
   <v>      -0.02612030      -0.12587917      -0.02411795 </v>
   <v>       0.11000581      -0.13603208       0.21663425 </v>
   <v>      -0.17748509      -0.15263901      -0.24908806 </v>
   <v>      -0.16696467      -0.04665183       0.06234596 </v>
   <v>      -0.08256361      -0.01653641       0.00265873 </v>
  </varray>
  <varray name="stress" >
   <v>      -0.07802474       0.19330343       0.21383156 </v>
   <v>       0.19330360       0.24463234       0.22613897 </v>
   <v>       0.21383136       0.22613908      -0.59208854 </v>
  </varray>
  <energy>
   <i name="e_fr_energy">   -191.32109002 </i>
   <i name="e_wo_entrp">   -191.22051282 </i>
   <i name="e_0_energy">     -0.20115440 </i>
  </energy>
  <time name="totalsc">  379.69  381.01</time>
 </calculation>
 <calculation>
  <scstep>
   <time name="dav">   21.60   21.65</time>
   <time name="total">   22.10   22.16</time>
   <energy>
    <i name="alphaZ">     90.09037745 </i>
    <i name="ewald">  44606.08045382 </i>
    <i name="hartreedc"> -50616.09317154 </i>
    <i name="XCdc">   -233.48048661 </i>
    <i name="pawpsdc">   4084.54996907 </i>
    <i name="pawaedc">  -3500.50955275 </i>
    <i name="eentropy">     -0.20412372 </i>
    <i name="bandstr">  -1383.23831611 </i>
    <i name="atom">   6761.44252427 </i>
    <i name="e_fr_energy">   -191.36232613 </i>
    <i name="e_wo_entrp">   -191.15820242 </i>
    <i name="e_0_energy">   -191.26026428 </i>
   </energy>
  </scstep>
  <scstep>
   <time name="dav">   30.96   31.04</time>
   <time name="total">   31.47   31.55</time>
   <energy>
    <i name="e_fr_energy">   -191.40363491 </i>
    <i name="e_wo_entrp">   -191.19656346 </i>
    <i name="e_0_energy">   -191.30009918 </i>
   </energy>
  </scstep>
  <scstep>
   <time name="dav">   29.74   29.81</time>
   <time name="total">   30.24   30.33</time>
   <energy>
    <i name="e_fr_energy">   -191.37411135 </i>
    <i name="e_wo_entrp">   -191.17031372 </i>
    <i name="e_0_energy">   -191.27221254 </i>
   </energy>
  </scstep>
  <scstep>
   <time name="dav">   27.51   27.58</time>
   <time name="total">   28.02   28.10</time>
   <energy>
    <i name="e_fr_energy">   -191.37399681 </i>
    <i name="e_wo_entrp">   -191.16913936 </i>
    <i name="e_0_energy">   -191.27156809 </i>
   </energy>
  </scstep>
  <scstep>
   <time name="dav">   26.07   26.13</time>
   <time name="total">   26.57   26.64</time>
   <energy>
    <i name="e_fr_energy">   -191.37191382 </i>
    <i name="e_wo_entrp">   -191.16733221 </i>
    <i name="e_0_energy">   -191.26962302 </i>
   </energy>
  </scstep>
  <scstep>
   <time name="dav">   25.99   26.05</time>
   <time name="total">   26.50   26.57</time>
   <energy>
    <i name="e_fr_energy">   -191.37179818 </i>
    <i name="e_wo_entrp">   -191.16711722 </i>
    <i name="e_0_energy">   -191.26945770 </i>
   </energy>
  </scstep>
  <scstep>
   <time name="dav">   26.73   26.79</time>
   <time name="total">   27.23   27.30</time>
   <energy>
    <i name="e_fr_energy">   -191.37215622 </i>
    <i name="e_wo_entrp">   -191.16759685 </i>
    <i name="e_0_energy">   -191.26987653 </i>
   </energy>
  </scstep>
  <scstep>
   <time name="dav">   23.54   23.60</time>
   <time name="total">   24.05   24.11</time>
   <energy>
    <i name="e_fr_energy">   -191.37151133 </i>
    <i name="e_wo_entrp">   -191.16689027 </i>
    <i name="e_0_energy">   -191.26920080 </i>
   </energy>
  </scstep>
  <scstep>
   <time name="dav">   17.10   17.14</time>
   <time name="total">   17.13   17.18</time>
   <energy>
    <i name="alphaZ">     90.09037745 </i>
    <i name="ewald">  44606.08045382 </i>
    <i name="hartreedc"> -50617.30519641 </i>
    <i name="XCdc">   -233.45074336 </i>
    <i name="pawpsdc">   4081.28694447 </i>
    <i name="pawaedc">  -3497.20197124 </i>
    <i name="eentropy">     -0.20466493 </i>
    <i name="bandstr">  -1382.10924965 </i>
    <i name="atom">   6761.44252427 </i>
    <i name="e_fr_energy">   -191.37152560 </i>
    <i name="e_wo_entrp">   -191.16686067 </i>
    <i name="e_0_energy">   -191.26919313 </i>
   </energy>
  </scstep>
  <structure>
   <crystal>
    <varray name="basis" >
     <v>       8.28107526       4.79398530       0.00000000 </v>
     <v>      -8.27128201       4.77703412       0.00000000 </v>
     <v>       0.00000000       0.00000000      30.00000000 </v>
    </varray>
    <i name="volume">   2376.34150286 </i>
    <varray name="rec_basis" >
     <v>       0.06030742       0.10442037       0.00000000 </v>
     <v>      -0.06052142       0.10454400       0.00000000 </v>
     <v>       0.00000000       0.00000000       0.03333333 </v>
    </varray>
   </crystal>
   <varray name="positions" >
    <v>       0.00328896       0.00140194       0.00009871 </v>
    <v>       1.00142590       0.32964071       0.00055905 </v>
    <v>       0.33845840       0.67142361      -0.00005858 </v>
    <v>       0.34579248       0.01271513      -0.00014942 </v>
    <v>       0.34358680       0.32825108       0.00025874 </v>
    <v>       0.65618253       0.00071000      -0.00036353 </v>
    <v>       0.00774873       0.67619195       0.00006036 </v>
    <v>       0.64620527       0.31576139       0.00002899 </v>
    <v>       0.66007490       0.66503091      -0.00037382 </v>
    <v>       0.10647334       0.21954801       0.95019371 </v>
    <v>       0.21667597       0.10775485       0.05208850 </v>
    <v>       0.11433578       0.55317535       0.95048485 </v>
    <v>       0.22074166       0.44663603       0.04885979 </v>
    <v>       0.10941792       0.89302800       0.94857835 </v>
    <v>       0.22578155       0.77601996       0.05101673 </v>
    <v>       0.44429201       0.22156060       0.94412380 </v>
    <v>       0.55543962       0.11121271       0.05522488 </v>
    <v>       0.44034681       0.55767373       0.94860893 </v>
    <v>       0.55802053       0.44481355       0.05366812 </v>
    <v>       0.43977457       0.88236005       0.94740631 </v>
    <v>       0.54891312       0.77419191       0.05188215 </v>
    <v>       0.78257452       0.22599532       0.94883112 </v>
    <v>       0.89342081       0.11295013       0.04967075 </v>
    <v>       0.77657475       0.55290655       0.94928756 </v>
    <v>       0.88877821       0.44100227       0.04913900 </v>
    <v>       0.78291539       0.89206250       0.94978882 </v>
    <v>       0.89097393       0.78419621       0.05108602 </v>
   </varray>
  </structure>
  <varray name="forces" >
   <v>       0.10092723       0.02555079       0.02473096 </v>
   <v>       0.15001300      -0.02061878       0.04006529 </v>
   <v>      -0.02549741       0.10900333      -0.03624543 </v>
   <v>      -0.02121879       0.04856256      -0.00150900 </v>
   <v>       0.23547176       0.10549602      -0.03441590 </v>
   <v>      -0.19146239      -0.10759055       0.01569377 </v>
   <v>       0.02054289       0.44463293       0.01500743 </v>
   <v>      -0.04948073      -0.36176480       0.00071475 </v>
   <v>      -0.12947495      -0.18335683      -0.00659343 </v>
   <v>       0.05927639       0.04930212       0.01968730 </v>
   <v>       0.04136034       0.08712359       0.02620818 </v>
   <v>      -0.01101874       0.03686714       0.04078119 </v>
   <v>       0.15215667       0.03172788      -0.08649734 </v>
   <v>      -0.00230666       0.09427039      -0.10289109 </v>
   <v>      -0.03340575       0.08835837       0.06719807 </v>
   <v>       0.03398421      -0.03120266      -0.18197501 </v>
   <v>      -0.01087933      -0.04711537       0.14400820 </v>
   <v>       0.02145239      -0.05773195      -0.02495058 </v>
   <v>       0.04896510       0.01714032       0.07970451 </v>
   <v>      -0.06748643       0.01349330      -0.08504149 </v>
   <v>      -0.02095442      -0.00414729       0.05072424 </v>
   <v>      -0.07937336      -0.07083187       0.03637503 </v>
   <v>      -0.00996740      -0.09008046      -0.05644262 </v>
   <v>       0.07958647      -0.05198505       0.25182988 </v>
   <v>      -0.13510593      -0.07291778      -0.25059879 </v>
   <v>      -0.10111280      -0.04126657       0.09539082 </v>
   <v>      -0.05499139      -0.01091880      -0.04095893 </v>
  </varray>
  <varray name="stress" >
   <v>      -0.08556491       0.02102545       0.04797100 </v>
   <v>       0.02102538      -0.17320238       0.06559704 </v>
   <v>       0.04797094       0.06559701      -1.33246814 </v>
  </varray>
  <energy>
   <i name="e_fr_energy">   -191.37152560 </i>
   <i name="e_wo_entrp">   -191.26919313 </i>
   <i name="e_0_energy">     -0.20466493 </i>
  </energy>
  <time name="totalsc">  275.13  275.86</time>
 </calculation>
 <calculation>
  <scstep>
   <time name="dav">   21.58   21.63</time>
   <time name="total">   22.09   22.15</time>
   <energy>
    <i name="alphaZ">     90.18711077 </i>
    <i name="ewald">  44653.21295488 </i>
    <i name="hartreedc"> -50665.40092715 </i>
    <i name="XCdc">   -233.37366038 </i>
    <i name="pawpsdc">   4081.17881483 </i>
    <i name="pawaedc">  -3497.09235332 </i>
    <i name="eentropy">     -0.20645118 </i>
    <i name="bandstr">  -1381.36370425 </i>
    <i name="atom">   6761.44252427 </i>
    <i name="e_fr_energy">   -191.41569152 </i>
    <i name="e_wo_entrp">   -191.20924035 </i>
    <i name="e_0_energy">   -191.31246593 </i>
   </energy>
  </scstep>
  <scstep>
   <time name="dav">   31.53   31.61</time>
   <time name="total">   32.03   32.12</time>
   <energy>
    <i name="e_fr_energy">   -191.44678470 </i>
    <i name="e_wo_entrp">   -191.23671394 </i>
    <i name="e_0_energy">   -191.34174932 </i>
   </energy>
  </scstep>
  <scstep>
   <time name="dav">   29.92   30.00</time>
   <time name="total">   30.43   30.51</time>
   <energy>
    <i name="e_fr_energy">   -191.42376144 </i>
    <i name="e_wo_entrp">   -191.21756310 </i>
    <i name="e_0_energy">   -191.32066227 </i>
   </energy>
  </scstep>
  <scstep>
   <time name="dav">   27.61   27.68</time>
   <time name="total">   28.11   28.19</time>
   <energy>
    <i name="e_fr_energy">   -191.42232830 </i>
    <i name="e_wo_entrp">   -191.21539509 </i>
    <i name="e_0_energy">   -191.31886170 </i>
   </energy>
  </scstep>
  <scstep>
   <time name="dav">   27.15   27.22</time>
   <time name="total">   27.66   27.73</time>
   <energy>
    <i name="e_fr_energy">   -191.42105406 </i>
    <i name="e_wo_entrp">   -191.21383365 </i>
    <i name="e_0_energy">   -191.31744385 </i>
   </energy>
  </scstep>
  <scstep>
   <time name="dav">   25.55   25.61</time>
   <time name="total">   26.05   26.12</time>
   <energy>
    <i name="e_fr_energy">   -191.42066404 </i>
    <i name="e_wo_entrp">   -191.21341452 </i>
    <i name="e_0_energy">   -191.31703928 </i>
   </energy>
  </scstep>
  <scstep>
   <time name="dav">   27.40   27.46</time>
   <time name="total">   27.90   27.98</time>
   <energy>
    <i name="e_fr_energy">   -191.42091388 </i>
    <i name="e_wo_entrp">   -191.21378007 </i>
    <i name="e_0_energy">   -191.31734698 </i>
   </energy>
  </scstep>
  <scstep>
   <time name="dav">   23.62   23.68</time>
   <time name="total">   24.12   24.19</time>
   <energy>
    <i name="e_fr_energy">   -191.42032065 </i>
    <i name="e_wo_entrp">   -191.21307247 </i>
    <i name="e_0_energy">   -191.31669656 </i>
   </energy>
  </scstep>
  <scstep>
[...]
      <set comment="kpoint 31">
       <r>  -17.5120    1.0000 </r>
       <r>  -17.3060    1.0000 </r>
       <r>  -16.9245    1.0000 </r>
       <r>  -16.6678    1.0000 </r>
       <r>  -16.5552    1.0000 </r>
       <r>  -16.4550    1.0000 </r>
       <r>  -16.2715    1.0000 </r>
       <r>  -16.1655    1.0000 </r>
       <r>  -16.0888    1.0000 </r>
       <r>  -16.0563    1.0000 </r>
       <r>  -15.9258    1.0000 </r>
       <r>  -15.8509    1.0000 </r>
       <r>  -15.8125    1.0000 </r>
       <r>  -15.6461    1.0000 </r>
       <r>  -15.5788    1.0000 </r>
       <r>  -15.5185    1.0000 </r>
       <r>  -15.4240    1.0000 </r>
       <r>  -15.3096    1.0000 </r>
       <r>   -9.7615    1.0000 </r>
       <r>   -9.4780    1.0000 </r>
       <r>   -9.2985    1.0000 </r>
       <r>   -8.8869    1.0000 </r>
       <r>   -8.8173    1.0000 </r>
       <r>   -8.7609    1.0000 </r>
       <r>   -8.6121    1.0000 </r>
       <r>   -8.5639    1.0000 </r>
       <r>   -8.4338    1.0000 </r>
       <r>   -8.3402    1.0000 </r>
       <r>   -8.2912    1.0000 </r>
       <r>   -8.1892    1.0000 </r>
       <r>   -8.1198    1.0000 </r>
       <r>   -8.0804    1.0000 </r>
       <r>   -8.0099    1.0000 </r>
       <r>   -7.9225    1.0000 </r>
       <r>   -7.8252    1.0000 </r>
       <r>   -7.7260    1.0000 </r>
       <r>   -7.5930    1.0000 </r>
       <r>   -7.4336    1.0000 </r>
       <r>   -7.3667    1.0000 </r>
       <r>   -7.3132    1.0000 </r>
       <r>   -7.1564    1.0000 </r>
       <r>   -7.0742    1.0000 </r>
       <r>   -7.0177    1.0000 </r>
       <r>   -6.9138    1.0000 </r>
       <r>   -6.8930    1.0000 </r>
       <r>   -6.8048    1.0000 </r>
       <r>   -6.6705    1.0000 </r>
       <r>   -6.5703    1.0000 </r>
       <r>   -6.5089    1.0000 </r>
       <r>   -6.4632    1.0000 </r>
       <r>   -6.4156    1.0000 </r>
       <r>   -6.3370    1.0000 </r>
       <r>   -6.2457    1.0000 </r>
       <r>   -6.2055    1.0000 </r>
       <r>   -6.1141    1.0000 </r>
       <r>   -6.0829    1.0000 </r>
       <r>   -6.0142    1.0000 </r>
       <r>   -5.8970    1.0000 </r>
       <r>   -5.8537    1.0000 </r>
       <r>   -5.7145    1.0000 </r>
       <r>   -5.6154    1.0000 </r>
       <r>   -5.5113    1.0000 </r>
       <r>   -5.4841    1.0000 </r>
       <r>   -5.4024    1.0000 </r>
       <r>   -5.2704    1.0000 </r>
       <r>   -5.1199    1.0000 </r>
       <r>   -5.0699    1.0000 </r>
       <r>   -4.9107    1.0000 </r>
       <r>   -4.8285    1.0000 </r>
       <r>   -4.7024    1.0000 </r>
       <r>   -4.6125    1.0000 </r>
       <r>   -4.5360    1.0000 </r>
       <r>   -4.2770    1.0000 </r>
       <r>   -4.1605    1.0000 </r>
       <r>   -4.0880    1.0000 </r>
       <r>   -3.8800    1.0000 </r>
       <r>   -3.8049    0.9999 </r>
       <r>   -3.7269    0.9994 </r>
       <r>   -3.6534    0.9968 </r>
       <r>   -3.2946    0.5759 </r>
       <r>   -2.9140    0.0062 </r>
       <r>   -2.8358    0.0011 </r>
       <r>   -2.7517    0.0001 </r>
       <r>   -2.5741    0.0000 </r>
       <r>   -2.3797    0.0000 </r>
       <r>   -2.3151    0.0000 </r>
       <r>   -2.1633    0.0000 </r>
       <r>   -2.0489    0.0000 </r>
       <r>   -1.8540    0.0000 </r>
       <r>   -1.7984    0.0000 </r>
       <r>   -1.7578    0.0000 </r>
       <r>   -1.5930    0.0000 </r>
       <r>   -1.4496    0.0000 </r>
       <r>   -1.3172    0.0000 </r>
       <r>   -1.1910    0.0000 </r>
       <r>   -1.1201    0.0000 </r>
       <r>   -1.0621    0.0000 </r>
       <r>   -0.9849    0.0000 </r>
       <r>   -0.9515    0.0000 </r>
       <r>   -0.9010    0.0000 </r>
       <r>   -0.8457    0.0000 </r>
       <r>   -0.7750    0.0000 </r>
       <r>   -0.6575    0.0000 </r>
       <r>   -0.6266    0.0000 </r>
       <r>   -0.5596    0.0000 </r>
       <r>   -0.4614    0.0000 </r>
       <r>   -0.2966    0.0000 </r>
       <r>   -0.1424    0.0000 </r>
       <r>    0.0726    0.0000 </r>
       <r>    0.1997    0.0000 </r>
       <r>    0.3802    0.0000 </r>
       <r>    0.6278    0.0000 </r>
       <r>    0.7785    0.0000 </r>
       <r>    0.9213    0.0000 </r>
       <r>    1.1188    0.0000 </r>
       <r>    1.3431    0.0000 </r>
       <r>    1.6215    0.0000 </r>
       <r>    2.1484    0.0000 </r>
       <r>    2.2970    0.0000 </r>
       <r>    2.4068    0.0000 </r>
      </set>
      <set comment="kpoint 32">
       <r>  -17.5311    1.0000 </r>
       <r>  -17.2304    1.0000 </r>
       <r>  -17.0318    1.0000 </r>
       <r>  -16.6659    1.0000 </r>
       <r>  -16.5460    1.0000 </r>
       <r>  -16.3180    1.0000 </r>
       <r>  -16.2766    1.0000 </r>
       <r>  -16.2121    1.0000 </r>
       <r>  -16.0924    1.0000 </r>
       <r>  -16.0743    1.0000 </r>
       <r>  -15.9812    1.0000 </r>
       <r>  -15.8571    1.0000 </r>
       <r>  -15.8106    1.0000 </r>
       <r>  -15.6105    1.0000 </r>
       <r>  -15.5733    1.0000 </r>
       <r>  -15.5287    1.0000 </r>
       <r>  -15.4213    1.0000 </r>
       <r>  -15.3074    1.0000 </r>
       <r>   -9.6925    1.0000 </r>
       <r>   -9.5808    1.0000 </r>
       <r>   -9.3494    1.0000 </r>
       <r>   -8.8602    1.0000 </r>
       <r>   -8.7695    1.0000 </r>
       <r>   -8.6818    1.0000 </r>
       <r>   -8.5772    1.0000 </r>
       <r>   -8.4716    1.0000 </r>
       <r>   -8.4230    1.0000 </r>
       <r>   -8.3576    1.0000 </r>
       <r>   -8.3472    1.0000 </r>
       <r>   -8.2467    1.0000 </r>
       <r>   -8.1742    1.0000 </r>
       <r>   -8.1170    1.0000 </r>
       <r>   -8.0527    1.0000 </r>
       <r>   -7.9800    1.0000 </r>
       <r>   -7.8426    1.0000 </r>
       <r>   -7.6866    1.0000 </r>
       <r>   -7.5410    1.0000 </r>
       <r>   -7.4722    1.0000 </r>
       <r>   -7.3003    1.0000 </r>
       <r>   -7.2211    1.0000 </r>
       <r>   -7.1676    1.0000 </r>
       <r>   -7.0977    1.0000 </r>
       <r>   -6.9980    1.0000 </r>
       <r>   -6.9453    1.0000 </r>
       <r>   -6.9285    1.0000 </r>
       <r>   -6.7756    1.0000 </r>
       <r>   -6.7363    1.0000 </r>
       <r>   -6.5660    1.0000 </r>
       <r>   -6.5030    1.0000 </r>
       <r>   -6.4634    1.0000 </r>
       <r>   -6.4305    1.0000 </r>
       <r>   -6.3487    1.0000 </r>
       <r>   -6.2607    1.0000 </r>
       <r>   -6.1948    1.0000 </r>
       <r>   -6.1083    1.0000 </r>
       <r>   -6.0225    1.0000 </r>
       <r>   -5.9742    1.0000 </r>
       <r>   -5.8966    1.0000 </r>
       <r>   -5.7883    1.0000 </r>
       <r>   -5.7343    1.0000 </r>
       <r>   -5.6291    1.0000 </r>
       <r>   -5.5420    1.0000 </r>
       <r>   -5.5046    1.0000 </r>
       <r>   -5.3962    1.0000 </r>
       <r>   -5.2648    1.0000 </r>
       <r>   -5.0991    1.0000 </r>
       <r>   -5.0304    1.0000 </r>
       <r>   -4.9045    1.0000 </r>
       <r>   -4.8348    1.0000 </r>
       <r>   -4.7979    1.0000 </r>
       <r>   -4.7074    1.0000 </r>
       <r>   -4.5021    1.0000 </r>
       <r>   -4.2722    1.0000 </r>
       <r>   -4.1460    1.0000 </r>
       <r>   -4.0716    1.0000 </r>
       <r>   -3.8565    1.0000 </r>
       <r>   -3.7936    0.9999 </r>
       <r>   -3.7381    0.9996 </r>
       <r>   -3.6444    0.9961 </r>
       <r>   -3.2767    0.5258 </r>
       <r>   -2.9326    0.0089 </r>
       <r>   -2.8834    0.0033 </r>
       <r>   -2.7090    0.0000 </r>
       <r>   -2.5265    0.0000 </r>
       <r>   -2.3936    0.0000 </r>
       <r>   -2.3377    0.0000 </r>
       <r>   -2.1871    0.0000 </r>
       <r>   -2.0577    0.0000 </r>
       <r>   -1.8580    0.0000 </r>
       <r>   -1.8247    0.0000 </r>
       <r>   -1.7436    0.0000 </r>
       <r>   -1.5769    0.0000 </r>
       <r>   -1.4777    0.0000 </r>
       <r>   -1.3106    0.0000 </r>
       <r>   -1.1976    0.0000 </r>
       <r>   -1.1354    0.0000 </r>
       <r>   -1.0223    0.0000 </r>
       <r>   -0.9762    0.0000 </r>
       <r>   -0.9401    0.0000 </r>
       <r>   -0.9125    0.0000 </r>
       <r>   -0.8643    0.0000 </r>
       <r>   -0.8110    0.0000 </r>
       <r>   -0.6886    0.0000 </r>
       <r>   -0.5828    0.0000 </r>
       <r>   -0.5413    0.0000 </r>
       <r>   -0.4581    0.0000 </r>
       <r>   -0.2669    0.0000 </r>
       <r>   -0.1438    0.0000 </r>
       <r>    0.0429    0.0000 </r>
       <r>    0.1962    0.0000 </r>
       <r>    0.4946    0.0000 </r>
       <r>    0.6471    0.0000 </r>
       <r>    0.6855    0.0000 </r>
       <r>    0.8812    0.0000 </r>
       <r>    1.1767    0.0000 </r>
       <r>    1.2798    0.0000 </r>
       <r>    1.6283    0.0000 </r>
       <r>    2.1161    0.0000 </r>
       <r>    2.2639    0.0000 </r>
       <r>    2.5820    0.0000 </r>
      </set>
      <set comment="kpoint 33">
       <r>  -17.5151    1.0000 </r>
       <r>  -17.3035    1.0000 </r>
       <r>  -16.9214    1.0000 </r>
       <r>  -16.6706    1.0000 </r>
       <r>  -16.5600    1.0000 </r>
       <r>  -16.4385    1.0000 </r>
       <r>  -16.2931    1.0000 </r>
       <r>  -16.1594    1.0000 </r>
       <r>  -16.1065    1.0000 </r>
       <r>  -16.0103    1.0000 </r>
       <r>  -15.9535    1.0000 </r>
       <r>  -15.8640    1.0000 </r>
       <r>  -15.7949    1.0000 </r>
       <r>  -15.6375    1.0000 </r>
       <r>  -15.5791    1.0000 </r>
       <r>  -15.5364    1.0000 </r>
       <r>  -15.4200    1.0000 </r>
       <r>  -15.3053    1.0000 </r>
       <r>   -9.7552    1.0000 </r>
       <r>   -9.4594    1.0000 </r>
       <r>   -9.2849    1.0000 </r>
       <r>   -8.9222    1.0000 </r>
       <r>   -8.8476    1.0000 </r>
       <r>   -8.7861    1.0000 </r>
       <r>   -8.6258    1.0000 </r>
       <r>   -8.5680    1.0000 </r>
       <r>   -8.4211    1.0000 </r>
       <r>   -8.3377    1.0000 </r>
       <r>   -8.2696    1.0000 </r>
       <r>   -8.1863    1.0000 </r>
       <r>   -8.1620    1.0000 </r>
       <r>   -8.0655    1.0000 </r>
       <r>   -7.9924    1.0000 </r>
       <r>   -7.9153    1.0000 </r>
       <r>   -7.8141    1.0000 </r>
       <r>   -7.7354    1.0000 </r>
       <r>   -7.5281    1.0000 </r>
       <r>   -7.4564    1.0000 </r>
       <r>   -7.3323    1.0000 </r>
       <r>   -7.2768    1.0000 </r>
       <r>   -7.2124    1.0000 </r>
       <r>   -7.0791    1.0000 </r>
       <r>   -6.9913    1.0000 </r>
       <r>   -6.9435    1.0000 </r>
       <r>   -6.8831    1.0000 </r>
       <r>   -6.7969    1.0000 </r>
       <r>   -6.6659    1.0000 </r>
       <r>   -6.5698    1.0000 </r>
       <r>   -6.5011    1.0000 </r>
       <r>   -6.4450    1.0000 </r>
       <r>   -6.4172    1.0000 </r>
       <r>   -6.3204    1.0000 </r>
       <r>   -6.2752    1.0000 </r>
       <r>   -6.2071    1.0000 </r>
       <r>   -6.1441    1.0000 </r>
       <r>   -6.0790    1.0000 </r>
       <r>   -6.0087    1.0000 </r>
       <r>   -5.9249    1.0000 </r>
       <r>   -5.8403    1.0000 </r>
       <r>   -5.7120    1.0000 </r>
       <r>   -5.6143    1.0000 </r>
       <r>   -5.5197    1.0000 </r>
       <r>   -5.4775    1.0000 </r>
       <r>   -5.4204    1.0000 </r>
       <r>   -5.2754    1.0000 </r>
       <r>   -5.1270    1.0000 </r>
       <r>   -5.0814    1.0000 </r>
       <r>   -4.9212    1.0000 </r>
       <r>   -4.8269    1.0000 </r>
       <r>   -4.6768    1.0000 </r>
       <r>   -4.6388    1.0000 </r>
       <r>   -4.4741    1.0000 </r>
       <r>   -4.2842    1.0000 </r>
       <r>   -4.1423    1.0000 </r>
       <r>   -4.0762    1.0000 </r>
       <r>   -3.8995    1.0000 </r>
       <r>   -3.8100    0.9999 </r>
       <r>   -3.7621    0.9998 </r>
       <r>   -3.6320    0.9950 </r>
       <r>   -3.2513    0.4543 </r>
       <r>   -2.9541    0.0133 </r>
       <r>   -2.9435    0.0110 </r>
       <r>   -2.6694    0.0000 </r>
       <r>   -2.5010    0.0000 </r>
       <r>   -2.4238    0.0000 </r>
       <r>   -2.3235    0.0000 </r>
       <r>   -2.1830    0.0000 </r>
       <r>   -2.0365    0.0000 </r>
       <r>   -1.8908    0.0000 </r>
       <r>   -1.8266    0.0000 </r>
       <r>   -1.7242    0.0000 </r>
       <r>   -1.5409    0.0000 </r>
       <r>   -1.4704    0.0000 </r>
       <r>   -1.2928    0.0000 </r>
       <r>   -1.2221    0.0000 </r>
       <r>   -1.1796    0.0000 </r>
       <r>   -1.0194    0.0000 </r>
       <r>   -0.9971    0.0000 </r>
       <r>   -0.9766    0.0000 </r>
       <r>   -0.9461    0.0000 </r>
       <r>   -0.8587    0.0000 </r>
       <r>   -0.7971    0.0000 </r>
       <r>   -0.6715    0.0000 </r>
       <r>   -0.5960    0.0000 </r>
       <r>   -0.5141    0.0000 </r>
       <r>   -0.4669    0.0000 </r>
       <r>   -0.3014    0.0000 </r>
       <r>   -0.1139    0.0000 </r>
       <r>    0.0435    0.0000 </r>
       <r>    0.2316    0.0000 </r>
       <r>    0.4114    0.0000 </r>
       <r>    0.7231    0.0000 </r>
       <r>    0.7434    0.0000 </r>
       <r>    0.8815    0.0000 </r>
       <r>    1.1585    0.0000 </r>
       <r>    1.2790    0.0000 </r>
       <r>    1.6267    0.0000 </r>
       <r>    2.1472    0.0000 </r>
       <r>    2.2973    0.0000 </r>
       <r>    2.4029    0.0000 </r>
      </set>
      <set comment="kpoint 34">
       <r>  -17.4900    1.0000 </r>
       <r>  -17.3636    1.0000 </r>
       <r>  -16.7613    1.0000 </r>
       <r>  -16.7264    1.0000 </r>
       <r>  -16.6143    1.0000 </r>
       <r>  -16.5058    1.0000 </r>
       <r>  -16.2916    1.0000 </r>
       <r>  -16.1414    1.0000 </r>
       <r>  -16.1166    1.0000 </r>
       <r>  -15.9996    1.0000 </r>
       <r>  -15.8943    1.0000 </r>
       <r>  -15.8600    1.0000 </r>
       <r>  -15.7581    1.0000 </r>
       <r>  -15.7021    1.0000 </r>
       <r>  -15.5840    1.0000 </r>
       <r>  -15.5351    1.0000 </r>
       <r>  -15.4206    1.0000 </r>
       <r>  -15.3045    1.0000 </r>
       <r>   -9.7901    1.0000 </r>
       <r>   -9.3309    1.0000 </r>
       <r>   -9.1850    1.0000 </r>
       <r>   -9.0801    1.0000 </r>
       <r>   -8.9293    1.0000 </r>
       <r>   -8.8471    1.0000 </r>
       <r>   -8.6197    1.0000 </r>
       <r>   -8.6066    1.0000 </r>
       <r>   -8.4312    1.0000 </r>
       <r>   -8.3366    1.0000 </r>
       <r>   -8.2604    1.0000 </r>
       <r>   -8.1663    1.0000 </r>
       <r>   -8.1506    1.0000 </r>
       <r>   -8.0149    1.0000 </r>
       <r>   -7.9086    1.0000 </r>
       <r>   -7.8669    1.0000 </r>
       <r>   -7.7928    1.0000 </r>
       <r>   -7.6403    1.0000 </r>
       <r>   -7.5778    1.0000 </r>
       <r>   -7.5128    1.0000 </r>
       <r>   -7.4173    1.0000 </r>
       <r>   -7.3208    1.0000 </r>
       <r>   -7.2488    1.0000 </r>
       <r>   -7.0258    1.0000 </r>
       <r>   -7.0012    1.0000 </r>
       <r>   -6.9187    1.0000 </r>
       <r>   -6.8854    1.0000 </r>
       <r>   -6.6715    1.0000 </r>
       <r>   -6.6217    1.0000 </r>
       <r>   -6.5743    1.0000 </r>
       <r>   -6.5053    1.0000 </r>
       <r>   -6.4813    1.0000 </r>
       <r>   -6.4310    1.0000 </r>
       <r>   -6.3196    1.0000 </r>
       <r>   -6.3175    1.0000 </r>
       <r>   -6.2073    1.0000 </r>
       <r>   -6.1714    1.0000 </r>
       <r>   -6.1567    1.0000 </r>
       <r>   -6.0333    1.0000 </r>
       <r>   -5.8975    1.0000 </r>
       <r>   -5.7692    1.0000 </r>
       <r>   -5.7085    1.0000 </r>
       <r>   -5.6602    1.0000 </r>
       <r>   -5.5834    1.0000 </r>
       <r>   -5.4650    1.0000 </r>
       <r>   -5.4281    1.0000 </r>
       <r>   -5.2740    1.0000 </r>
       <r>   -5.0910    1.0000 </r>
       <r>   -5.0565    1.0000 </r>
       <r>   -5.0026    1.0000 </r>
       <r>   -4.8270    1.0000 </r>
       <r>   -4.6184    1.0000 </r>
       <r>   -4.5275    1.0000 </r>
       <r>   -4.4424    1.0000 </r>
       <r>   -4.2927    1.0000 </r>
       <r>   -4.1755    1.0000 </r>
       <r>   -4.0831    1.0000 </r>
       <r>   -3.9404    1.0000 </r>
       <r>   -3.8300    1.0000 </r>
       <r>   -3.7610    0.9998 </r>
       <r>   -3.6289    0.9947 </r>
       <r>   -3.2410    0.4257 </r>
       <r>   -2.9787    0.0206 </r>
       <r>   -2.9561    0.0138 </r>
       <r>   -2.6543    0.0000 </r>
       <r>   -2.4994    0.0000 </r>
       <r>   -2.4376    0.0000 </r>
       <r>   -2.3063    0.0000 </r>
       <r>   -2.1728    0.0000 </r>
       <r>   -2.0201    0.0000 </r>
       <r>   -1.9022    0.0000 </r>
       <r>   -1.8339    0.0000 </r>
       <r>   -1.7140    0.0000 </r>
       <r>   -1.5291    0.0000 </r>
       <r>   -1.4290    0.0000 </r>
       <r>   -1.3013    0.0000 </r>
       <r>   -1.2464    0.0000 </r>
       <r>   -1.1963    0.0000 </r>
       <r>   -1.0347    0.0000 </r>
       <r>   -0.9938    0.0000 </r>
       <r>   -0.9930    0.0000 </r>
       <r>   -0.9712    0.0000 </r>
       <r>   -0.8663    0.0000 </r>
       <r>   -0.7880    0.0000 </r>
       <r>   -0.6528    0.0000 </r>
       <r>   -0.6087    0.0000 </r>
       <r>   -0.5423    0.0000 </r>
       <r>   -0.4161    0.0000 </r>
       <r>   -0.3333    0.0000 </r>
       <r>   -0.1215    0.0000 </r>
       <r>    0.0835    0.0000 </r>
       <r>    0.2352    0.0000 </r>
       <r>    0.3457    0.0000 </r>
       <r>    0.7563    0.0000 </r>
       <r>    0.7949    0.0000 </r>
       <r>    0.9099    0.0000 </r>
       <r>    1.1157    0.0000 </r>
       <r>    1.3022    0.0000 </r>
       <r>    1.6218    0.0000 </r>
       <r>    2.2312    0.0000 </r>
       <r>    2.2555    0.0000 </r>
       <r>    2.3796    0.0000 </r>
      </set>
     </set>
    </set>
   </array>
  </eigenvalues>
  <separator name="orbital magnetization" >
   <v name="MAGDIPOLOUT">      0.00000000      0.00000000      0.00000000</v>
  </separator>
 </calculation>
 <structure name="finalpos" >
  <crystal>
   <varray name="basis" >
    <v>       8.33109690       4.82523477       0.00000000 </v>
    <v>      -8.31717349       4.80118673       0.00000000 </v>
    <v>       0.00000000       0.00000000      30.00000000 </v>
   </varray>
   <i name="volume">   2403.94399749 </i>
   <varray name="rec_basis" >
    <v>       0.05991637       0.10379410       0.00000000 </v>
    <v>      -0.06021648       0.10396786       0.00000000 </v>
    <v>       0.00000000       0.00000000       0.03333333 </v>
   </varray>
  </crystal>
  <varray name="positions" >
   <v>       0.03638898       0.01963083      -0.00152068 </v>
   <v>       1.03904835       0.34763552      -0.00193911 </v>
   <v>       0.33776287       0.68310258      -0.00043365 </v>
   <v>       0.33812888       0.00686569      -0.00026899 </v>
   <v>       0.33922934       0.31886063      -0.00033378 </v>
   <v>       0.62811799      -0.01801802       0.00228641 </v>
   <v>       0.03738400       0.68888620      -0.00142373 </v>
   <v>       0.63092149       0.30325350       0.00114306 </v>
   <v>       0.62564109       0.65864324       0.00225978 </v>
   <v>       0.11243746       0.21993413       0.94616121 </v>
   <v>       0.22067317       0.10917258       0.05410142 </v>
   <v>       0.11761078       0.55643999       0.94677314 </v>
   <v>       0.22876095       0.44847330       0.04933544 </v>
   <v>       0.11131467       0.89428103       0.94507325 </v>
   <v>       0.23047392       0.77946893       0.05404038 </v>
   <v>       0.44237405       0.21732845       0.94294710 </v>
   <v>       0.55007054       0.10899810       0.05778135 </v>
   <v>       0.43133366       0.55358066       0.94805820 </v>
   <v>       0.55605069       0.44250844       0.05492307 </v>
   <v>       0.43464044       0.88226099       0.94551234 </v>
   <v>       0.54095816       0.77305556       0.05709656 </v>
   <v>       0.78053298       0.22116598       0.95465938 </v>
   <v>       0.89267289       0.11281260       0.04265233 </v>
   <v>       0.77511762       0.55571941       0.95783588 </v>
   <v>       0.89132071       0.44050916       0.04266771 </v>
   <v>       0.77945755       0.89039534       0.95634545 </v>
   <v>       0.88979123       0.78324965       0.04426637 </v>
  </varray>
 </structure>
</modeling>
