unknown system                          
           1
     8.855831    5.106533    0.000000
    -8.854478    5.104206    0.000000
     0.000000    0.000000   30.000000
   V    Mo   W    S 
   3   3   3  18
Direct configuration=     1
   0.00000000  0.00000000  0.00000000
   1.00000000  0.33333334  0.00000000
   0.33333334  0.66666669  0.00000000
   0.33333334  0.00000000  0.00000000
   0.33333334  0.33333334  0.00000000
   0.66666669  0.00000000  0.00000000
   0.00000000  0.66666669  0.00000000
   0.66666669  0.33333334  0.00000000
   0.66666669  0.66666669  0.00000000
   0.11068511  0.22244981  0.95539999
   0.22244981  0.11068511  0.04460000
   0.11068511  0.55578315  0.95539999
   0.22244981  0.44401845  0.04460000
   0.11068511  0.88911647  0.95539999
   0.22244981  0.77735180  0.04460000
   0.44401845  0.22244981  0.95539999
   0.55578315  0.11068511  0.04460000
   0.44401845  0.55578315  0.95539999
   0.55578315  0.44401845  0.04460000
   0.44401845  0.88911647  0.95539999
   0.55578315  0.77735180  0.04460000
   0.77735180  0.22244981  0.95539999
   0.88911647  0.11068511  0.04460000
   0.77735180  0.55578315  0.95539999
   0.88911647  0.44401845  0.04460000
   0.77735180  0.88911647  0.95539999
   0.88911647  0.77735180  0.04460000
unknown system                          
           1
     8.667648    5.000224    0.000000
    -8.666425    4.998121    0.000000
     0.000000    0.000000   30.000000
   V    Mo   W    S 
   3   3   3  18
Direct configuration=     2
   0.00107130  0.00149067  0.00016640
   1.00049149  0.33216462  0.00005463
   0.33408212  0.66738010 -0.00013418
   0.33470087  0.00134501 -0.00019454
   0.33304486  0.33202544  0.00011774
   0.66538036  0.00004933 -0.00003133
   0.00184575  0.66809181 -0.00007139
   0.66372504  0.33009431 -0.00003020
   0.66505372  0.66697841  0.00013994
   0.10660218  0.22016602  0.95309139
   0.21749710  0.10880314  0.04805832
   0.11285233  0.55382283  0.95301161
   0.21995527  0.44646735  0.04690316
   0.10821311  0.89023215  0.95201948
   0.22355357  0.77478193  0.04796996
   0.44534070  0.22256694  0.95065679
   0.55610265  0.11209598  0.04931199
   0.44279324  0.55840241  0.95196349
   0.55649153  0.44497709  0.04928016
   0.44205642  0.88423098  0.95191532
   0.55150653  0.77501177  0.04809146
   0.78173766  0.22484128  0.95193173
   0.89331641  0.11294938  0.04690157
   0.77775162  0.55528361  0.95079309
   0.89072727  0.44240659  0.04795309
   0.78173248  0.89008214  0.95199164
   0.89058885  0.78147315  0.04813859
unknown system                          
           1
     8.485434    4.900012    0.000000
    -8.484533    4.898465    0.000000
     0.000000    0.000000   30.000000
   V    Mo   W    S 
   3   3   3  18
Direct configuration=     3
   0.00133755  0.00176412  0.00019414
   1.00057772  0.33188624  0.00011122
   0.33435866  0.66764364 -0.00014932
   0.33552084  0.00214746 -0.00021212
   0.33354909  0.33166839  0.00016895
   0.66478710  0.00012082 -0.00008021
   0.00222268  0.66856142 -0.00007101
   0.66247610  0.32894957 -0.00003646
   0.66468701  0.66693566  0.00009937
   0.10653198  0.22010834  0.95309436
   0.21734574  0.10869749  0.04810652
   0.11278981  0.55393754  0.95308157
   0.21991039  0.44648628  0.04680979
   0.10806486  0.89004939  0.95201987
   0.22335543  0.77462674  0.04794487
   0.44555039  0.22266777  0.95049744
   0.55620204  0.11231272  0.04944715
   0.44295253  0.55854959  0.95196856
   0.55678319  0.44509350  0.04929933
   0.44195270  0.88407693  0.95184460
   0.55148249  0.77480648  0.04812464
   0.78173736  0.22503819  0.95195245
   0.89339460  0.11301571  0.04687195
   0.77772001  0.55527654  0.95093943
   0.89063986  0.44251376  0.04781749
   0.78172787  0.88991999  0.95207477
   0.89055647  0.78136018  0.04808055
unknown system                          
           1
     8.280540    4.786733    0.000000
    -8.275665    4.778300    0.000000
     0.000000    0.000000   30.000000
   V    Mo   W    S 
   3   3   3  18
Direct configuration=     4
   0.00207896  0.00208829  0.00022116
   1.00071796  0.33113259  0.00029724
   0.33563067  0.66880996 -0.00014096
   0.33904349  0.00558387 -0.00019428
   0.33646642  0.33058394  0.00028950
   0.66216552  0.00028605 -0.00022986
   0.00322042  0.67027079 -0.00002833
   0.65744534  0.32480213 -0.00004214
   0.66347465  0.66644039 -0.00009594
   0.10570566  0.21961554  0.95180701
   0.21614814  0.10786042  0.04973368
   0.11340619  0.55349597  0.95197770
   0.21950525  0.44700799  0.04773649
   0.10775553  0.89076626  0.95055113
   0.22398948  0.77429201  0.04928996
   0.44539195  0.22259950  0.94818785
   0.55606535  0.11215122  0.05162809
   0.44217289  0.55887314  0.95053303
   0.55721572  0.44517737  0.05102987
   0.44107541  0.88271267  0.95011846
   0.55016962  0.77418308  0.04972585
   0.78290713  0.22576621  0.95057219
   0.89418731  0.11351880  0.04806531
   0.77754231  0.55508639  0.94992850
   0.89084256  0.44211265  0.04871447
   0.78283674  0.89057803  0.95096007
   0.89105380  0.78241921  0.04936384
unknown system                          
           1
     8.281075    4.793985    0.000000
    -8.271282    4.777034    0.000000
     0.000000    0.000000   30.000000
   V    Mo   W    S 
   3   3   3  18
Direct configuration=     5
   0.00307692  0.00178228  0.00008963
   1.00107497  0.32999944  0.00051124
   0.33790398  0.67083999  0.00000228
   0.34575059  0.01247770 -0.00009370
   0.34249478  0.32844616  0.00034888
   0.65727990  0.00082401 -0.00040018
   0.00585221  0.67424607  0.00005066
   0.64751003  0.31679904 -0.00003961
   0.66118749  0.66548886 -0.00038444
   0.10571867  0.21934375  0.95018339
   0.21568971  0.10730746  0.05197392
   0.11420287  0.55295583  0.95045462
   0.21981064  0.44711804  0.04894066
   0.10848264  0.89237023  0.94868668
   0.22526710  0.77501438  0.05094948
   0.44464032  0.22197107  0.94468487
   0.55555961  0.11145945  0.05477660
   0.44068806  0.55832526  0.94865101
   0.55764885  0.44500250  0.05344690
   0.43997465  0.88180087  0.94760085
   0.54880625  0.77396325  0.05178229
   0.78351451  0.22615003  0.94882921
   0.89413327  0.11351042  0.04970620
   0.77694249  0.55391859  0.94894062
   0.89006929  0.44125723  0.04953863
   0.78363678  0.89180758  0.94969115
   0.89129786  0.78403496  0.05107806
unknown system                          
           1
     8.277891    4.791508    0.000000
    -8.267390    4.773337    0.000000
     0.000000    0.000000   30.000000
   V    Mo   W    S 
   3   3   3  18
Direct configuration=     6
   0.00328896  0.00140194  0.00009871
   1.00142590  0.32964071  0.00055905
   0.33845840  0.67142361 -0.00005858
   0.34579248  0.01271513 -0.00014942
   0.34358680  0.32825108  0.00025874
   0.65618253  0.00071000 -0.00036353
   0.00774873  0.67619195  0.00006036
   0.64620527  0.31576139  0.00002899
   0.66007490  0.66503091 -0.00037382
   0.10647334  0.21954801  0.95019371
   0.21667597  0.10775485  0.05208850
   0.11433578  0.55317535  0.95048485
   0.22074166  0.44663603  0.04885979
   0.10941792  0.89302800  0.94857835
   0.22578155  0.77601996  0.05101673
   0.44429201  0.22156060  0.94412380
   0.55543962  0.11121271  0.05522488
   0.44034681  0.55767373  0.94860893
   0.55802053  0.44481355  0.05366812
   0.43977457  0.88236005  0.94740631
   0.54891312  0.77419191  0.05188215
   0.78257452  0.22599532  0.94883112
   0.89342081  0.11295013  0.04967075
   0.77657475  0.55290655  0.94928756
   0.88877821  0.44100227  0.04913900
   0.78291539  0.89206250  0.94978882
   0.89097393  0.78419621  0.05108602
unknown system                          
           1
     8.281680    4.794231    0.000000
    -8.270590    4.775039    0.000000
     0.000000    0.000000   30.000000
   V    Mo   W    S 
   3   3   3  18
Direct configuration=     7
   0.00374923  0.00121547  0.00013900
   1.00178626  0.32905031  0.00063052
   0.33899834  0.67211756 -0.00011920
   0.34607221  0.01313095 -0.00015175
   0.34496534  0.32805723  0.00019957
   0.65494252  0.00073107 -0.00033852
   0.01023317  0.67857275  0.00008700
   0.64398715  0.31387489  0.00003172
   0.65865816  0.66443460 -0.00038863
   0.10692748  0.21962657  0.95020196
   0.21727372  0.10808906  0.05216865
   0.11451266  0.55339933  0.95053057
   0.22139543  0.44633131  0.04873154
   0.10993715  0.89357159  0.94837364
   0.22617722  0.77661924  0.05115762
   0.44421202  0.22127418  0.94375447
   0.55514748  0.11098072  0.05552327
   0.44007745  0.55728268  0.94853704
   0.55827292  0.44474756  0.05384361
   0.43961953  0.88263413  0.94722174
   0.54880746  0.77423526  0.05200124
   0.78195082  0.22586664  0.94886534
   0.89290185  0.11249396  0.04959993
   0.77652761  0.55235187  0.94970193
   0.88794597  0.44101199  0.04872302
   0.78238818  0.89217826  0.94993082
   0.89074712  0.78433527  0.05104381
unknown system                          
           1
     8.271643    4.789912    0.000000
    -8.262106    4.773397    0.000000
     0.000000    0.000000   30.000000
   V    Mo   W    S 
   3   3   3  18
Direct configuration=     8
   0.00391809  0.00122909  0.00014555
   1.00188189  0.32886384  0.00065275
   0.33907061  0.67226691 -0.00013771
   0.34591127  0.01300016 -0.00016252
   0.34516229  0.32807602  0.00018489
   0.65471952  0.00071749 -0.00033699
   0.01098205  0.67919944  0.00009146
   0.64366607  0.31356586  0.00004556
   0.65824294  0.66428530 -0.00039089
   0.10698827  0.21963233  0.95022418
   0.21737566  0.10816777  0.05215832
   0.11454280  0.55346487  0.95056591
   0.22151836  0.44628607  0.04867389
   0.10998907  0.89367500  0.94833251
   0.22627714  0.77670553  0.05119654
   0.44417362  0.22119368  0.94371595
   0.55507089  0.11093093  0.05555085
   0.44001160  0.55721466  0.94853844
   0.55833653  0.44473982  0.05384579
   0.43959553  0.88267775  0.94721537
   0.54878096  0.77422711  0.05200435
   0.78182645  0.22584144  0.94890233
   0.89279994  0.11239060  0.04955753
   0.77657652  0.55229030  0.94984253
   0.88781128  0.44107132  0.04858918
   0.78227308  0.89217169  0.94999849
   0.89071202  0.78432950  0.05099563
unknown system                          
           1
     8.268603    4.788507    0.000000
    -8.256745    4.767986    0.000000
     0.000000    0.000000   30.000000
   V    Mo   W    S 
   3   3   3  18
Direct configuration=     9
   0.00317122  0.00081519  0.00012417
   1.00183586  0.32962136  0.00059838
   0.33942175  0.67224848 -0.00009785
   0.34651600  0.01322705 -0.00015077
   0.34465448  0.32801262  0.00021632
   0.65473786  0.00022933 -0.00033744
   0.00898230  0.67772729  0.00007767
   0.64457019  0.31436777  0.00005934
   0.65944450  0.66496039 -0.00039989
   0.10698394  0.21954858  0.95014874
   0.21719828  0.10797317  0.05224294
   0.11470906  0.55340539  0.95047293
   0.22152325  0.44648078  0.04881711
   0.11006177  0.89364905  0.94842015
   0.22615147  0.77662800  0.05105872
   0.44413873  0.22129442  0.94356772
   0.55530139  0.11103108  0.05566721
   0.44007235  0.55738503  0.94853124
   0.55827236  0.44473303  0.05396233
   0.43948771  0.88246049  0.94717947
   0.54866062  0.77420294  0.05204203
   0.78195286  0.22581989  0.94872170
   0.89300269  0.11253823  0.04968383
   0.77624351  0.55218778  0.94940644
   0.88785393  0.44075753  0.04898815
   0.78249075  0.89235041  0.94977969
   0.89077561  0.78455919  0.05121957
unknown system                          
           1
     8.277692    4.793848    0.000000
    -8.265071    4.772007    0.000000
     0.000000    0.000000   30.000000
   V    Mo   W    S 
   3   3   3  18
Direct configuration=    10
   0.00317573  0.00047880  0.00017427
   1.00224804  0.32958213  0.00063138
   0.34000964  0.67281747 -0.00014906
   0.34692483  0.01364009 -0.00017379
   0.34549844  0.32786449  0.00018293
   0.65381752 -0.00000145 -0.00028746
   0.00982219  0.67873726  0.00005347
   0.64330867  0.31327395  0.00001625
   0.65898488  0.66488762 -0.00038913
   0.10719961  0.21956632  0.95019979
   0.21755218  0.10813730  0.05221213
   0.11483422  0.55361872  0.95055374
   0.22195378  0.44643230  0.04871658
   0.11030540  0.89385519  0.94836397
   0.22630296  0.77688818  0.05108584
   0.44419030  0.22113630  0.94351402
   0.55519247  0.11093739  0.05576583
   0.43999613  0.55724436  0.94852124
   0.55843805  0.44476872  0.05396272
   0.43931447  0.88248148  0.94704784
   0.54857225  0.77418419  0.05214313
   0.78150164  0.22560759  0.94881662
   0.89267973  0.11233486  0.04957938
   0.77620041  0.55190053  0.94965449
   0.88744073  0.44085287  0.04876005
   0.78213133  0.89240170  0.94982137
   0.89061886  0.78458609  0.05122229
unknown system                          
           1
     8.272265    4.790090    0.000000
    -8.260868    4.770365    0.000000
     0.000000    0.000000   30.000000
   V    Mo   W    S 
   3   3   3  18
Direct configuration=    11
   0.00373699  0.00078459  0.00017173
   1.00226221  0.32899329  0.00067734
   0.33977566  0.67285419 -0.00017112
   0.34640085  0.01333071 -0.00018238
   0.34579014  0.32793445  0.00016134
   0.65376018  0.00028567 -0.00030607
   0.01144634  0.67993466  0.00007734
   0.64277519  0.31277433  0.00004724
   0.65803103  0.66440560 -0.00039600
   0.10721201  0.21960498  0.95021481
   0.21764635  0.10826365  0.05221387
   0.11476667  0.55364452  0.95058309
   0.22197503  0.44629533  0.04863629
   0.11028107  0.89396852  0.94825459
   0.22646256  0.77697152  0.05122040
   0.44411531  0.22102545  0.94347558
   0.55501703  0.11084379  0.05577816
   0.43988304  0.55710795  0.94849351
   0.55850383  0.44474234  0.05396029
   0.43937340  0.88262551  0.94705243
   0.54860496  0.77419231  0.05213575
   0.78144389  0.22566391  0.94888017
   0.89255981  0.11220073  0.04953456
   0.77641135  0.55193263  0.94992747
   0.88736241  0.44101479  0.04849915
   0.78201702  0.89232317  0.94996834
   0.89060013  0.78449587  0.05109201
unknown system                          
           1
     8.269649    4.789103    0.000000
    -8.259047    4.770753    0.000000
     0.000000    0.000000   30.000000
   V    Mo   W    S 
   3   3   3  18
Direct configuration=    12
   0.00292725  0.00054916  0.00015980
   1.00203630  0.32981048  0.00059557
   0.33971397  0.67243408 -0.00012233
   0.34703442  0.01372847 -0.00016391
   0.34515886  0.32789422  0.00020392
   0.65435039  0.00020941 -0.00029277
   0.00876651  0.67779753  0.00004825
   0.64389584  0.31381756  0.00000789
   0.65960341  0.66498613 -0.00038200
   0.10712434  0.21960610  0.95019599
   0.21745226  0.10805605  0.05220863
   0.11472950  0.55348219  0.95052173
   0.22172862  0.44642443  0.04877820
   0.11023768  0.89366428  0.94844715
   0.22614174  0.77679185  0.05101763
   0.44423984  0.22125176  0.94360561
   0.55531518  0.11103216  0.05568439
   0.44010807  0.55731165  0.94853555
   0.55835098  0.44477734  0.05393224
   0.43938626  0.88249207  0.94709836
   0.54867383  0.77422174  0.05210285
   0.78170783  0.22568633  0.94878624
   0.89283915  0.11251514  0.04962395
   0.77614475  0.55198911  0.94946765
   0.88764004  0.44076742  0.04892439
   0.78226062  0.89236958  0.94974812
   0.89064679  0.78454821  0.05126680
unknown system                          
           1
     8.265988    4.788979    0.000000
    -8.254588    4.769246    0.000000
     0.000000    0.000000   30.000000
   V    Mo   W    S 
   3   3   3  18
Direct configuration=    13
   0.00039824 -0.00062231  0.00010664
   1.00196956  0.33165090  0.00045061
   0.33976015  0.67158066 -0.00002420
   0.34890260  0.01504691 -0.00009976
   0.34440231  0.32768855  0.00029553
   0.65523062  0.00004557 -0.00029144
   0.00264394  0.67363120  0.00003966
   0.64587922  0.31568689  0.00003316
   0.66353703  0.66649427 -0.00036156
   0.10709979  0.21967875  0.95031315
   0.21742324  0.10770012  0.05211473
   0.11453484  0.55320763  0.95047282
   0.22150656  0.44644880  0.04895866
   0.11035679  0.89317644  0.94892904
   0.22533255  0.77670519  0.05046379
   0.44439611  0.22155090  0.94366762
   0.55592228  0.11143862  0.05559386
   0.44079494  0.55758264  0.94865130
   0.55828283  0.44483186  0.05385845
   0.43940972  0.88247602  0.94713183
   0.54897569  0.77430862  0.05205664
   0.78193573  0.22562088  0.94870034
   0.89322103  0.11315007  0.04970131
   0.77542455  0.55174272  0.94859992
   0.88780853  0.44021925  0.04958500
   0.78246903  0.89251065  0.94936177
   0.89059658  0.78466266  0.05169101
unknown system                          
           1
     8.274085    4.794930    0.000000
    -8.261393    4.772959    0.000000
     0.000000    0.000000   30.000000
   V    Mo   W    S 
   3   3   3  18
Direct configuration=    14
  -0.00067952 -0.00152345  0.00009760
   1.00259696  0.33206204  0.00042117
   0.34017518  0.67161003 -0.00003176
   0.35005492  0.01608949 -0.00013596
   0.34492647  0.32750038  0.00025180
   0.65471150 -0.00016467 -0.00026044
   0.00064250  0.67289759  0.00002031
   0.64555261  0.31565577  0.00000708
   0.66463397  0.66691090 -0.00033508
   0.10721989  0.21970659  0.95045868
   0.21762281  0.10768281  0.05199228
   0.11439181  0.55339733  0.95058690
   0.22180335  0.44634905  0.04888454
   0.11049449  0.89318238  0.94911945
   0.22512677  0.77688786  0.05022949
   0.44447139  0.22152501  0.94363429
   0.55601603  0.11139629  0.05566644
   0.44111240  0.55757022  0.94873334
   0.55848807  0.44494852  0.05383648
   0.43935802  0.88257540  0.94714268
   0.54914010  0.77427306  0.05199650
   0.78169840  0.22553176  0.94881146
   0.89306731  0.11312942  0.04961851
   0.77525794  0.55154016  0.94855470
   0.88759941  0.44023306  0.04951649
   0.78223226  0.89254818  0.94935851
   0.89049941  0.78469925  0.05182445
unknown system                          
           1
     8.278864    4.798412    0.000000
    -8.264961    4.774348    0.000000
     0.000000    0.000000   30.000000
   V    Mo   W    S 
   3   3   3  18
Direct configuration=    15
  -0.00037320 -0.00162555  0.00011447
   1.00312694  0.33156755  0.00047212
   0.34038633  0.67197746 -0.00006899
   0.34989782  0.01600922 -0.00013626
   0.34549106  0.32752801  0.00022137
   0.65404590 -0.00020960 -0.00024937
   0.00204287  0.67429520  0.00004988
   0.64461775  0.31485505  0.00005552
   0.66373194  0.66656402 -0.00032710
   0.10731126  0.21968697  0.95047357
   0.21779616  0.10783447  0.05197236
   0.11440840  0.55358666  0.95065302
   0.22210637  0.44626985  0.04877777
   0.11055141  0.89344757  0.94899486
   0.22532823  0.77705394  0.05031389
   0.44440057  0.22137587  0.94346686
   0.55582707  0.11126381  0.05577770
   0.44100240  0.55742085  0.94869033
   0.55863218  0.44495913  0.05388247
   0.43928812  0.88263651  0.94707861
   0.54908346  0.77422658  0.05203554
   0.78148620  0.22550344  0.94889816
   0.89282321  0.11287444  0.04954941
   0.77539196  0.55144489  0.94883141
   0.88736854  0.44040174  0.04920231
   0.78199652  0.89255350  0.94949393
   0.89044498  0.78471287  0.05177605
unknown system                          
           1
     8.274349    4.795039    0.000000
    -8.261493    4.772786    0.000000
     0.000000    0.000000   30.000000
   V    Mo   W    S 
   3   3   3  18
Direct configuration=    16
  -0.00056012 -0.00209640  0.00013347
   1.00399817  0.33123123  0.00051059
   0.34070774  0.67234686 -0.00012472
   0.35010031  0.01608232 -0.00015601
   0.34614387  0.32758102  0.00017563
   0.65320661 -0.00035769 -0.00023431
   0.00296445  0.67568001  0.00007661
   0.64353489  0.31396350  0.00008662
   0.66332746  0.66641401 -0.00032487
   0.10741486  0.21964083  0.95051070
   0.21798941  0.10794996  0.05190899
   0.11444433  0.55381645  0.95076529
   0.22249085  0.44624003  0.04867029
   0.11060453  0.89370935  0.94892672
   0.22543475  0.77721442  0.05030931
   0.44438808  0.22123100  0.94332328
   0.55566356  0.11117151  0.05588868
   0.44103494  0.55734739  0.94869486
   0.55880407  0.44499231  0.05391781
   0.43916975  0.88267883  0.94702935
   0.54901277  0.77416747  0.05204988
   0.78122978  0.22546156  0.94903871
   0.89257009  0.11264822  0.04945719
   0.77541240  0.55126243  0.94907573
   0.88708694  0.44049414  0.04888174
   0.78170461  0.89256709  0.94962072
   0.89033536  0.78477660  0.05178763
unknown system                          
           1
     8.274548    4.795241    0.000000
    -8.261843    4.773248    0.000000
     0.000000    0.000000   30.000000
   V    Mo   W    S 
   3   3   3  18
Direct configuration=    17
  -0.00036663 -0.00170154  0.00011104
   1.00323017  0.33157216  0.00047843
   0.34055543  0.67211000 -0.00007220
   0.35012770  0.01618068 -0.00013661
   0.34573637  0.32751925  0.00020535
   0.65374898 -0.00028414 -0.00025015
   0.00205352  0.67437364  0.00005444
   0.64435068  0.31460846  0.00005664
   0.66358689  0.66653524 -0.00032900
   0.10736133  0.21970993  0.95050563
   0.21786680  0.10786383  0.05196236
   0.11441479  0.55365251  0.95068778
   0.22219702  0.44624117  0.04872316
   0.11060547  0.89348731  0.94901107
   0.22534230  0.77711764  0.05027003
   0.44443413  0.22136219  0.94342583
   0.55580862  0.11125761  0.05579997
   0.44101694  0.55739872  0.94870278
   0.55869936  0.44498809  0.05389323
   0.43925981  0.88265872  0.94708734
   0.54907809  0.77419614  0.05202990
   0.78140256  0.22547822  0.94892970
   0.89274721  0.11283155  0.04952312
   0.77536887  0.55139986  0.94887433
   0.88727883  0.44042460  0.04915108
   0.78189940  0.89253063  0.94952953
   0.89040983  0.78470197  0.05177514
unknown system                          
           1
     8.275518    4.797510    0.000000
    -8.261626    4.773461    0.000000
     0.000000    0.000000   30.000000
   V    Mo   W    S 
   3   3   3  18
Direct configuration=    18
  -0.00027363 -0.00154805  0.00010270
   1.00291814  0.33173693  0.00046747
   0.34056142  0.67204821 -0.00004919
   0.35020936  0.01629219 -0.00013086
   0.34564559  0.32748881  0.00021622
   0.65389597 -0.00027943 -0.00025114
   0.00160866  0.67379374  0.00004545
   0.64465938  0.31483914  0.00004526
   0.66365743  0.66657882 -0.00032761
   0.10736073  0.21975392  0.95051450
   0.21784872  0.10783765  0.05198401
   0.11440418  0.55359415  0.95066070
   0.22210566  0.44622924  0.04872789
   0.11064037  0.89341047  0.94905640
   0.22531930  0.77710867  0.05023733
   0.44446394  0.22140912  0.94344530
   0.55587698  0.11129198  0.05578140
   0.44099545  0.55740654  0.94869969
   0.55868105  0.44499034  0.05388932
   0.43927149  0.88265273  0.94710328
   0.54910381  0.77420783  0.05203117
   0.78144733  0.22547505  0.94888852
   0.89279581  0.11290016  0.04954186
   0.77532362  0.55142882  0.94879276
   0.88731728  0.44038299  0.04925983
   0.78195304  0.89251970  0.94949587
   0.89042337  0.78466476  0.05177177
unknown system                          
           1
     8.281578    4.801233    0.000000
    -8.266886    4.775803    0.000000
     0.000000    0.000000   30.000000
   V    Mo   W    S 
   3   3   3  18
Direct configuration=    19
  -0.00023021 -0.00172858  0.00010325
   1.00291727  0.33188743  0.00047707
   0.34108359  0.67230839 -0.00005023
   0.35065271  0.01675590 -0.00013483
   0.34616144  0.32748120  0.00020083
   0.65341136 -0.00053881 -0.00023624
   0.00110306  0.67358105  0.00004824
   0.64445484  0.31464959  0.00004910
   0.66349952  0.66659933 -0.00033424
   0.10750480  0.21979312  0.95059986
   0.21805062  0.10791332  0.05192930
   0.11440524  0.55373491  0.95072202
   0.22235208  0.44616904  0.04861762
   0.11073985  0.89344079  0.94914735
   0.22529049  0.77723820  0.05011005
   0.44455288  0.22138940  0.94335413
   0.55591113  0.11130166  0.05584917
   0.44099953  0.55732787  0.94869908
   0.55883695  0.44500625  0.05389494
   0.43915664  0.88270046  0.94707539
   0.54910881  0.77419534  0.05206657
   0.78120648  0.22533654  0.94893635
   0.89261869  0.11278550  0.04945879
   0.77518239  0.55133585  0.94885854
   0.88710722  0.44037443  0.04922776
   0.78179259  0.89252123  0.94958616
   0.89034450  0.78465506  0.05174386
unknown system                          
           1
     8.283561    4.803310    0.000000
    -8.267892    4.776191    0.000000
     0.000000    0.000000   30.000000
   V    Mo   W    S 
   3   3   3  18
Direct configuration=    20
  -0.00044013 -0.00204214  0.00012695
   1.00373821  0.33146482  0.00050672
   0.34103235  0.67244319 -0.00010717
   0.35045930  0.01648131 -0.00015601
   0.34638545  0.32754161  0.00017186
   0.65303197 -0.00048664 -0.00022201
   0.00226057  0.67502617  0.00007243
   0.64366570  0.31401650  0.00008027
   0.66327829  0.66645352 -0.00032044
   0.10749561  0.21971621  0.95057042
   0.21810190  0.10797481  0.05190456
   0.11443042  0.55383275  0.95077777
   0.22254812  0.44618540  0.04860695
   0.11070945  0.89367032  0.94901341
   0.22540700  0.77729397  0.05020699
   0.44447398  0.22125921  0.94327932
   0.55574007  0.11120257  0.05591802
   0.44101122  0.55730350  0.94868119
   0.55888621  0.44501240  0.05392452
   0.43910413  0.88270297  0.94702044
   0.54903665  0.77417107  0.05208119
   0.78113909  0.22538166  0.94903112
   0.89251017  0.11265089  0.04942482
   0.77527598  0.55121853  0.94903405
   0.88699536  0.44043637  0.04895750
   0.78165273  0.89256508  0.94963738
   0.89028463  0.78473843  0.05177763
unknown system                          
           1
     8.280755    4.801058    0.000000
    -8.265568    4.774772    0.000000
     0.000000    0.000000   30.000000
   V    Mo   W    S 
   3   3   3  18
Direct configuration=    21
  -0.00052524 -0.00229636  0.00014282
   1.00427995  0.33136333  0.00052855
   0.34135821  0.67268620 -0.00014636
   0.35064554  0.01658110 -0.00017345
   0.34685666  0.32762856  0.00013833
   0.65244956 -0.00064686 -0.00020511
   0.00265743  0.67571869  0.00009160
   0.64304811  0.31349310  0.00010026
   0.66298227  0.66634387 -0.00031266
   0.10757899  0.21971160  0.95060053
   0.21826246  0.10806600  0.05186195
   0.11445445  0.55397219  0.95085466
   0.22280524  0.44617968  0.04853397
   0.11074418  0.89380662  0.94897929
   0.22544264  0.77737420  0.05018161
   0.44449512  0.22118167  0.94319592
   0.55564591  0.11114754  0.05598767
   0.44102899  0.55726009  0.94867160
   0.55900158  0.44503029  0.05394335
   0.43900582  0.88272065  0.94697856
   0.54897391  0.77413799  0.05210805
   0.78097022  0.22532049  0.94912357
   0.89233923  0.11251828  0.04935692
   0.77524400  0.55109879  0.94917448
   0.88682308  0.44045879  0.04877798
   0.78146457  0.89258761  0.94971731
   0.89018156  0.78477035  0.05178851
unknown system                          
           1
     8.286147    4.806185    0.000000
    -8.269124    4.776723    0.000000
     0.000000    0.000000   30.000000
   V    Mo   W    S 
   3   3   3  18
Direct configuration=    22
  -0.00060002 -0.00239607  0.00015190
   1.00456239  0.33122557  0.00053914
   0.34126628  0.67272166 -0.00016306
   0.35049547  0.01636564 -0.00017787
   0.34687783  0.32769878  0.00013506
   0.65234986 -0.00065406 -0.00020937
   0.00322691  0.67629010  0.00009657
   0.64278547  0.31332346  0.00010622
   0.66286816  0.66626215 -0.00031874
   0.10757148  0.21967237  0.95057218
   0.21824372  0.10807589  0.05185257
   0.11448356  0.55401556  0.95086825
   0.22285017  0.44621886  0.04854382
   0.11070761  0.89385928  0.94892545
   0.22547995  0.77734825  0.05022780
   0.44444568  0.22114274  0.94319896
   0.55558505  0.11111944  0.05598980
   0.44103517  0.55727902  0.94868930
   0.55898463  0.44501698  0.05394035
   0.43901421  0.88270227  0.94698247
   0.54893864  0.77412310  0.05208566
   0.78096622  0.22535427  0.94915244
   0.89231479  0.11247814  0.04936010
   0.77532619  0.55109506  0.94924619
   0.88681433  0.44051146  0.04868529
   0.78143050  0.89258276  0.94973059
   0.89019020  0.78478177  0.05178880
unknown system                          
           1
     8.297938    4.815576    0.000000
    -8.278526    4.781980    0.000000
     0.000000    0.000000   30.000000
   V    Mo   W    S 
   3   3   3  18
Direct configuration=    23
  -0.00070185 -0.00269330  0.00016310
   1.00505985  0.33117190  0.00055476
   0.34175337  0.67298815 -0.00020040
   0.35079104  0.01655932 -0.00019404
   0.34738665  0.32779678  0.00010417
   0.65175928 -0.00083374 -0.00018872
   0.00327764  0.67680842  0.00011388
   0.64228295  0.31282969  0.00012832
   0.66269119  0.66624945 -0.00030573
   0.10768483  0.21966381  0.95062418
   0.21845437  0.10818628  0.05179069
   0.11449340  0.55417253  0.95095415
   0.22315875  0.44620030  0.04845998
   0.11072849  0.89398477  0.94892981
   0.22547416  0.77744726  0.05016061
   0.44451633  0.22107936  0.94310804
   0.55548914  0.11106290  0.05606414
   0.44108641  0.55722476  0.94866086
   0.55911774  0.44501836  0.05395245
   0.43890576  0.88275360  0.94692930
   0.54886990  0.77409899  0.05213267
   0.78072315  0.22523290  0.94924980
   0.89211585  0.11231649  0.04927322
   0.77520888  0.55094369  0.94937407
   0.88658959  0.44048910  0.04852995
   0.78123365  0.89262209  0.94983088
   0.89006393  0.78484059  0.05179975
unknown system                          
           1
     8.293018    4.810729    0.000000
    -8.275093    4.779708    0.000000
     0.000000    0.000000   30.000000
   V    Mo   W    S 
   3   3   3  18
Direct configuration=    24
  -0.00107252 -0.00343244  0.00021503
   1.00687156  0.33078955  0.00060867
   0.34247564  0.67352825 -0.00032084
   0.35082557  0.01627160 -0.00024772
   0.34832050  0.32823257  0.00002459
   0.65037569 -0.00124762 -0.00014034
   0.00478142  0.67918663  0.00016963
   0.64082742  0.31161044  0.00019551
   0.66201976  0.66599037 -0.00027353
   0.10785419  0.21955776  0.95062087
   0.21877484  0.10841838  0.05166118
   0.11455249  0.55451792  0.95113233
   0.22381935  0.44629980  0.04837071
   0.11067890  0.89437346  0.94875719
   0.22555212  0.77750953  0.05018468
   0.44447390  0.22084051  0.94292948
   0.55514443  0.11084786  0.05624521
   0.44118683  0.55719476  0.94860011
   0.55934185  0.44502360  0.05400592
   0.43869337  0.88274065  0.94678756