       N       E                     dE             d eps       ncg     rms          rms(c)
DAV:   1     0.112394203893E+04    0.11239E+04   -0.35868E+04  8160   0.577E+02
DAV:   2     0.757391406505E-01   -0.11239E+04   -0.10787E+04 11080   0.173E+02
DAV:   3    -0.199643203238E+03   -0.19972E+03   -0.19181E+03 10960   0.824E+01
DAV:   4    -0.208861328978E+03   -0.92181E+01   -0.88973E+01 11800   0.260E+01
DAV:   5    -0.209222003560E+03   -0.36067E+00   -0.35971E+00 11440   0.390E+00    0.274E+01
DAV:   6    -0.236371002117E+03   -0.27149E+02   -0.11191E+02 12720   0.602E+01    0.592E+01
DAV:   7    -0.196822363027E+03    0.39549E+02   -0.17545E+02 13320   0.151E+02    0.206E+01
DAV:   8    -0.190299536344E+03    0.65228E+01   -0.21196E+01 11560   0.135E+01    0.140E+01
DAV:   9    -0.188295660409E+03    0.20039E+01   -0.37488E+00 12120   0.644E+00    0.935E+00
DAV:  10    -0.187100415447E+03    0.11952E+01   -0.17515E+00 13320   0.770E+00    0.325E+00
DAV:  11    -0.187014176894E+03    0.86239E-01   -0.66070E-01 12320   0.235E+00    0.243E+00
DAV:  12    -0.186973939402E+03    0.40237E-01   -0.37732E-01 12840   0.252E+00    0.273E+00
DAV:  13    -0.186930291120E+03    0.43648E-01   -0.19339E-01 13280   0.280E+00    0.206E+00
DAV:  14    -0.186892021268E+03    0.38270E-01   -0.95609E-02 13000   0.183E+00    0.614E-01
DAV:  15    -0.186887533506E+03    0.44878E-02   -0.15484E-02 11920   0.430E-01    0.492E-01
DAV:  16    -0.186887390245E+03    0.14326E-03   -0.10942E-02 13160   0.518E-01    0.593E-01
DAV:  17    -0.186885112616E+03    0.22776E-02   -0.10394E-02 12560   0.543E-01    0.294E-01
DAV:  18    -0.186884014797E+03    0.10978E-02   -0.26133E-03 12800   0.230E-01    0.187E-01
DAV:  19    -0.186883812424E+03    0.20237E-03   -0.87421E-04 11400   0.149E-01    0.476E-02
DAV:  20    -0.186884679582E+03   -0.86716E-03   -0.84595E-04  9040   0.583E-02    0.460E-02
DAV:  21    -0.186885433445E+03   -0.75386E-03   -0.22873E-04  8200   0.515E-02    0.335E-02
DAV:  22    -0.186886288031E+03   -0.85459E-03   -0.11969E-04  7160   0.315E-02    0.384E-02
DAV:  23    -0.186887532371E+03   -0.12443E-02   -0.15345E-04  7440   0.484E-02    0.222E-02
DAV:  24    -0.186888064875E+03   -0.53250E-03   -0.29668E-05  6800   0.234E-02    0.509E-03
DAV:  25    -0.186888473106E+03   -0.40823E-03   -0.20747E-05  5440   0.101E-02    0.521E-03
DAV:  26    -0.186888710666E+03   -0.23756E-03   -0.91593E-06  6840   0.799E-03    0.163E-03
DAV:  27    -0.186888798141E+03   -0.87475E-04   -0.31702E-06  7200   0.388E-03
   1 F= -.18688880E+03 E0= -.18671741E+03  d E =-.186889E+03
       N       E                     dE             d eps       ncg     rms          rms(c)
DAV:   1    -0.187544160862E+03   -0.65545E+00   -0.27353E+02  8160   0.352E+01    0.470E+00
DAV:   2    -0.189651980943E+03   -0.21078E+01   -0.20594E+01 12320   0.160E+01    0.103E+01
DAV:   3    -0.189341331672E+03    0.31065E+00   -0.45754E+00 12400   0.127E+01    0.618E+00
DAV:   4    -0.188806504070E+03    0.53483E+00   -0.57724E-01 12520   0.429E+00    0.188E+00
DAV:   5    -0.188959674094E+03   -0.15317E+00   -0.52448E-01 12360   0.372E+00    0.590E+00
DAV:   6    -0.188779376178E+03    0.18030E+00   -0.85746E-01 12800   0.448E+00    0.215E+00
DAV:   7    -0.188766324299E+03    0.13052E-01   -0.20681E-01 11600   0.228E+00    0.227E+00
DAV:   8    -0.188735959214E+03    0.30365E-01   -0.12818E-01 13000   0.214E+00    0.147E+00
DAV:   9    -0.188715953241E+03    0.20006E-01   -0.35992E-02 12280   0.950E-01    0.342E-01
DAV:  10    -0.188715241696E+03    0.71155E-03   -0.45872E-03 10840   0.224E-01    0.198E-01
DAV:  11    -0.188714731013E+03    0.51068E-03   -0.25223E-03 12560   0.164E-01    0.102E-01
DAV:  12    -0.188714875551E+03   -0.14454E-03   -0.79052E-04 11680   0.839E-02    0.895E-02
DAV:  13    -0.188714808499E+03    0.67052E-04   -0.25224E-04  7920   0.579E-02
   2 F= -.18871481E+03 E0= -.18857528E+03  d E =-.182601E+01
       N       E                     dE             d eps       ncg     rms          rms(c)
DAV:   1    -0.190645791534E+03   -0.19309E+01   -0.31670E+01  9080   0.143E+01    0.442E+00
DAV:   2    -0.190564621303E+03    0.81170E-01   -0.27497E+00 11120   0.928E+00    0.703E+00
DAV:   3    -0.190135629543E+03    0.42899E+00   -0.13635E+00 12320   0.856E+00    0.427E+00
DAV:   4    -0.189923233697E+03    0.21240E+00   -0.76136E-01 12800   0.437E+00    0.253E+00
DAV:   5    -0.189900343333E+03    0.22890E-01   -0.37957E-01 12240   0.307E+00    0.282E+00
DAV:   6    -0.189825945448E+03    0.74398E-01   -0.15628E-01 12360   0.251E+00    0.856E-01
DAV:   7    -0.189817289913E+03    0.86555E-02   -0.17687E-02 11760   0.630E-01    0.248E-01
DAV:   8    -0.189818320319E+03   -0.10304E-02   -0.51017E-03 12520   0.397E-01    0.404E-01
DAV:   9    -0.189817177546E+03    0.11428E-02   -0.27380E-03 11200   0.331E-01    0.137E-01
DAV:  10    -0.189817443620E+03   -0.26607E-03   -0.91987E-04 10080   0.121E-01    0.128E-01
DAV:  11    -0.189817227976E+03    0.21564E-03   -0.45071E-04  8600   0.763E-02    0.206E-02
DAV:  12    -0.189817250958E+03   -0.22982E-04   -0.76851E-05  6920   0.289E-02
   3 F= -.18981725E+03 E0= -.18969784E+03  d E =-.110244E+01
       N       E                     dE             d eps       ncg     rms          rms(c)
DAV:   1    -0.191415462074E+03   -0.15982E+01   -0.82488E+01  8160   0.206E+01    0.459E+00
DAV:   2    -0.191225815738E+03    0.18965E+00   -0.54481E+00 13160   0.749E+00    0.439E+00
DAV:   3    -0.191375769713E+03   -0.14995E+00   -0.16035E+00 12240   0.895E+00    0.657E+00
DAV:   4    -0.190998462476E+03    0.37731E+00   -0.13947E+00 12320   0.777E+00    0.299E+00
DAV:   5    -0.190920775905E+03    0.77687E-01   -0.39169E-01 12400   0.344E+00    0.252E+00
DAV:   6    -0.190869233895E+03    0.51542E-01   -0.21075E-01 12400   0.305E+00    0.160E+00
DAV:   7    -0.190846298754E+03    0.22935E-01   -0.61053E-02 12640   0.138E+00    0.418E-01
DAV:   8    -0.190844639197E+03    0.16596E-02   -0.86849E-03 11520   0.462E-01    0.360E-01
DAV:   9    -0.190843734654E+03    0.90454E-03   -0.28679E-03 10560   0.357E-01    0.172E-01
DAV:  10    -0.190843968894E+03   -0.23424E-03   -0.13473E-03 11240   0.157E-01    0.113E-01
DAV:  11    -0.190843779648E+03    0.18925E-03   -0.59891E-04 10320   0.887E-02    0.433E-02
DAV:  12    -0.190843786816E+03   -0.71676E-05   -0.10266E-04  7040   0.394E-02
   4 F= -.19084379E+03 E0= -.19073582E+03  d E =-.102654E+01
       N       E                     dE             d eps       ncg     rms          rms(c)
DAV:   1    -0.192145560996E+03   -0.13018E+01   -0.17167E+02  8160   0.290E+01    0.547E+00
DAV:   2    -0.191923979087E+03    0.22158E+00   -0.90984E+00 10880   0.769E+00    0.341E+00
DAV:   3    -0.191798445513E+03    0.12553E+00   -0.14600E+00 11800   0.608E+00    0.368E+00
DAV:   4    -0.191821166704E+03   -0.22721E-01   -0.10758E+00 12360   0.755E+00    0.435E+00
DAV:   5    -0.191552097509E+03    0.26907E+00   -0.43867E-01 12360   0.453E+00    0.814E-01
DAV:   6    -0.191542464921E+03    0.96326E-02   -0.80402E-02 11440   0.116E+00    0.546E-01
DAV:   7    -0.191547119578E+03   -0.46547E-02   -0.38107E-02 11960   0.117E+00    0.102E+00
DAV:   8    -0.191537696697E+03    0.94229E-02   -0.20499E-02 11560   0.870E-01    0.171E-01
DAV:   9    -0.191538488613E+03   -0.79192E-03   -0.29008E-03 11520   0.290E-01    0.293E-01
DAV:  10    -0.191538006200E+03    0.48241E-03   -0.29901E-03 11800   0.351E-01    0.183E-01
DAV:  11    -0.191537738266E+03    0.26793E-03   -0.89929E-04 10040   0.160E-01    0.512E-02
DAV:  12    -0.191537709942E+03    0.28324E-04   -0.11565E-04  6480   0.431E-02
   5 F= -.19153771E+03 E0= -.19142713E+03  d E =-.693923E+00
       N       E                     dE             d eps       ncg     rms          rms(c)
DAV:   1    -0.191611278201E+03   -0.73540E-01   -0.52819E+00  8160   0.486E+00    0.640E-01
DAV:   2    -0.191663713367E+03   -0.52435E-01   -0.28050E-01 13440   0.274E+00    0.206E+00
DAV:   3    -0.191622566044E+03    0.41147E-01   -0.98300E-02 12520   0.207E+00    0.458E-01
DAV:   4    -0.191625489096E+03   -0.29231E-02   -0.21570E-02 10240   0.919E-01    0.766E-01
DAV:   5    -0.191619560862E+03    0.59282E-02   -0.13271E-02 11160   0.743E-01    0.232E-01
DAV:   6    -0.191620293090E+03   -0.73223E-03   -0.52904E-03 11120   0.386E-01    0.381E-01
DAV:   7    -0.191619350145E+03    0.94294E-03   -0.46431E-03 11200   0.440E-01    0.218E-01
DAV:   8    -0.191618844757E+03    0.50539E-03   -0.10078E-03  9840   0.174E-01    0.337E-02
DAV:   9    -0.191618854846E+03   -0.10089E-04   -0.98044E-05  6320   0.345E-02
   6 F= -.19161885E+03 E0= -.19150734E+03  d E =-.811449E-01
       N       E                     dE             d eps       ncg     rms          rms(c)
DAV:   1    -0.191692462714E+03   -0.73618E-01   -0.54196E+00  8160   0.490E+00    0.544E-01
DAV:   2    -0.191727386886E+03   -0.34924E-01   -0.18113E-01 13040   0.190E+00    0.171E+00
DAV:   3    -0.191699813007E+03    0.27574E-01   -0.79349E-02 12480   0.179E+00    0.495E-01
DAV:   4    -0.191700376775E+03   -0.56377E-03   -0.15739E-02 11000   0.752E-01    0.565E-01
DAV:   5    -0.191697112946E+03    0.32638E-02   -0.80315E-03 11120   0.609E-01    0.203E-01
DAV:   6    -0.191697175633E+03   -0.62688E-04   -0.30801E-03 11400   0.292E-01    0.259E-01
DAV:   7    -0.191697176939E+03   -0.13059E-05   -0.34823E-03 10600   0.379E-01    0.264E-01
DAV:   8    -0.191696489746E+03    0.68719E-03   -0.12456E-03  9200   0.212E-01    0.283E-02
DAV:   9    -0.191696513846E+03   -0.24100E-04   -0.85609E-05  5960   0.331E-02
   7 F= -.19169651E+03 E0= -.19158515E+03  d E =-.776590E-01
       N       E                     dE             d eps       ncg     rms          rms(c)
DAV:   1    -0.191764153345E+03   -0.67664E-01   -0.43630E+00  8160   0.443E+00    0.547E-01
DAV:   2    -0.191807649993E+03   -0.43497E-01   -0.19207E-01 11720   0.233E+00    0.204E+00
DAV:   3    -0.191769905229E+03    0.37745E-01   -0.93540E-02 12440   0.192E+00    0.395E-01
DAV:   4    -0.191771328270E+03   -0.14230E-02   -0.13363E-02 11400   0.742E-01    0.564E-01
DAV:   5    -0.191768070648E+03    0.32576E-02   -0.82314E-03 11080   0.609E-01    0.230E-01
DAV:   6    -0.191768762806E+03   -0.69216E-03   -0.45090E-03 11720   0.404E-01    0.385E-01
DAV:   7    -0.191767709670E+03    0.10531E-02   -0.36517E-03 11200   0.394E-01    0.148E-01
DAV:   8    -0.191767397004E+03    0.31267E-03   -0.61408E-04  9680   0.121E-01    0.211E-02
DAV:   9    -0.191767409542E+03   -0.12539E-04   -0.65593E-05  6840   0.259E-02
   8 F= -.19176741E+03 E0= -.19165737E+03  d E =-.708957E-01
       N       E                     dE             d eps       ncg     rms          rms(c)
DAV:   1    -0.191905514251E+03   -0.13812E+00   -0.34263E+01  8160   0.125E+01    0.143E+00
DAV:   2    -0.192193057444E+03   -0.28754E+00   -0.13495E+00 11440   0.574E+00    0.538E+00
DAV:   3    -0.191960053082E+03    0.23300E+00   -0.72102E-01 12320   0.513E+00    0.111E+00
DAV:   4    -0.191972814862E+03   -0.12762E-01   -0.94728E-02 12200   0.201E+00    0.177E+00
DAV:   5    -0.191943020369E+03    0.29794E-01   -0.66850E-02 11360   0.172E+00    0.650E-01
DAV:   6    -0.191944330342E+03   -0.13100E-02   -0.22684E-02 11760   0.101E+00    0.781E-01
DAV:   7    -0.191939762899E+03    0.45674E-02   -0.19310E-02 11720   0.104E+00    0.385E-01
DAV:   8    -0.191937297862E+03    0.24650E-02   -0.39676E-03 11160   0.361E-01    0.613E-02
DAV:   9    -0.191937327055E+03   -0.29193E-04   -0.56212E-04 10120   0.722E-02
   9 F= -.19193733E+03 E0= -.19183356E+03  d E =-.169918E+00
       N       E                     dE             d eps       ncg     rms          rms(c)
DAV:   1    -0.191975005376E+03   -0.37708E-01   -0.23167E+00  8160   0.327E+00    0.478E-01
DAV:   2    -0.191993755619E+03   -0.18750E-01   -0.11531E-01 12160   0.163E+00    0.135E+00
DAV:   3    -0.191978006683E+03    0.15749E-01   -0.43786E-02 12320   0.139E+00    0.386E-01
DAV:   4    -0.191978764343E+03   -0.75766E-03   -0.95801E-03 12240   0.674E-01    0.534E-01
DAV:   5    -0.191976399558E+03    0.23648E-02   -0.81336E-03 11200   0.626E-01    0.304E-01
DAV:   6    -0.191976709137E+03   -0.30958E-03   -0.40386E-03 11520   0.440E-01    0.353E-01
DAV:   7    -0.191975518489E+03    0.11906E-02   -0.23987E-03 10920   0.356E-01    0.676E-02
DAV:   8    -0.191975458342E+03    0.60147E-04   -0.16425E-04  6160   0.652E-02
  10 F= -.19197546E+03 E0= -.19187268E+03  d E =-.381313E-01
       N       E                     dE             d eps       ncg     rms          rms(c)
DAV:   1    -0.192031025539E+03   -0.55507E-01   -0.90889E+00  8160   0.635E+00    0.697E-01
DAV:   2    -0.192088849836E+03   -0.57824E-01   -0.30362E-01 11760   0.257E+00    0.225E+00
DAV:   3    -0.192045295322E+03    0.43555E-01   -0.11517E-01 12280   0.226E+00    0.562E-01
DAV:   4    -0.192048729277E+03   -0.34340E-02   -0.19473E-02 11240   0.922E-01    0.893E-01
DAV:   5    -0.192041552137E+03    0.71771E-02   -0.14458E-02 10840   0.851E-01    0.286E-01
DAV:   6    -0.192041535182E+03    0.16955E-04   -0.37707E-03 12200   0.336E-01    0.239E-01
DAV:   7    -0.192041084168E+03    0.45101E-03   -0.26204E-03 11960   0.393E-01    0.180E-01
DAV:   8    -0.192040658502E+03    0.42567E-03   -0.71701E-04  9680   0.195E-01    0.303E-02
DAV:   9    -0.192040659420E+03   -0.91834E-06   -0.10302E-04  6800   0.378E-02
  11 F= -.19204066E+03 E0= -.19194066E+03  d E =-.652011E-01
       N       E                     dE             d eps       ncg     rms          rms(c)
DAV:   1    -0.192054954993E+03   -0.14296E-01   -0.61355E-01  8160   0.166E+00    0.174E-01
DAV:   2    -0.192055925443E+03   -0.97045E-03   -0.15372E-02 13320   0.429E-01    0.217E-01
DAV:   3    -0.192055822208E+03    0.10324E-03   -0.26011E-03 12280   0.372E-01    0.210E-01
DAV:   4    -0.192055507994E+03    0.31421E-03   -0.14048E-03  9960   0.249E-01    0.164E-01
DAV:   5    -0.192055437799E+03    0.70195E-04   -0.10623E-03  9120   0.228E-01    0.147E-01
DAV:   6    -0.192055278579E+03    0.15922E-03   -0.56452E-04  8720   0.152E-01    0.719E-02
DAV:   7    -0.192055287750E+03   -0.91707E-05   -0.25481E-04  8440   0.122E-01
  12 F= -.19205529E+03 E0= -.19195568E+03  d E =-.146283E-01
       N       E                     dE             d eps       ncg     rms          rms(c)
DAV:   1    -0.192057673005E+03   -0.23944E-02   -0.12535E-02  8160   0.249E-01    0.288E-02
DAV:   2    -0.192057735547E+03   -0.62542E-04   -0.37762E-04 10080   0.805E-02
  13 F= -.19205774E+03 E0= -.19195810E+03  d E =-.244780E-02
       N       E                     dE             d eps       ncg     rms          rms(c)
DAV:   1    -0.192085851132E+03   -0.28178E-01   -0.19184E+00  8160   0.291E+00    0.286E-01
DAV:   2    -0.192091839607E+03   -0.59885E-02   -0.49591E-02 11560   0.805E-01    0.620E-01
DAV:   3    -0.192088967510E+03    0.28721E-02   -0.11954E-02 12440   0.753E-01    0.315E-01
DAV:   4    -0.192088744217E+03    0.22329E-03   -0.30706E-03 11480   0.371E-01    0.297E-01
DAV:   5    -0.192088059231E+03    0.68499E-03   -0.22116E-03  9840   0.342E-01    0.165E-01
DAV:   6    -0.192088283442E+03   -0.22421E-03   -0.12239E-03 10400   0.254E-01    0.203E-01
DAV:   7    -0.192087859778E+03    0.42366E-03   -0.82268E-04 10000   0.231E-01    0.502E-02
DAV:   8    -0.192087823083E+03    0.36696E-04   -0.77494E-05  5880   0.530E-02
  14 F= -.19208782E+03 E0= -.19198989E+03  d E =-.300875E-01
       N       E                     dE             d eps       ncg     rms          rms(c)
DAV:   1    -0.192079594083E+03    0.82657E-02   -0.17752E-01  8160   0.900E-01    0.118E-01
DAV:   2    -0.192080086832E+03   -0.49275E-03   -0.69144E-03 11480   0.282E-01    0.194E-01
DAV:   3    -0.192080080649E+03    0.61823E-05   -0.19772E-03 10520   0.296E-01    0.208E-01
DAV:   4    -0.192079659098E+03    0.42155E-03   -0.67339E-04  8160   0.170E-01    0.472E-02
DAV:   5    -0.192079722620E+03   -0.63522E-04   -0.26487E-04  7240   0.118E-01
  15 F= -.19207972E+03 E0= -.19198134E+03  d E =0.810046E-02
       N       E                     dE             d eps       ncg     rms          rms(c)
DAV:   1    -0.192110790699E+03   -0.31132E-01   -0.21104E+00  8160   0.307E+00    0.313E-01
DAV:   2    -0.192116322246E+03   -0.55315E-02   -0.52592E-02 11600   0.881E-01    0.606E-01
DAV:   3    -0.192113618183E+03    0.27041E-02   -0.11639E-02 12560   0.793E-01    0.325E-01
DAV:   4    -0.192112451584E+03    0.11666E-02   -0.24437E-03 11320   0.317E-01    0.123E-01
DAV:   5    -0.192112538882E+03   -0.87297E-04   -0.14429E-03 12280   0.221E-01    0.191E-01
DAV:   6    -0.192112468290E+03    0.70592E-04   -0.14995E-03 10160   0.280E-01    0.175E-01
DAV:   7    -0.192112267539E+03    0.20075E-03   -0.68848E-04  8320   0.181E-01    0.102E-01
DAV:   8    -0.192112160951E+03    0.10659E-03   -0.17287E-04  6480   0.108E-01    0.184E-02
DAV:   9    -0.192112161853E+03   -0.90209E-06   -0.29107E-05  6800   0.251E-02
  16 F= -.19211216E+03 E0= -.19201540E+03  d E =-.324392E-01
       N       E                     dE             d eps       ncg     rms          rms(c)
DAV:   1    -0.192136436466E+03   -0.24276E-01   -0.11887E+00  8160   0.231E+00    0.220E-01
DAV:   2    -0.192138445083E+03   -0.20086E-02   -0.29718E-02 11800   0.510E-01    0.221E-01
DAV:   3    -0.192139187548E+03   -0.74247E-03   -0.42818E-03 12200   0.469E-01    0.365E-01
DAV:   4    -0.192138113437E+03    0.10741E-02   -0.26233E-03 10040   0.371E-01    0.191E-01
DAV:   5    -0.192137925589E+03    0.18785E-03   -0.10776E-03  9560   0.245E-01    0.138E-01
DAV:   6    -0.192137842916E+03    0.82673E-04   -0.67163E-04  9960   0.169E-01
  17 F= -.19213784E+03 E0= -.19204291E+03  d E =-.256811E-01
       N       E                     dE             d eps       ncg     rms          rms(c)
DAV:   1    -0.192125386032E+03    0.12540E-01   -0.25471E-01  8160   0.109E+00    0.154E-01
DAV:   2    -0.192128946178E+03   -0.35601E-02   -0.12342E-02 12760   0.642E-01    0.563E-01
DAV:   3    -0.192125647716E+03    0.32985E-02   -0.49748E-03 11400   0.568E-01    0.843E-02
DAV:   4    -0.192125652708E+03   -0.49928E-05   -0.37722E-04  8640   0.117E-01
  18 F= -.19212565E+03 E0= -.19202978E+03  d E =0.121902E-01
       N       E                     dE             d eps       ncg     rms          rms(c)
DAV:   1    -0.192120342165E+03    0.53056E-02   -0.79056E-01  8160   0.195E+00    0.319E-01
DAV:   2    -0.192119451705E+03    0.89046E-03   -0.22305E-02 11880   0.478E-01    0.257E-01
DAV:   3    -0.192120072477E+03   -0.62077E-03   -0.57719E-03 11360   0.565E-01    0.389E-01
DAV:   4    -0.192118767293E+03    0.13052E-02   -0.46509E-03 11240   0.524E-01    0.242E-01
DAV:   5    -0.192118772646E+03   -0.53530E-05   -0.26438E-03 11440   0.361E-01    0.277E-01
DAV:   6    -0.192118087615E+03    0.68503E-03   -0.14842E-03  9520   0.291E-01    0.960E-02
DAV:   7    -0.192118095188E+03   -0.75733E-05   -0.39750E-04  8200   0.135E-01
  19 F= -.19211810E+03 E0= -.19202152E+03  d E =0.755752E-02
       N       E                     dE             d eps       ncg     rms          rms(c)
DAV:   1    -0.192162820457E+03   -0.44733E-01   -0.37781E+00  8160   0.423E+00    0.502E-01
DAV:   2    -0.192167205639E+03   -0.43852E-02   -0.10473E-01 11640   0.966E-01    0.491E-01
DAV:   3    -0.192171500113E+03   -0.42945E-02   -0.20241E-02 12080   0.109E+00    0.829E-01
DAV:   4    -0.192164450208E+03    0.70499E-02   -0.11577E-02 11120   0.831E-01    0.310E-01
DAV:   5    -0.192165548159E+03   -0.10980E-02   -0.63752E-03 10320   0.559E-01    0.491E-01
DAV:   6    -0.192163703693E+03    0.18445E-02   -0.50237E-03 10840   0.489E-01    0.187E-01
DAV:   7    -0.192163517589E+03    0.18610E-03   -0.13052E-03  9760   0.274E-01    0.140E-01
DAV:   8    -0.192163270514E+03    0.24708E-03   -0.38075E-04  9320   0.157E-01    0.317E-02
DAV:   9    -0.192163257714E+03    0.12800E-04   -0.50444E-05  6200   0.357E-02
  20 F= -.19216326E+03 E0= -.19206954E+03  d E =-.451625E-01
       N       E                     dE             d eps       ncg     rms          rms(c)
DAV:   1    -0.192201731184E+03   -0.38461E-01   -0.25988E+00  8160   0.345E+00    0.370E-01
DAV:   2    -0.192207538516E+03   -0.58073E-02   -0.71266E-02 11400   0.883E-01    0.583E-01
DAV:   3    -0.192207040605E+03    0.49791E-03   -0.14007E-02 12480   0.852E-01    0.549E-01
DAV:   4    -0.192204314330E+03    0.27263E-02   -0.52742E-03 11600   0.491E-01    0.195E-01
DAV:   5    -0.192204379706E+03   -0.65376E-04   -0.22256E-03 11600   0.350E-01    0.235E-01
DAV:   6    -0.192203944963E+03    0.43474E-03   -0.17177E-03 12080   0.328E-01    0.115E-01
DAV:   7    -0.192203747475E+03    0.19749E-03   -0.42441E-04  8920   0.133E-01    0.571E-02
DAV:   8    -0.192203723631E+03    0.23844E-04   -0.10523E-04  6880   0.846E-02
  21 F= -.19220372E+03 E0= -.19211294E+03  d E =-.404659E-01
       N       E                     dE             d eps       ncg     rms          rms(c)
DAV:   1    -0.192214579489E+03   -0.10832E-01   -0.17424E-01  8160   0.894E-01    0.102E-01
DAV:   2    -0.192215215672E+03   -0.63618E-03   -0.52718E-03 11400   0.277E-01    0.219E-01
DAV:   3    -0.192214881480E+03    0.33419E-03   -0.12557E-03 10920   0.256E-01    0.116E-01
DAV:   4    -0.192214816529E+03    0.64951E-04   -0.31121E-04  8360   0.126E-01
  22 F= -.19221482E+03 E0= -.19212477E+03  d E =-.110929E-01
       N       E                     dE             d eps       ncg     rms          rms(c)
DAV:   1    -0.192229769241E+03   -0.14888E-01   -0.43708E-01  8160   0.144E+00    0.208E-01
DAV:   2    -0.192232391594E+03   -0.26224E-02   -0.17423E-02 11440   0.622E-01    0.523E-01
DAV:   3    -0.192230196942E+03    0.21947E-02   -0.56366E-03 11480   0.570E-01    0.212E-01
DAV:   4    -0.192229963180E+03    0.23376E-03   -0.13531E-03  9680   0.252E-01    0.164E-01
DAV:   5    -0.192229876369E+03    0.86811E-04   -0.10726E-03 10080   0.269E-01    0.149E-01
DAV:   6    -0.192229684042E+03    0.19233E-03   -0.55945E-04  8760   0.170E-01    0.733E-02
DAV:   7    -0.192229680692E+03    0.33499E-05   -0.25681E-04  8480   0.131E-01
  23 F= -.19222968E+03 E0= -.19214098E+03  d E =-.148642E-01
       N       E                     dE             d eps       ncg     rms          rms(c)
DAV:   1    -0.192256958415E+03   -0.27274E-01   -0.94463E-01  8160   0.212E+00    0.297E-01
DAV:   2    -0.192258908176E+03   -0.19498E-02   -0.29020E-02 11240   0.648E-01    0.459E-01
DAV:   3    -0.192258173010E+03    0.73517E-03   -0.88422E-03 11840   0.723E-01    0.410E-01
DAV:   4    -0.192256833579E+03    0.13394E-02   -0.36518E-03 11240   0.424E-01    0.232E-01
DAV:   5    -0.192256746698E+03    0.86881E-04   -0.20719E-03 10120   0.370E-01    0.238E-01
DAV:   6    -0.192256210367E+03    0.53633E-03   -0.11253E-03  9520   0.245E-01    0.715E-02
DAV:   7    -0.192256193980E+03    0.16387E-04   -0.26311E-04  7560   0.109E-01
  24 F= -.19225619E+03 E0= -.19216978E+03  d E =-.265133E-01
       N       E                     dE             d eps       ncg     rms          rms(c)
DAV:   1    -0.192302167124E+03   -0.45957E-01   -0.29807E+00  8160   0.372E+00    0.445E-01
DAV:   2    -0.192317076732E+03   -0.14910E-01   -0.96549E-02 11400   0.135E+00    0.105E+00
DAV:   3    -0.192306744032E+03    0.10333E-01   -0.22908E-02 12120   0.120E+00    0.405E-01
DAV:   4    -0.192306432407E+03    0.31162E-03   -0.57368E-03 11400   0.544E-01    0.402E-01
DAV:   5    -0.192305031501E+03    0.14009E-02   -0.35665E-03 10640   0.493E-01    0.211E-01
DAV:   6    -0.192304929186E+03    0.10231E-03   -0.17732E-03 11440   0.306E-01    0.176E-01
DAV:   7    -0.192304804758E+03    0.12443E-03   -0.11708E-03 10760   0.293E-01    0.150E-01
DAV:   8    -0.192304504377E+03    0.30038E-03   -0.35786E-04  8840   0.150E-01    0.204E-02
DAV:   9    -0.192304507520E+03   -0.31428E-05   -0.45037E-05  6240   0.247E-02
  25 F= -.19230451E+03 E0= -.19222149E+03  d E =-.483135E-01
       N       E                     dE             d eps       ncg     rms          rms(c)
DAV:   1    -0.192312132899E+03   -0.76285E-02   -0.74487E-02  8160   0.590E-01    0.775E-02
DAV:   2    -0.192312520696E+03   -0.38780E-03   -0.26511E-03 11240   0.226E-01    0.182E-01
DAV:   3    -0.192312232246E+03    0.28845E-03   -0.74671E-04  9960   0.213E-01    0.764E-02
DAV:   4    -0.192312206889E+03    0.25357E-04   -0.16082E-04  6640   0.882E-02
  26 F= -.19231221E+03 E0= -.19222957E+03  d E =-.769937E-02
       N       E                     dE             d eps       ncg     rms          rms(c)
DAV:   1    -0.192283780510E+03    0.28452E-01   -0.14059E+00  8160   0.261E+00    0.424E-01
DAV:   2    -0.192290182009E+03   -0.64015E-02   -0.54716E-02 11840   0.110E+00    0.844E-01
DAV:   3    -0.192284028091E+03    0.61539E-02   -0.20044E-02 12320   0.116E+00    0.427E-01
DAV:   4    -0.192281864601E+03    0.21635E-02   -0.44383E-03 10920   0.436E-01    0.155E-01
DAV:   5    -0.192282073382E+03   -0.20878E-03   -0.22579E-03 11600   0.316E-01    0.271E-01
DAV:   6    -0.192281502488E+03    0.57089E-03   -0.16511E-03 10360   0.319E-01    0.131E-01
DAV:   7    -0.192281412814E+03    0.89674E-04   -0.44206E-04  8480   0.154E-01
  27 F= -.19228141E+03 E0= -.19219727E+03  d E =0.307941E-01
       N       E                     dE             d eps       ncg     rms          rms(c)
DAV:   1    -0.192278411779E+03    0.30907E-02   -0.12550E-02  8160   0.269E-01    0.539E-02
DAV:   2    -0.192278682100E+03   -0.27032E-03   -0.87092E-04 11920   0.196E-01    0.146E-01
DAV:   3    -0.192278416585E+03    0.26551E-03   -0.39368E-04  8880   0.177E-01    0.390E-02
DAV:   4    -0.192278415560E+03    0.10248E-05   -0.53888E-05  5920   0.525E-02
  28 F= -.19227842E+03 E0= -.19219417E+03  d E =0.299725E-02
       N       E                     dE             d eps       ncg     rms          rms(c)
DAV:   1    -0.192300190954E+03   -0.21774E-01   -0.10909E+00  8160   0.222E+00    0.293E-01
DAV:   2    -0.192312172268E+03   -0.11981E-01   -0.51994E-02 11120   0.124E+00    0.976E-01
DAV:   3    -0.192302277742E+03    0.98945E-02   -0.15349E-02 12160   0.101E+00    0.181E-01
DAV:   4    -0.192302541719E+03   -0.26398E-03   -0.17594E-03 11280   0.307E-01    0.265E-01
DAV:   5    -0.192301901474E+03    0.64024E-03   -0.12734E-03  9840   0.302E-01    0.107E-01
DAV:   6    -0.192301883320E+03    0.18154E-04   -0.50725E-04  9960   0.131E-01
  29 F= -.19230188E+03 E0= -.19221902E+03  d E =-.234678E-01
       N       E                     dE             d eps       ncg     rms          rms(c)
DAV:   1    -0.192304330059E+03   -0.24286E-02   -0.69030E-01  8160   0.187E+00    0.423E-01
DAV:   2    -0.192311231336E+03   -0.69013E-02   -0.45361E-02 10440   0.120E+00    0.106E+00
DAV:   3    -0.192302003976E+03    0.92274E-02   -0.23543E-02 11520   0.118E+00    0.398E-01
DAV:   4    -0.192301362143E+03    0.64183E-03   -0.59772E-03 11880   0.584E-01    0.402E-01
DAV:   5    -0.192300317588E+03    0.10446E-02   -0.47417E-03 10080   0.556E-01    0.285E-01
DAV:   6    -0.192299555031E+03    0.76256E-03   -0.23087E-03 11240   0.337E-01    0.167E-01
DAV:   7    -0.192299274209E+03    0.28082E-03   -0.69297E-04  9520   0.210E-01    0.516E-02
DAV:   8    -0.192299246470E+03    0.27739E-04   -0.67984E-05  6360   0.628E-02
  30 F= -.19229925E+03 E0= -.19221573E+03  d E =0.263685E-02
       N       E                     dE             d eps       ncg     rms          rms(c)
DAV:   1    -0.192332420729E+03   -0.33147E-01   -0.16037E+00  8160   0.271E+00    0.343E-01
DAV:   2    -0.192343034550E+03   -0.10614E-01   -0.56842E-02 11240   0.120E+00    0.891E-01
DAV:   3    -0.192334652543E+03    0.83820E-02   -0.14356E-02 11440   0.989E-01    0.265E-01
DAV:   4    -0.192335043149E+03   -0.39061E-03   -0.36396E-03 11240   0.465E-01    0.349E-01
DAV:   5    -0.192333895927E+03    0.11472E-02   -0.23892E-03 10320   0.405E-01    0.152E-01
DAV:   6    -0.192333928362E+03   -0.32434E-04   -0.10224E-03 10400   0.238E-01    0.161E-01
DAV:   7    -0.192333785003E+03    0.14336E-03   -0.79270E-04 10400   0.240E-01    0.107E-01
DAV:   8    -0.192333627745E+03    0.15726E-03   -0.19767E-04  7280   0.994E-02    0.152E-02
DAV:   9    -0.192333631009E+03   -0.32641E-05   -0.31617E-05  6280   0.200E-02
  31 F= -.19233363E+03 E0= -.19225262E+03  d E =-.343845E-01
       N       E                     dE             d eps       ncg     rms          rms(c)
DAV:   1    -0.192363775634E+03   -0.30148E-01   -0.13081E+00  8160   0.247E+00    0.318E-01
DAV:   2    -0.192371529013E+03   -0.77534E-02   -0.45198E-02 11240   0.101E+00    0.779E-01
DAV:   3    -0.192365441977E+03    0.60870E-02   -0.12597E-02 11920   0.912E-01    0.265E-01
DAV:   4    -0.192365302913E+03    0.13906E-03   -0.27507E-03 11520   0.364E-01    0.268E-01
DAV:   5    -0.192364679351E+03    0.62356E-03   -0.17399E-03 10400   0.341E-01    0.151E-01
DAV:   6    -0.192364581582E+03    0.97769E-04   -0.79971E-04 10120   0.210E-01
  32 F= -.19236458E+03 E0= -.19228516E+03  d E =-.309506E-01
       N       E                     dE             d eps       ncg     rms          rms(c)
DAV:   1    -0.192443845566E+03   -0.79166E-01   -0.18242E+01  8160   0.932E+00    0.113E+00
DAV:   2    -0.192533241458E+03   -0.89396E-01   -0.61424E-01 11680   0.351E+00    0.235E+00
DAV:   3    -0.192470727116E+03    0.62514E-01   -0.12905E-01 11960   0.301E+00    0.874E-01
DAV:   4    -0.192467039844E+03    0.36873E-02   -0.29414E-02 12320   0.129E+00    0.807E-01
DAV:   5    -0.192460744882E+03    0.62950E-02   -0.17906E-02 12320   0.118E+00    0.452E-01
DAV:   6    -0.192459666214E+03    0.10787E-02   -0.85058E-03 12160   0.598E-01    0.331E-01
DAV:   7    -0.192459403305E+03    0.26291E-03   -0.52420E-03 12080   0.577E-01    0.375E-01
DAV:   8    -0.192457870183E+03    0.15331E-02   -0.20323E-03 11800   0.367E-01    0.542E-02
DAV:   9    -0.192457846295E+03    0.23888E-04   -0.20718E-04  7480   0.568E-02
  33 F= -.19245785E+03 E0= -.19238186E+03  d E =-.932647E-01
       N       E                     dE             d eps       ncg     rms          rms(c)
DAV:   1    -0.192477245285E+03   -0.19375E-01   -0.26385E+00  8160   0.346E+00    0.415E-01
DAV:   2    -0.192489550322E+03   -0.12305E-01   -0.10525E-01 11360   0.122E+00    0.738E-01
DAV:   3    -0.192484117519E+03    0.54328E-02   -0.18799E-02 12040   0.113E+00    0.415E-01
DAV:   4    -0.192482777626E+03    0.13399E-02   -0.50174E-03 12400   0.521E-01    0.275E-01
DAV:   5    -0.192482215175E+03    0.56245E-03   -0.24742E-03 12000   0.416E-01    0.200E-01
DAV:   6    -0.192481898702E+03    0.31647E-03   -0.12685E-03 10600   0.244E-01    0.109E-01
DAV:   7    -0.192481962006E+03   -0.63304E-04   -0.75983E-04 10240   0.196E-01
  34 F= -.19248196E+03 E0= -.19240647E+03  d E =-.241157E-01
       N       E                     dE             d eps       ncg     rms          rms(c)
