<?xml version="1.0" encoding="ISO-8859-1"?>
<modeling>
 <generator>
  <i name="program" type="string">vasp </i>
  <i name="version" type="string">5.4.1  </i>
  <i name="subversion" type="string">05Feb16 (build Jul 05 2020 17:13:04) complex                          parallel </i>
  <i name="platform" type="string">IFC91_ompi </i>
  <i name="date" type="string">2024 04 28 </i>
  <i name="time" type="string">09:29:13 </i>
 </generator>
 <incar>
  <i type="int" name="ISTART">     0</i>
  <i type="string" name="PREC">normal</i>
  <i type="string" name="ALGO"> Normal</i>
  <i type="int" name="ISPIN">     1</i>
  <i type="int" name="ICHARG">     2</i>
  <i type="int" name="IBRION">     1</i>
  <i type="int" name="NSW">   100</i>
  <i type="int" name="ISIF">     3</i>
  <i type="int" name="ISYM">     0</i>
  <i name="SYMPREC">      0.00000001</i>
  <i name="POTIM">      0.50000000</i>
  <i type="logical" name="LREAL"> F  </i>
  <i type="logical" name="LPLANE"> F  </i>
  <i type="int" name="ISMEAR">     0</i>
  <i type="logical" name="LWAVE"> F  </i>
  <i type="logical" name="LCHARG"> F  </i>
  <v type="int" name="KPOINT_BSE">    -1     0     0     0</v>
 </incar>
 <kpoints>
  <generation param="Gamma">
   <v type="int" name="divisions">       8        8        1 </v>
   <v name="usershift">      0.00000000       0.00000000       0.00000000 </v>
   <v name="genvec1">      0.12500000       0.00000000       0.00000000 </v>
   <v name="genvec2">     -0.00000000       0.12500000       0.00000000 </v>
   <v name="genvec3">      0.00000000       0.00000000       1.00000000 </v>
   <v name="shift">      0.00000000       0.00000000       0.00000000 </v>
  </generation>
  <varray name="kpointlist" >
   <v>       0.00000000       0.00000000       0.00000000 </v>
   <v>       0.12500000       0.00000000       0.00000000 </v>
   <v>       0.25000000       0.00000000       0.00000000 </v>
   <v>       0.37500000       0.00000000       0.00000000 </v>
   <v>       0.50000000       0.00000000       0.00000000 </v>
   <v>       0.00000000       0.12500000       0.00000000 </v>
   <v>       0.12500000       0.12500000       0.00000000 </v>
   <v>       0.25000000       0.12500000       0.00000000 </v>
   <v>       0.37500000       0.12500000       0.00000000 </v>
   <v>       0.50000000       0.12500000       0.00000000 </v>
   <v>      -0.37500000       0.12500000       0.00000000 </v>
   <v>      -0.25000000       0.12500000       0.00000000 </v>
   <v>      -0.12500000       0.12500000       0.00000000 </v>
   <v>       0.00000000       0.25000000       0.00000000 </v>
   <v>       0.12500000       0.25000000       0.00000000 </v>
   <v>       0.25000000       0.25000000       0.00000000 </v>
   <v>       0.37500000       0.25000000       0.00000000 </v>
   <v>       0.50000000       0.25000000       0.00000000 </v>
   <v>      -0.37500000       0.25000000       0.00000000 </v>
   <v>      -0.25000000       0.25000000       0.00000000 </v>
   <v>      -0.12500000       0.25000000       0.00000000 </v>
   <v>      -0.00000000       0.37500000       0.00000000 </v>
   <v>       0.12500000       0.37500000       0.00000000 </v>
   <v>       0.25000000       0.37500000       0.00000000 </v>
   <v>       0.37500000       0.37500000       0.00000000 </v>
   <v>       0.50000000       0.37500000       0.00000000 </v>
   <v>      -0.37500000       0.37500000       0.00000000 </v>
   <v>      -0.25000000       0.37500000       0.00000000 </v>
   <v>      -0.12500000       0.37500000       0.00000000 </v>
   <v>       0.00000000       0.50000000       0.00000000 </v>
   <v>       0.12500000       0.50000000       0.00000000 </v>
   <v>       0.25000000       0.50000000       0.00000000 </v>
   <v>       0.37500000       0.50000000       0.00000000 </v>
   <v>       0.50000000       0.50000000       0.00000000 </v>
  </varray>
  <varray name="weights" >
   <v>       0.01562500 </v>
   <v>       0.03125000 </v>
   <v>       0.03125000 </v>
   <v>       0.03125000 </v>
   <v>       0.01562500 </v>
   <v>       0.03125000 </v>
   <v>       0.03125000 </v>
   <v>       0.03125000 </v>
   <v>       0.03125000 </v>
   <v>       0.03125000 </v>
   <v>       0.03125000 </v>
   <v>       0.03125000 </v>
   <v>       0.03125000 </v>
   <v>       0.03125000 </v>
   <v>       0.03125000 </v>
   <v>       0.03125000 </v>
   <v>       0.03125000 </v>
   <v>       0.03125000 </v>
   <v>       0.03125000 </v>
   <v>       0.03125000 </v>
   <v>       0.03125000 </v>
   <v>       0.03125000 </v>
   <v>       0.03125000 </v>
   <v>       0.03125000 </v>
   <v>       0.03125000 </v>
   <v>       0.03125000 </v>
   <v>       0.03125000 </v>
   <v>       0.03125000 </v>
   <v>       0.03125000 </v>
   <v>       0.01562500 </v>
   <v>       0.03125000 </v>
   <v>       0.03125000 </v>
   <v>       0.03125000 </v>
   <v>       0.01562500 </v>
  </varray>
 </kpoints>
 <parameters>
  <separator name="general" >
   <i type="string" name="SYSTEM">unknown system</i>
   <i type="logical" name="LCOMPAT"> F  </i>
  </separator>
  <separator name="electronic" >
   <i type="string" name="PREC">normal</i>
   <i name="ENMAX">    280.00000000</i>
   <i name="ENAUG">    373.43800000</i>
   <i name="EDIFF">      0.00010000</i>
   <i type="int" name="IALGO">    38</i>
   <i type="int" name="IWAVPR">    11</i>
   <i type="int" name="NBANDS">   120</i>
   <i name="NELECT">    159.00000000</i>
   <i type="int" name="TURBO">     0</i>
   <i type="int" name="IRESTART">     0</i>
   <i type="int" name="NREBOOT">     0</i>
   <i type="int" name="NMIN">     0</i>
   <i name="EREF">      0.00000000</i>
   <separator name="electronic smearing" >
    <i type="int" name="ISMEAR">     0</i>
    <i name="SIGMA">      0.20000000</i>
    <i name="KSPACING">      0.50000000</i>
    <i type="logical" name="KGAMMA"> T  </i>
   </separator>
   <separator name="electronic projectors" >
    <i type="logical" name="LREAL"> F  </i>
    <v name="ROPT">      0.00000000      0.00000000      0.00000000      0.00000000</v>
    <i type="int" name="LMAXPAW">  -100</i>
    <i type="int" name="LMAXMIX">     2</i>
    <i type="logical" name="NLSPLINE"> F  </i>
   </separator>
   <separator name="electronic startup" >
    <i type="int" name="ISTART">     0</i>
    <i type="int" name="ICHARG">     2</i>
    <i type="int" name="INIWAV">     1</i>
   </separator>
   <separator name="electronic spin" >
    <i type="int" name="ISPIN">     1</i>
    <i type="logical" name="LNONCOLLINEAR"> F  </i>
    <v name="MAGMOM">      1.00000000      1.00000000      1.00000000      1.00000000      1.00000000      1.00000000      1.00000000      1.00000000      1.00000000      1.00000000      1.00000000      1.00000000      1.00000000      1.00000000      1.00000000      1.00000000      1.00000000      1.00000000      1.00000000      1.00000000
      1.00000000      1.00000000      1.00000000      1.00000000      1.00000000      1.00000000      1.00000000</v>
    <i name="NUPDOWN">     -1.00000000</i>
    <i type="logical" name="LSORBIT"> F  </i>
    <v name="SAXIS">      0.00000000      0.00000000      1.00000000</v>
    <i type="logical" name="LSPIRAL"> F  </i>
    <v name="QSPIRAL">      0.00000000      0.00000000      0.00000000</v>
    <i type="logical" name="LZEROZ"> F  </i>
   </separator>
   <separator name="electronic exchange-correlation" >
    <i type="logical" name="LASPH"> F  </i>
    <i type="logical" name="LMETAGGA"> F  </i>
   </separator>
   <separator name="electronic convergence" >
    <i type="int" name="NELM">    60</i>
    <i type="int" name="NELMDL">    -5</i>
    <i type="int" name="NELMIN">     2</i>
    <i name="ENINI">    280.00000000</i>
    <separator name="electronic convergence detail" >
     <i type="logical" name="LDIAG"> T  </i>
     <i type="logical" name="LSUBROT"> F  </i>
     <i name="WEIMIN">      0.00100000</i>
     <i name="EBREAK">      0.00000021</i>
     <i name="DEPER">      0.30000000</i>
     <i type="int" name="NRMM">     4</i>
     <i name="TIME">      0.40000000</i>
    </separator>
   </separator>
   <separator name="electronic mixer" >
    <i name="AMIX">      0.40000000</i>
    <i name="BMIX">      1.00000000</i>
    <i name="AMIN">      0.10000000</i>
    <i name="AMIX_MAG">      1.60000000</i>
    <i name="BMIX_MAG">      1.00000000</i>
    <separator name="electronic mixer details" >
     <i type="int" name="IMIX">     4</i>
     <i type="logical" name="MIXFIRST"> F  </i>
     <i type="int" name="MAXMIX">   -45</i>
     <i name="WC">    100.00000000</i>
     <i type="int" name="INIMIX">     1</i>
     <i type="int" name="MIXPRE">     1</i>
     <i type="int" name="MREMOVE">     5</i>
    </separator>
   </separator>
   <separator name="electronic dipolcorrection" >
    <i type="logical" name="LDIPOL"> F  </i>
    <i type="logical" name="LMONO"> F  </i>
    <i type="int" name="IDIPOL">     0</i>
    <i name="EPSILON">      1.00000000</i>
    <v name="DIPOL">   -100.00000000   -100.00000000   -100.00000000</v>
    <i name="EFIELD">      0.00000000</i>
   </separator>
  </separator>
  <separator name="grids" >
   <i type="int" name="NGX">    42</i>
   <i type="int" name="NGY">    42</i>
   <i type="int" name="NGZ">   126</i>
   <i type="int" name="NGXF">    84</i>
   <i type="int" name="NGYF">    84</i>
   <i type="int" name="NGZF">   252</i>
   <i type="logical" name="ADDGRID"> F  </i>
  </separator>
  <separator name="ionic" >
   <i type="int" name="NSW">   100</i>
   <i type="int" name="IBRION">     1</i>
   <i type="int" name="ISIF">     3</i>
   <i name="PSTRESS">      0.00000000</i>
   <i name="EDIFFG">      0.00100000</i>
   <i type="int" name="NFREE">     0</i>
   <i name="POTIM">      0.50000000</i>
   <i name="SMASS">     -3.00000000</i>
   <i name="SCALEE">      1.00000000</i>
  </separator>
  <separator name="ionic md" >
   <i name="TEBEG">      0.00010000</i>
   <i name="TEEND">      0.00010000</i>
   <i type="int" name="NBLOCK">     1</i>
   <i type="int" name="KBLOCK">   100</i>
   <i type="int" name="NPACO">   256</i>
   <i name="APACO">     16.00000000</i>
  </separator>
  <separator name="symmetry" >
   <i type="int" name="ISYM">     0</i>
   <i name="SYMPREC">      0.00000001</i>
  </separator>
  <separator name="dos" >
   <i type="logical" name="LORBIT"> F  </i>
   <v name="RWIGS">     -1.00000000     -1.00000000     -1.00000000     -1.00000000</v>
   <i type="int" name="NEDOS">   301</i>
   <i name="EMIN">     10.00000000</i>
   <i name="EMAX">    -10.00000000</i>
   <i name="EFERMI">      0.00000000</i>
  </separator>
  <separator name="writing" >
   <i type="int" name="NWRITE">     2</i>
   <i type="logical" name="LWAVE"> F  </i>
   <i type="logical" name="LCHARG"> F  </i>
   <i type="logical" name="LPARD"> F  </i>
   <i type="logical" name="LVTOT"> F  </i>
   <i type="logical" name="LVHAR"> F  </i>
   <i type="logical" name="LELF"> F  </i>
   <i type="logical" name="LOPTICS"> F  </i>
   <v name="STM">      0.00000000      0.00000000      0.00000000      0.00000000      0.00000000      0.00000000      0.00000000</v>
  </separator>
  <separator name="performance" >
   <i type="int" name="NPAR">    40</i>
   <i type="int" name="NSIM">     4</i>
   <i type="int" name="NBLK">    -1</i>
   <i type="logical" name="LPLANE"> F  </i>
   <i type="logical" name="LSCALAPACK"> T  </i>
   <i type="logical" name="LSCAAWARE"> F  </i>
   <i type="logical" name="LSCALU"> F  </i>
   <i type="logical" name="LASYNC"> F  </i>
   <i type="logical" name="LORBITALREAL"> F  </i>
  </separator>
  <separator name="miscellaneous" >
   <i type="int" name="IDIOT">     3</i>
   <i type="logical" name="LMUSIC"> F  </i>
   <v name="POMASS">     50.94100000     95.94000000    183.85000000     32.06600000</v>
   <v name="DARWINR">      0.00000000      0.00000000      0.00000000      0.00000000</v>
   <v name="DARWINV">      1.00000000      1.00000000      1.00000000      1.00000000</v>
   <i type="logical" name="LCORR"> T  </i>
  </separator>
  <i type="logical" name="GGA_COMPAT"> T  </i>
  <i type="logical" name="LBERRY"> F  </i>
  <i type="int" name="ICORELEVEL">     0</i>
  <i type="logical" name="LDAU"> F  </i>
  <i type="int" name="I_CONSTRAINED_M">     0</i>
  <separator name="electronic exchange-correlation" >
   <i type="string" name="GGA">--</i>
   <i type="int" name="VOSKOWN">     0</i>
   <i type="logical" name="LHFCALC"> F  </i>
   <i type="string" name="PRECFOCK"></i>
   <i type="logical" name="LSYMGRAD"> F  </i>
   <i type="logical" name="LHFONE"> F  </i>
   <i type="logical" name="LRHFCALC"> F  </i>
   <i type="logical" name="LTHOMAS"> F  </i>
   <i type="logical" name="LMODELHF"> F  </i>
   <i name="ENCUT4O">     -1.00000000</i>
   <i type="int" name="EXXOEP">     0</i>
   <i type="int" name="FOURORBIT">     0</i>
   <i name="AEXX">      0.00000000</i>
   <i name="HFALPHA">      0.00000000</i>
   <i name="MCALPHA">      0.00000000</i>
   <i name="ALDAX">      1.00000000</i>
   <i name="AGGAX">      1.00000000</i>
   <i name="ALDAC">      1.00000000</i>
   <i name="AGGAC">      1.00000000</i>
   <i type="int" name="NKREDX">     1</i>
   <i type="int" name="NKREDY">     1</i>
   <i type="int" name="NKREDZ">     1</i>
   <i type="logical" name="SHIFTRED"> F  </i>
   <i type="logical" name="ODDONLY"> F  </i>
   <i type="logical" name="EVENONLY"> F  </i>
   <i type="int" name="LMAXFOCK">     0</i>
   <i type="int" name="NMAXFOCKAE">     0</i>
   <i type="logical" name="LFOCKAEDFT"> F  </i>
   <i name="HFSCREEN">      0.00000000</i>
   <i name="HFSCREENC">      0.00000000</i>
   <i type="int" name="NBANDSGWLOW">     0</i>
  </separator>
  <separator name="vdW DFT" >
   <i type="logical" name="LUSE_VDW"> F  </i>
   <i name="Zab_VDW">     -0.84910000</i>
   <i name="PARAM1">      0.12340000</i>
   <i name="PARAM2">      1.00000000</i>
   <i name="PARAM3">      0.00000000</i>
  </separator>
  <separator name="model GW" >
   <i type="int" name="MODEL_GW">     0</i>
   <i name="MODEL_EPS0">     58.26239943</i>
   <i name="MODEL_ALPHA">      1.00000000</i>
  </separator>
  <separator name="linear response parameters" >
   <i type="logical" name="LEPSILON"> F  </i>
   <i type="logical" name="LRPA"> F  </i>
   <i type="logical" name="LNABLA"> F  </i>
   <i type="logical" name="LVEL"> F  </i>
   <i type="int" name="KINTER">     0</i>
   <i name="CSHIFT">      0.10000000</i>
   <i name="OMEGAMAX">     -1.00000000</i>
   <i name="DEG_THRESHOLD">      0.00200000</i>
  </separator>
  <separator name="orbital magnetization" >
   <i type="logical" name="NUCIND"> F  </i>
   <v name="MAGPOS">      0.00000000      0.00000000      0.00000000</v>
   <i type="logical" name="LNICSALL"> T  </i>
   <i type="logical" name="ORBITALMAG"> F  </i>
   <i type="logical" name="LMAGBLOCH"> F  </i>
   <i type="logical" name="LCHIMAG"> F  </i>
   <i type="logical" name="LGAUGE"> T  </i>
   <i type="int" name="MAGATOM">     0</i>
   <v name="MAGDIPOL">      0.00000000      0.00000000      0.00000000</v>
   <v name="AVECCONST">      0.00000000      0.00000000      0.00000000</v>
  </separator>
  <separator name="response functions" >
   <i type="logical" name="LADDER"> F  </i>
   <i type="logical" name="LFXC"> F  </i>
   <i type="logical" name="LHARTREE"> T  </i>
   <i type="int" name="IBSE">     0</i>
   <v type="int" name="KPOINT">    -1     0     0     0</v>
   <i type="logical" name="LTCTE"> F  </i>
   <i type="logical" name="LTETE"> F  </i>
   <i type="logical" name="LTRIPLET"> F  </i>
   <i type="logical" name="LFXCEPS"> F  </i>
   <i type="logical" name="LFXHEG"> F  </i>
   <i type="int" name="NATURALO">     0</i>
   <i type="logical" name="L2ORDER"> F  </i>
   <i type="logical" name="LUSEW"> F  </i>
   <i name="ENCUTGW">     -2.00000000</i>
   <i name="ENCUTGWSOFT">     -2.00000000</i>
   <i name="ENCUTLF">     -1.00000000</i>
   <i type="int" name="LMAXMP2">    -1</i>
   <i name="SCISSOR">      0.00000000</i>
   <i type="int" name="NOMEGA">     0</i>
   <i type="int" name="NOMEGAR">     0</i>
   <i type="int" name="NBANDSGW">    -1</i>
   <i type="int" name="NBANDSO">    -1</i>
   <i type="int" name="NBANDSV">    -1</i>
   <i type="int" name="NELM">     1</i>
   <i type="int" name="NELMHF">     1</i>
   <i type="int" name="DIM">     3</i>
   <i type="int" name="ANTIRES">     0</i>
   <i name="OMEGAMAX">    -30.00000000</i>
   <i name="OMEGAMIN">    -30.00000000</i>
   <i name="OMEGATL">   -200.00000000</i>
   <i type="int" name="OMEGAGRID">     0</i>
   <i name="CSHIFT">     -0.10000000</i>
   <i type="logical" name="SELFENERGY"> F  </i>
   <i type="logical" name="LSPECTRAL"> F  </i>
   <i type="logical" name="LSPECTRALGW"> F  </i>
   <i type="logical" name="LSINGLES"> F  </i>
   <i type="logical" name="LFERMIGW"> F  </i>
   <i type="logical" name="ODDONLYGW"> F  </i>
   <i type="logical" name="EVENONLYGW"> F  </i>
   <i type="int" name="NKREDLFX">     1</i>
   <i type="int" name="NKREDLFY">     1</i>
   <i type="int" name="NKREDLFZ">     1</i>
   <i type="int" name="MAXMEM">  1800</i>
   <i type="int" name="TELESCOPE">     0</i>
   <i type="int" name="TAUPAR">     1</i>
   <i type="int" name="OMEGAPAR">    -1</i>
   <i name="LAMBDA">      1.00000000</i>
  </separator>
  <separator name="External order field" >
   <i name="OFIELD_KAPPA">      0.00000000</i>
   <v name="OFIELD_K">      0.00000000      0.00000000      0.00000000</v>
   <i name="OFIELD_Q6_NEAR">      0.00000000</i>
   <i name="OFIELD_Q6_FAR">      0.00000000</i>
   <i name="OFIELD_A">      0.00000000</i>
  </separator>
 </parameters>
 <atominfo>
  <atoms>      27 </atoms>
  <types>       4 </types>
  <array name="atoms" >
   <dimension dim="1">ion</dimension>
   <field type="string">element</field>
   <field type="int">atomtype</field>
   <set>
    <rc><c>V </c><c>   1</c></rc>
    <rc><c>V </c><c>   1</c></rc>
    <rc><c>V </c><c>   1</c></rc>
    <rc><c>Mo</c><c>   2</c></rc>
    <rc><c>Mo</c><c>   2</c></rc>
    <rc><c>Mo</c><c>   2</c></rc>
    <rc><c>W </c><c>   3</c></rc>
    <rc><c>W </c><c>   3</c></rc>
    <rc><c>W </c><c>   3</c></rc>
    <rc><c>S </c><c>   4</c></rc>
    <rc><c>S </c><c>   4</c></rc>
    <rc><c>S </c><c>   4</c></rc>
    <rc><c>S </c><c>   4</c></rc>
    <rc><c>S </c><c>   4</c></rc>
    <rc><c>S </c><c>   4</c></rc>
    <rc><c>S </c><c>   4</c></rc>
    <rc><c>S </c><c>   4</c></rc>
    <rc><c>S </c><c>   4</c></rc>
    <rc><c>S </c><c>   4</c></rc>
    <rc><c>S </c><c>   4</c></rc>
    <rc><c>S </c><c>   4</c></rc>
    <rc><c>S </c><c>   4</c></rc>
    <rc><c>S </c><c>   4</c></rc>
    <rc><c>S </c><c>   4</c></rc>
    <rc><c>S </c><c>   4</c></rc>
    <rc><c>S </c><c>   4</c></rc>
    <rc><c>S </c><c>   4</c></rc>
   </set>
  </array>
  <array name="atomtypes" >
   <dimension dim="1">type</dimension>
   <field type="int">atomspertype</field>
   <field type="string">element</field>
   <field>mass</field>
   <field>valence</field>
   <field type="string">pseudopotential</field>
   <set>
    <rc><c>   3</c><c>V </c><c>     50.94100000</c><c>      5.00000000</c><c> PAW_PBE V 08Apr2002                    </c></rc>
    <rc><c>   3</c><c>Mo</c><c>     95.94000000</c><c>      6.00000000</c><c> PAW_PBE Mo 08Apr2002                   </c></rc>
    <rc><c>   3</c><c>W </c><c>    183.85000000</c><c>      6.00000000</c><c> PAW_PBE W 08Apr2002                    </c></rc>
    <rc><c>  18</c><c>S </c><c>     32.06600000</c><c>      6.00000000</c><c>  PAW_PBE S 17Jan2003                   </c></rc>
   </set>
  </array>
 </atominfo>
 <structure name="initialpos" >
  <crystal>
   <varray name="basis" >
    <v>       8.66999996       5.03999989       0.00000000 </v>
    <v>      -8.66999982       5.04000013       0.00000000 </v>
    <v>       0.00000000       0.00000000      30.00000000 </v>
   </varray>
   <i name="volume">   2621.80797419 </i>
   <varray name="rec_basis" >
    <v>       0.05767013       0.09920635       0.00000000 </v>
    <v>      -0.05767013       0.09920635       0.00000000 </v>
    <v>       0.00000000       0.00000000       0.03333333 </v>
   </varray>
  </crystal>
  <varray name="positions" >
   <v>       0.33333334       0.33333334       0.00000000 </v>
   <v>       0.66666669       0.00000000       0.00000000 </v>
   <v>       0.66666669       0.66666669       0.00000000 </v>
   <v>       1.00000000       0.33333334       0.00000000 </v>
   <v>       0.33333334       0.66666669       0.00000000 </v>
   <v>       0.00000000       0.66666669       0.00000000 </v>
   <v>       0.00000000       0.00000000       0.00000000 </v>
   <v>       0.33333334       0.00000000       0.00000000 </v>
   <v>       0.66666669       0.33333334       0.00000000 </v>
   <v>       0.11068511       0.22244981       0.95539999 </v>
   <v>       0.22244981       0.11068511       0.04460000 </v>
   <v>       0.11068511       0.55578315       0.95539999 </v>
   <v>       0.22244981       0.44401845       0.04460000 </v>
   <v>       0.11068511       0.88911647       0.95539999 </v>
   <v>       0.22244981       0.77735180       0.04460000 </v>
   <v>       0.44401845       0.22244981       0.95539999 </v>
   <v>       0.55578315       0.11068511       0.04460000 </v>
   <v>       0.44401845       0.55578315       0.95539999 </v>
   <v>       0.55578315       0.44401845       0.04460000 </v>
   <v>       0.44401845       0.88911647       0.95539999 </v>
   <v>       0.55578315       0.77735180       0.04460000 </v>
   <v>       0.77735180       0.22244981       0.95539999 </v>
   <v>       0.88911647       0.11068511       0.04460000 </v>
   <v>       0.77735180       0.55578315       0.95539999 </v>
   <v>       0.88911647       0.44401845       0.04460000 </v>
   <v>       0.77735180       0.88911647       0.95539999 </v>
   <v>       0.88911647       0.77735180       0.04460000 </v>
  </varray>
 </structure>
 <calculation>
  <scstep>
   <time name="dav">   21.47   21.53</time>
   <time name="total">   21.52   21.58</time>
   <energy>
    <i name="alphaZ">     81.65567618 </i>
    <i name="ewald">  41890.23010383 </i>
    <i name="hartreedc"> -47722.85866360 </i>
    <i name="XCdc">   -242.92971632 </i>
    <i name="pawpsdc">   3467.42045192 </i>
    <i name="pawaedc">  -2871.19716117 </i>
    <i name="eentropy">     -0.53525690 </i>
    <i name="bandstr">   -239.28591928 </i>
    <i name="atom">   6761.44252427 </i>
    <i name="e_fr_energy">   1123.94203893 </i>
    <i name="e_wo_entrp">   1124.47729583 </i>
    <i name="e_0_energy">   1124.20966738 </i>
   </energy>
  </scstep>
  <scstep>
   <time name="dav">   27.65   27.72</time>
   <time name="total">   27.66   27.72</time>
   <energy>
    <i name="e_fr_energy">      0.07573914 </i>
    <i name="e_wo_entrp">      0.25899115 </i>
    <i name="e_0_energy">      0.16736514 </i>
   </energy>
  </scstep>
  <scstep>
   <time name="dav">   27.37   27.43</time>
   <time name="total">   27.37   27.44</time>
   <energy>
    <i name="e_fr_energy">   -199.64320324 </i>
    <i name="e_wo_entrp">   -199.35708483 </i>
    <i name="e_0_energy">   -199.50014403 </i>
   </energy>
  </scstep>
  <scstep>
   <time name="dav">   29.08   29.15</time>
   <time name="total">   29.09   29.16</time>
   <energy>
    <i name="e_fr_energy">   -208.86132898 </i>
    <i name="e_wo_entrp">   -208.53832914 </i>
    <i name="e_0_energy">   -208.69982906 </i>
   </energy>
  </scstep>
  <scstep>
   <time name="dav">   28.30   28.37</time>
   <time name="total">   28.77   28.84</time>
   <energy>
    <i name="e_fr_energy">   -209.22200356 </i>
    <i name="e_wo_entrp">   -208.90265344 </i>
    <i name="e_0_energy">   -209.06232850 </i>
   </energy>
  </scstep>
  <scstep>
   <time name="dav">   30.88   30.95</time>
   <time name="total">   31.38   31.46</time>
   <energy>
    <i name="e_fr_energy">   -236.37100212 </i>
    <i name="e_wo_entrp">   -236.09387128 </i>
    <i name="e_0_energy">   -236.23243670 </i>
   </energy>
  </scstep>
  <scstep>
   <time name="dav">   32.20   32.28</time>
   <time name="total">   32.71   32.79</time>
   <energy>
    <i name="e_fr_energy">   -196.82236303 </i>
    <i name="e_wo_entrp">   -196.49203364 </i>
    <i name="e_0_energy">   -196.65719833 </i>
   </energy>
  </scstep>
  <scstep>
   <time name="dav">   28.51   28.57</time>
   <time name="total">   29.01   29.11</time>
   <energy>
    <i name="e_fr_energy">   -190.29953634 </i>
    <i name="e_wo_entrp">   -190.03195558 </i>
    <i name="e_0_energy">   -190.16574596 </i>
   </energy>
  </scstep>
  <scstep>
   <time name="dav">   29.71   29.78</time>
   <time name="total">   30.23   30.31</time>
   <energy>
    <i name="e_fr_energy">   -188.29566041 </i>
    <i name="e_wo_entrp">   -187.96092471 </i>
    <i name="e_0_energy">   -188.12829256 </i>
   </energy>
  </scstep>
  <scstep>
   <time name="dav">   32.19   32.27</time>
   <time name="total">   32.72   32.82</time>
   <energy>
    <i name="e_fr_energy">   -187.10041545 </i>
    <i name="e_wo_entrp">   -186.75389937 </i>
    <i name="e_0_energy">   -186.92715741 </i>
   </energy>
  </scstep>
  <scstep>
   <time name="dav">   30.12   30.19</time>
   <time name="total">   30.65   30.73</time>
   <energy>
    <i name="e_fr_energy">   -187.01417689 </i>
    <i name="e_wo_entrp">   -186.66750457 </i>
    <i name="e_0_energy">   -186.84084073 </i>
   </energy>
  </scstep>
  <scstep>
   <time name="dav">   31.17   31.25</time>
   <time name="total">   31.71   31.79</time>
   <energy>
    <i name="e_fr_energy">   -186.97393940 </i>
    <i name="e_wo_entrp">   -186.63754167 </i>
    <i name="e_0_energy">   -186.80574054 </i>
   </energy>
  </scstep>
  <scstep>
   <time name="dav">   32.09   32.16</time>
   <time name="total">   32.62   32.71</time>
   <energy>
    <i name="e_fr_energy">   -186.93029112 </i>
    <i name="e_wo_entrp">   -186.59141874 </i>
    <i name="e_0_energy">   -186.76085493 </i>
   </energy>
  </scstep>
  <scstep>
   <time name="dav">   31.48   31.55</time>
   <time name="total">   32.01   32.10</time>
   <energy>
    <i name="e_fr_energy">   -186.89202127 </i>
    <i name="e_wo_entrp">   -186.54843235 </i>
    <i name="e_0_energy">   -186.72022681 </i>
   </energy>
  </scstep>
  <scstep>
   <time name="dav">   29.27   29.34</time>
   <time name="total">   29.81   29.89</time>
   <energy>
    <i name="e_fr_energy">   -186.88753351 </i>
    <i name="e_wo_entrp">   -186.54312034 </i>
    <i name="e_0_energy">   -186.71532692 </i>
   </energy>
  </scstep>
  <scstep>
   <time name="dav">   31.80   31.88</time>
   <time name="total">   32.34   32.42</time>
   <energy>
    <i name="e_fr_energy">   -186.88739024 </i>
    <i name="e_wo_entrp">   -186.54385625 </i>
    <i name="e_0_energy">   -186.71562325 </i>
   </energy>
  </scstep>
  <scstep>
   <time name="dav">   30.54   30.62</time>
   <time name="total">   31.08   31.16</time>
   <energy>
    <i name="e_fr_energy">   -186.88511262 </i>
    <i name="e_wo_entrp">   -186.54201881 </i>
    <i name="e_0_energy">   -186.71356571 </i>
   </energy>
  </scstep>
  <scstep>
   <time name="dav">   31.02   31.09</time>
   <time name="total">   31.56   31.64</time>
   <energy>
    <i name="e_fr_energy">   -186.88401480 </i>
    <i name="e_wo_entrp">   -186.54146288 </i>
    <i name="e_0_energy">   -186.71273884 </i>
   </energy>
  </scstep>
  <scstep>
   <time name="dav">   28.15   28.21</time>
   <time name="total">   28.68   28.76</time>
   <energy>
    <i name="e_fr_energy">   -186.88381242 </i>
    <i name="e_wo_entrp">   -186.54075028 </i>
    <i name="e_0_energy">   -186.71228135 </i>
   </energy>
  </scstep>
  <scstep>
   <time name="dav">   23.24   23.30</time>
   <time name="total">   23.78   23.84</time>
   <energy>
    <i name="e_fr_energy">   -186.88467958 </i>
    <i name="e_wo_entrp">   -186.54194578 </i>
    <i name="e_0_energy">   -186.71331268 </i>
   </energy>
  </scstep>
  <scstep>
   <time name="dav">   21.62   21.67</time>
   <time name="total">   22.15   22.21</time>
   <energy>
    <i name="e_fr_energy">   -186.88543344 </i>
    <i name="e_wo_entrp">   -186.54258497 </i>
    <i name="e_0_energy">   -186.71400921 </i>
   </energy>
  </scstep>
  <scstep>
   <time name="dav">   19.52   19.56</time>
   <time name="total">   20.05   20.11</time>
   <energy>
    <i name="e_fr_energy">   -186.88628803 </i>
    <i name="e_wo_entrp">   -186.54345123 </i>
    <i name="e_0_energy">   -186.71486963 </i>
   </energy>
  </scstep>
  <scstep>
   <time name="dav">   20.06   20.11</time>
   <time name="total">   20.59   20.65</time>
   <energy>
    <i name="e_fr_energy">   -186.88753237 </i>
    <i name="e_wo_entrp">   -186.54483130 </i>
    <i name="e_0_energy">   -186.71618183 </i>
   </energy>
  </scstep>
  <scstep>
   <time name="dav">   18.83   18.87</time>
   <time name="total">   19.37   19.42</time>
   <energy>
    <i name="e_fr_energy">   -186.88806488 </i>
    <i name="e_wo_entrp">   -186.54528935 </i>
    <i name="e_0_energy">   -186.71667711 </i>
   </energy>
  </scstep>
  <scstep>
   <time name="dav">   16.07   16.11</time>
   <time name="total">   16.60   16.65</time>
   <energy>
    <i name="e_fr_energy">   -186.88847311 </i>
    <i name="e_wo_entrp">   -186.54567792 </i>
    <i name="e_0_energy">   -186.71707552 </i>
   </energy>
  </scstep>
  <scstep>
   <time name="dav">   18.92   18.97</time>
   <time name="total">   19.46   19.51</time>
   <energy>
    <i name="e_fr_energy">   -186.88871067 </i>
    <i name="e_wo_entrp">   -186.54593618 </i>
    <i name="e_0_energy">   -186.71732342 </i>
   </energy>
  </scstep>
  <scstep>
   <time name="dav">   19.70   19.75</time>
   <time name="total">   19.74   19.79</time>
   <energy>
    <i name="alphaZ">     81.65567618 </i>
    <i name="ewald">  41890.23010383 </i>
    <i name="hartreedc"> -47833.14138204 </i>
    <i name="XCdc">   -231.59824879 </i>
    <i name="pawpsdc">   4192.18671939 </i>
    <i name="pawaedc">  -3610.21246068 </i>
    <i name="eentropy">     -0.34277643 </i>
    <i name="bandstr">  -1437.10895386 </i>
    <i name="atom">   6761.44252427 </i>
    <i name="e_fr_energy">   -186.88879814 </i>
    <i name="e_wo_entrp">   -186.54602171 </i>
    <i name="e_0_energy">   -186.71740993 </i>
   </energy>
  </scstep>
  <structure>
   <crystal>
    <varray name="basis" >
     <v>       8.66999996       5.03999989       0.00000000 </v>
     <v>      -8.66999982       5.04000013       0.00000000 </v>
     <v>       0.00000000       0.00000000      30.00000000 </v>
    </varray>
    <i name="volume">   2621.80797419 </i>
    <varray name="rec_basis" >
     <v>       0.05767013       0.09920635       0.00000000 </v>
     <v>      -0.05767013       0.09920635       0.00000000 </v>
     <v>       0.00000000       0.00000000       0.03333333 </v>
    </varray>
   </crystal>
   <varray name="positions" >
    <v>       0.33333334       0.33333334       0.00000000 </v>
    <v>       0.66666669       0.00000000       0.00000000 </v>
    <v>       0.66666669       0.66666669       0.00000000 </v>
    <v>       1.00000000       0.33333334       0.00000000 </v>
    <v>       0.33333334       0.66666669       0.00000000 </v>
    <v>       0.00000000       0.66666669       0.00000000 </v>
    <v>       0.00000000       0.00000000       0.00000000 </v>
    <v>       0.33333334       0.00000000       0.00000000 </v>
    <v>       0.66666669       0.33333334       0.00000000 </v>
    <v>       0.11068511       0.22244981       0.95539999 </v>
    <v>       0.22244981       0.11068511       0.04460000 </v>
    <v>       0.11068511       0.55578315       0.95539999 </v>
    <v>       0.22244981       0.44401845       0.04460000 </v>
    <v>       0.11068511       0.88911647       0.95539999 </v>
    <v>       0.22244981       0.77735180       0.04460000 </v>
    <v>       0.44401845       0.22244981       0.95539999 </v>
    <v>       0.55578315       0.11068511       0.04460000 </v>
    <v>       0.44401845       0.55578315       0.95539999 </v>
    <v>       0.55578315       0.44401845       0.04460000 </v>
    <v>       0.44401845       0.88911647       0.95539999 </v>
    <v>       0.55578315       0.77735180       0.04460000 </v>
    <v>       0.77735180       0.22244981       0.95539999 </v>
    <v>       0.88911647       0.11068511       0.04460000 </v>
    <v>       0.77735180       0.55578315       0.95539999 </v>
    <v>       0.88911647       0.44401845       0.04460000 </v>
    <v>       0.77735180       0.88911647       0.95539999 </v>
    <v>       0.88911647       0.77735180       0.04460000 </v>
   </varray>
  </structure>
  <varray name="forces" >
   <v>      -0.43771005       0.06480871       0.06237860 </v>
   <v>       0.06499315      -0.04895739      -0.06166865 </v>
   <v>      -0.08201480      -0.04461839       0.03017639 </v>
   <v>      -0.26171422       0.43455264      -0.09585474 </v>
   <v>      -0.17246265      -0.38473266       0.02023478 </v>
   <v>       0.52669963       0.00358863       0.01002230 </v>
   <v>      -0.05825825      -0.04869233       0.01770939 </v>
   <v>       0.29497853      -0.44971789       0.07080256 </v>
   <v>       0.21331035       0.46898387      -0.02634889 </v>
   <v>       0.59763661       0.54050110      -2.14274868 </v>
   <v>      -0.46806190       0.59753797       2.19837364 </v>
   <v>       0.11914674      -0.01943967      -2.94665012 </v>
   <v>       0.77627008       0.01216875       2.13746586 </v>
   <v>       0.04671600       0.10659109      -2.89827557 </v>
   <v>      -0.23121816       0.16409311       2.93412436 </v>
   <v>      -0.59978922       0.00388550      -2.03483449 </v>
   <v>       0.57634498      -0.01162781       2.10117272 </v>
   <v>       0.89811875      -0.00174070      -1.45910789 </v>
   <v>      -0.75684220      -0.02241468       1.47661560 </v>
   <v>       0.37998349       0.72975175      -2.17336411 </v>
   <v>       0.32517953       0.66807306       1.39234062 </v>
   <v>       0.37241999      -0.71541908      -2.18099103 </v>
   <v>      -0.36137616      -0.69557915       2.10539827 </v>
   <v>      -0.65819434      -0.14673673      -2.10765530 </v>
   <v>      -0.23310377      -0.14433670       2.91508995 </v>
   <v>      -0.26323061      -0.52270590      -1.45166248 </v>
   <v>      -0.60782149      -0.53781713       2.10725694 </v>
  </varray>
  <varray name="stress" >
   <v>       7.35327146       0.09744528      -1.52877990 </v>
   <v>       0.09744526       4.42577985       0.04529711 </v>
   <v>      -1.52877980       0.04529702      30.28143456 </v>
  </varray>
  <energy>
   <i name="e_fr_energy">   -186.88879814 </i>
   <i name="e_wo_entrp">   -186.71740993 </i>
   <i name="e_0_energy">     -0.34277643 </i>
  </energy>
  <time name="totalsc">  774.23  776.33</time>
 </calculation>
 <calculation>
  <scstep>
   <time name="dav">   21.43   21.48</time>
   <time name="total">   21.97   22.03</time>
   <energy>
    <i name="alphaZ">     78.91583478 </i>
    <i name="ewald">  39377.57307303 </i>
    <i name="hartreedc"> -45335.13002801 </i>
    <i name="XCdc">   -239.05724457 </i>
    <i name="pawpsdc">   4192.17205934 </i>
    <i name="pawaedc">  -3610.19791435 </i>
    <i name="eentropy">     -0.28177323 </i>
    <i name="bandstr">  -1412.98069212 </i>
    <i name="atom">   6761.44252427 </i>
    <i name="e_fr_energy">   -187.54416086 </i>
    <i name="e_wo_entrp">   -187.26238764 </i>
    <i name="e_0_energy">   -187.40327425 </i>
   </energy>
  </scstep>
  <scstep>
   <time name="dav">   30.13   30.21</time>
   <time name="total">   30.67   30.75</time>
   <energy>
    <i name="e_fr_energy">   -189.65198094 </i>
    <i name="e_wo_entrp">   -189.31200196 </i>
    <i name="e_0_energy">   -189.48199145 </i>
   </energy>
  </scstep>
  <scstep>
   <time name="dav">   30.13   30.20</time>
   <time name="total">   30.68   30.77</time>
   <energy>
    <i name="e_fr_energy">   -189.34133167 </i>
    <i name="e_wo_entrp">   -189.06731171 </i>
    <i name="e_0_energy">   -189.20432169 </i>
   </energy>
  </scstep>
  <scstep>
   <time name="dav">   30.39   30.47</time>
   <time name="total">   30.93   31.02</time>
   <energy>
    <i name="e_fr_energy">   -188.80650407 </i>
    <i name="e_wo_entrp">   -188.52564500 </i>
    <i name="e_0_energy">   -188.66607454 </i>
   </energy>
  </scstep>
  <scstep>
   <time name="dav">   30.08   30.15</time>
   <time name="total">   30.62   30.70</time>
   <energy>
    <i name="e_fr_energy">   -188.95967409 </i>
    <i name="e_wo_entrp">   -188.66570329 </i>
    <i name="e_0_energy">   -188.81268869 </i>
   </energy>
  </scstep>
  <scstep>
   <time name="dav">   31.03   31.10</time>
   <time name="total">   31.58   31.66</time>
   <energy>
    <i name="e_fr_energy">   -188.77937618 </i>
    <i name="e_wo_entrp">   -188.49987670 </i>
    <i name="e_0_energy">   -188.63962644 </i>
   </energy>
  </scstep>
  <scstep>
   <time name="dav">   28.49   28.56</time>
   <time name="total">   29.04   29.12</time>
   <energy>
    <i name="e_fr_energy">   -188.76632430 </i>
    <i name="e_wo_entrp">   -188.48532884 </i>
    <i name="e_0_energy">   -188.62582657 </i>
   </energy>
  </scstep>
  <scstep>
   <time name="dav">   31.45   31.52</time>
   <time name="total">   32.00   32.08</time>
   <energy>
    <i name="e_fr_energy">   -188.73595921 </i>
    <i name="e_wo_entrp">   -188.45541934 </i>
    <i name="e_0_energy">   -188.59568928 </i>
   </energy>
  </scstep>
  <scstep>
   <time name="dav">   29.96   30.04</time>
   <time name="total">   30.51   30.59</time>
   <energy>
    <i name="e_fr_energy">   -188.71595324 </i>
    <i name="e_wo_entrp">   -188.43637416 </i>
    <i name="e_0_energy">   -188.57616370 </i>
   </energy>
  </scstep>
  <scstep>
   <time name="dav">   27.01   27.08</time>
   <time name="total">   27.56   27.63</time>
   <energy>
    <i name="e_fr_energy">   -188.71524170 </i>
    <i name="e_wo_entrp">   -188.43581449 </i>
    <i name="e_0_energy">   -188.57552809 </i>
   </energy>
  </scstep>
  <scstep>
   <time name="dav">   30.54   30.61</time>
   <time name="total">   31.09   31.17</time>
   <energy>
    <i name="e_fr_energy">   -188.71473101 </i>
    <i name="e_wo_entrp">   -188.43575635 </i>
    <i name="e_0_energy">   -188.57524368 </i>
   </energy>
  </scstep>
  <scstep>
   <time name="dav">   28.84   28.91</time>
   <time name="total">   29.38   29.46</time>
   <energy>
    <i name="e_fr_energy">   -188.71487555 </i>
    <i name="e_wo_entrp">   -188.43582099 </i>
    <i name="e_0_energy">   -188.57534827 </i>
   </energy>
  </scstep>
  <scstep>
   <time name="dav">   21.26   21.31</time>
   <time name="total">   21.29   21.35</time>
   <energy>
    <i name="alphaZ">     78.91583478 </i>
    <i name="ewald">  39377.57307303 </i>
    <i name="hartreedc"> -45345.85164998 </i>
    <i name="XCdc">   -237.96853880 </i>
    <i name="pawpsdc">   3950.59801073 </i>
    <i name="pawaedc">  -3365.12090470 </i>
    <i name="eentropy">     -0.27905279 </i>
    <i name="bandstr">  -1408.02410504 </i>
    <i name="atom">   6761.44252427 </i>
    <i name="e_fr_energy">   -188.71480850 </i>
    <i name="e_wo_entrp">   -188.43575570 </i>
    <i name="e_0_energy">   -188.57528210 </i>
   </energy>
  </scstep>
  <structure>
   <crystal>
    <varray name="basis" >
     <v>       8.85784088       5.10768971       0.00000000 </v>
     <v>      -8.85496878       5.10274949       0.00000000 </v>
     <v>       0.00000000       0.00000000      30.00000000 </v>
    </varray>
    <i name="volume">   2712.83328039 </i>
    <varray name="rec_basis" >
     <v>       0.05642901       0.09792311       0.00000000 </v>
     <v>      -0.05648364       0.09795487       0.00000000 </v>
     <v>       0.00000000       0.00000000       0.03333333 </v>
    </varray>
   </crystal>
   <varray name="positions" >
    <v>       0.33242574       0.33486130       0.00010031 </v>
    <v>       0.66661320      -0.00041513      -0.00009917 </v>
    <v>       0.66622497       0.66668132       0.00004853 </v>
    <v>       1.00135163       0.33614123      -0.00015414 </v>
    <v>       0.33101220       0.66530518       0.00003254 </v>
    <v>       0.00148254       0.66521850       0.00001612 </v>
    <v>      -0.00039512      -0.00007096       0.00002848 </v>
    <v>       0.33200168      -0.00297302       0.00011386 </v>
    <v>       0.66950470       0.33498443      -0.00004237 </v>
    <v>       0.11493466       0.22337391       0.95195426 </v>
    <v>       0.22400739       0.11484714       0.04813518 </v>
    <v>       0.11092356       0.55535863       0.95066152 </v>
    <v>       0.22466776       0.44191699       0.04803723 </v>
    <v>       0.11132522       0.88949664       0.95073931 </v>
    <v>       0.22259187       0.77878043       0.04931833 </v>
    <v>       0.44236834       0.22413711       0.95212780 </v>
    <v>       0.55733099       0.10902598       0.04797887 </v>
    <v>       0.44650883       0.55327611       0.95305362 </v>
    <v>       0.55357022       0.44601683       0.04697453 </v>
    <v>       0.44856820       0.89155187       0.95190503 </v>
    <v>       0.55988524       0.77964448       0.04683901 </v>
    <v>       0.77496395       0.21798970       0.95189276 </v>
    <v>       0.88478203       0.10836149       0.04798567 </v>
    <v>       0.77481832       0.55691208       0.95201069 </v>
    <v>       0.88777714       0.44397619       0.04928772 </v>
    <v>       0.77411779       0.88734716       0.95306559 </v>
    <v>       0.88485143       0.77646887       0.04798865 </v>
   </varray>
  </structure>
  <varray name="forces" >
   <v>      -0.33470548       0.00831363      -0.06126254 </v>
   <v>       0.02945685      -0.00753885       0.06874378 </v>
   <v>      -0.05167596      -0.03025589       0.09157299 </v>
   <v>      -0.42257377       0.43345613      -0.03087729 </v>
   <v>      -0.45243477      -0.46503740       0.00146542 </v>
   <v>       0.62517180       0.07679634      -0.01133676 </v>
   <v>       0.07319966       0.04956835       0.11270248 </v>
   <v>       0.18747695      -0.55420928      -0.07213804 </v>
   <v>       0.27430511       0.49051191      -0.11937962 </v>
   <v>       0.07058266      -0.05618276       0.04281726 </v>
   <v>       0.05611544      -0.05235776      -0.11677955 </v>
   <v>       0.00410140       0.00108171      -0.40207227 </v>
   <v>       0.05149275       0.00310469       0.18319144 </v>
   <v>      -0.06128907       0.08500076       0.00857024 </v>
   <v>      -0.05115937       0.09893922       0.28762819 </v>
   <v>       0.10327238      -0.00046971       0.36521480 </v>
   <v>      -0.09379501      -0.00390270      -0.14935423 </v>
   <v>       0.02551071       0.00595070       0.09602306 </v>
   <v>       0.10560239       0.00174227      -0.15358744 </v>
   <v>      -0.09993328       0.04648905       0.02584601 </v>
   <v>       0.00865347       0.02622657      -0.15804066 </v>
   <v>      -0.11108078      -0.03966449      -0.00286120 </v>
   <v>       0.10529313      -0.03900943      -0.16940009 </v>
   <v>       0.03136122      -0.10279677       0.02320908 </v>
   <v>      -0.04943293      -0.09871864       0.24214403 </v>
   <v>       0.04844105       0.06236338       0.03830530 </v>
   <v>      -0.07195655       0.06059899      -0.14034439 </v>
  </varray>
  <varray name="stress" >
   <v>     -19.89930390      -0.01486093       0.04188320 </v>
   <v>      -0.01486096     -19.48346209      -0.01351310 </v>
   <v>       0.04188322      -0.01351306      -1.76583686 </v>
  </varray>
  <energy>
   <i name="e_fr_energy">   -188.71480850 </i>
   <i name="e_wo_entrp">   -188.57528210 </i>
   <i name="e_0_energy">     -0.27905279 </i>
  </energy>
  <time name="totalsc">  418.73  419.84</time>
 </calculation>
 <calculation>
  <scstep>
   <time name="dav">   23.32   23.38</time>
   <time name="total">   23.85   23.91</time>
   <energy>
    <i name="alphaZ">     82.33689907 </i>
    <i name="ewald">  41299.18720796 </i>
    <i name="hartreedc"> -47297.97510433 </i>
    <i name="XCdc">   -233.84847360 </i>
    <i name="pawpsdc">   3950.06639021 </i>
    <i name="pawaedc">  -3364.58423288 </i>
    <i name="eentropy">     -0.23645591 </i>
    <i name="bandstr">  -1387.03454633 </i>
    <i name="atom">   6761.44252427 </i>
    <i name="e_fr_energy">   -190.64579153 </i>
    <i name="e_wo_entrp">   -190.40933563 </i>
    <i name="e_0_energy">   -190.52756358 </i>
   </energy>
  </scstep>
  <scstep>
   <time name="dav">   27.53   27.60</time>
   <time name="total">   28.06   28.13</time>
   <energy>
    <i name="e_fr_energy">   -190.56462130 </i>
    <i name="e_wo_entrp">   -190.32730054 </i>
    <i name="e_0_energy">   -190.44596092 </i>
   </energy>
  </scstep>
  <scstep>
   <time name="dav">   29.96   30.03</time>
   <time name="total">   30.49   30.57</time>
   <energy>
    <i name="e_fr_energy">   -190.13562954 </i>
    <i name="e_wo_entrp">   -189.88365469 </i>
    <i name="e_0_energy">   -190.00964212 </i>
   </energy>
  </scstep>
  <scstep>
   <time name="dav">   31.02   31.09</time>
   <time name="total">   31.55   31.63</time>
   <energy>
    <i name="e_fr_energy">   -189.92323370 </i>
    <i name="e_wo_entrp">   -189.68731277 </i>
    <i name="e_0_energy">   -189.80527323 </i>
   </energy>
  </scstep>
  <scstep>
   <time name="dav">   29.78   29.85</time>
   <time name="total">   30.31   30.39</time>
   <energy>
    <i name="e_fr_energy">   -189.90034333 </i>
    <i name="e_wo_entrp">   -189.66078503 </i>
    <i name="e_0_energy">   -189.78056418 </i>
   </energy>
  </scstep>
  <scstep>
   <time name="dav">   30.07   30.14</time>
   <time name="total">   30.60   30.68</time>
   <energy>
    <i name="e_fr_energy">   -189.82594545 </i>
    <i name="e_wo_entrp">   -189.58684918 </i>
    <i name="e_0_energy">   -189.70639731 </i>
   </energy>
  </scstep>
  <scstep>
   <time name="dav">   28.84   28.91</time>
   <time name="total">   29.37   29.45</time>
   <energy>
    <i name="e_fr_energy">   -189.81728991 </i>
    <i name="e_wo_entrp">   -189.57866992 </i>
    <i name="e_0_energy">   -189.69797992 </i>
   </energy>
  </scstep>
  <scstep>
   <time name="dav">   30.44   30.52</time>
   <time name="total">   30.97   31.06</time>
   <energy>
    <i name="e_fr_energy">   -189.81832032 </i>
    <i name="e_wo_entrp">   -189.57956344 </i>
    <i name="e_0_energy">   -189.69894188 </i>
   </energy>
  </scstep>
  <scstep>
   <time name="dav">   27.68   27.74</time>
   <time name="total">   28.21   28.28</time>
   <energy>
    <i name="e_fr_energy">   -189.81717755 </i>
    <i name="e_wo_entrp">   -189.57846476 </i>
    <i name="e_0_energy">   -189.69782115 </i>
   </energy>
  </scstep>
  <scstep>
   <time name="dav">   25.37   25.43</time>
   <time name="total">   25.90   25.98</time>
   <energy>
    <i name="e_fr_energy">   -189.81744362 </i>
    <i name="e_wo_entrp">   -189.57873777 </i>
    <i name="e_0_energy">   -189.69809070 </i>
   </energy>
  </scstep>
  <scstep>
   <time name="dav">   22.38   22.43</time>
   <time name="total">   22.91   22.97</time>
   <energy>
    <i name="e_fr_energy">   -189.81722798 </i>
    <i name="e_wo_entrp">   -189.57841831 </i>
    <i name="e_0_energy">   -189.69782314 </i>
   </energy>
  </scstep>
  <scstep>
   <time name="dav">   19.14   19.18</time>
   <time name="total">   19.17   19.22</time>
   <energy>
    <i name="alphaZ">     82.33689907 </i>
    <i name="ewald">  41299.18720796 </i>
    <i name="hartreedc"> -47271.43385200 </i>
    <i name="XCdc">   -235.23791982 </i>
    <i name="pawpsdc">   4038.95693016 </i>
    <i name="pawaedc">  -3454.67543127 </i>
    <i name="eentropy">     -0.23881514 </i>
    <i name="bandstr">  -1410.15479419 </i>
    <i name="atom">   6761.44252427 </i>
    <i name="e_fr_energy">   -189.81725096 </i>
    <i name="e_wo_entrp">   -189.57843581 </i>
    <i name="e_0_energy">   -189.69784339 </i>
   </energy>
  </scstep>
  <structure>
   <crystal>
    <varray name="basis" >
     <v>       8.66982442       5.00144487       0.00000000 </v>
     <v>      -8.66717504       4.99688793       0.00000000 </v>
     <v>       0.00000000       0.00000000      30.00000000 </v>
    </varray>
    <i name="volume">   2600.11617330 </i>
    <varray name="rec_basis" >
     <v>       0.05765382       0.10000140       0.00000000 </v>
     <v>      -0.05770640       0.10003197       0.00000000 </v>
     <v>       0.00000000       0.00000000       0.03333333 </v>
    </varray>
   </crystal>
   <varray name="positions" >
    <v>       0.33211846       0.33519657       0.00006559 </v>
    <v>       0.66662891      -0.00045597      -0.00006021 </v>
    <v>       0.66612502       0.66668056       0.00010042 </v>
    <v>       1.00166786       0.33726892      -0.00017164 </v>
    <v>       0.32980391       0.66496519       0.00003337 </v>
    <v>       0.00221018       0.66474603       0.00000969 </v>
    <v>      -0.00024237      -0.00005870       0.00009235 </v>
    <v>       0.33125886      -0.00407604       0.00007297 </v>
    <v>       0.67058450       0.33553791      -0.00011003 </v>
    <v>       0.11490884       0.22321257       0.95197853 </v>
    <v>       0.22397406       0.11470605       0.04806900 </v>
    <v>       0.11092929       0.55535649       0.95043365 </v>
    <v>       0.22472233       0.44187271       0.04814105 </v>
    <v>       0.11140794       0.88969706       0.95074416 </v>
    <v>       0.22270751       0.77899433       0.04948134 </v>
    <v>       0.44246664       0.22403716       0.95233477 </v>
    <v>       0.55723450       0.10910955       0.04789423 </v>
    <v>       0.44654321       0.55326152       0.95310803 </v>
    <v>       0.55367444       0.44591832       0.04688749 </v>
    <v>       0.44854973       0.89172526       0.95191968 </v>
    <v>       0.55993720       0.77967985       0.04674944 </v>
    <v>       0.77479134       0.21803031       0.95189114 </v>
    <v>       0.88481811       0.10819541       0.04788966 </v>
    <v>       0.77467726       0.55671076       0.95202385 </v>
    <v>       0.88756536       0.44385926       0.04942495 </v>
    <v>       0.77426809       0.88740450       0.95308730 </v>
    <v>       0.88488328       0.77663890       0.04790912 </v>
   </varray>
  </structure>
  <varray name="forces" >
   <v>      -0.31399256      -0.03491413      -0.07764329 </v>
   <v>       0.00357580       0.01115679       0.08298507 </v>
   <v>      -0.03540760      -0.01710227       0.08518104 </v>
   <v>      -0.45992736       0.42022970      -0.00588984 </v>
   <v>      -0.53449186      -0.47827317      -0.00198337 </v>
   <v>       0.65651622       0.10583533      -0.00731836 </v>
   <v>       0.11450614       0.08249140       0.10697314 </v>
   <v>       0.15872579      -0.58371557      -0.08567836 </v>
   <v>       0.30120044       0.48141016      -0.10831586 </v>
   <v>       0.05193515       0.06889833      -0.44370978 </v>
   <v>      -0.00675208       0.08452848       0.39240304 </v>
   <v>       0.00976786       0.00983572      -0.97721122 </v>
   <v>       0.10911186       0.00191567       0.67829542 </v>
   <v>      -0.02648964      -0.00133356      -0.55090802 </v>
   <v>       0.00101014       0.01391309       0.87330105 </v>
   <v>      -0.02837181      -0.00115479      -0.09496956 </v>
   <v>       0.03625539       0.00003128       0.33452777 </v>
   <v>       0.07670712       0.01106224      -0.34042098 </v>
   <v>      -0.03760065      -0.00205513       0.30056635 </v>
   <v>       0.03683427       0.08915887      -0.47475506 </v>
   <v>       0.03064374       0.06150051       0.27160426 </v>
   <v>       0.03101360      -0.08788715      -0.51277617 </v>
   <v>      -0.02589266      -0.07192955       0.30751232 </v>
   <v>      -0.08307432      -0.00214284      -0.47657672 </v>
   <v>      -0.00321537      -0.01762480       0.81172207 </v>
   <v>      -0.02280523      -0.07012160      -0.42511604 </v>
   <v>      -0.03978239      -0.07371300       0.33820112 </v>
  </varray>
  <varray name="stress" >
   <v>     -10.13065358      -0.01983098       0.01938962 </v>
   <v>      -0.01983091      -9.82776357      -0.02657206 </v>
   <v>       0.01938980      -0.02657214       6.47607383 </v>
  </varray>
  <energy>
   <i name="e_fr_energy">   -189.81725096 </i>
   <i name="e_wo_entrp">   -189.69784339 </i>
   <i name="e_0_energy">     -0.23881514 </i>
  </energy>
  <time name="totalsc">  372.93  373.93</time>
 </calculation>
 <calculation>
  <scstep>
   <time name="dav">   21.43   21.49</time>
   <time name="total">   21.96   22.01</time>
   <energy>
    <i name="alphaZ">     85.80579766 </i>
    <i name="ewald">  42827.69530199 </i>
    <i name="hartreedc"> -48844.23864709 </i>
    <i name="XCdc">   -232.95462945 </i>
    <i name="pawpsdc">   4039.09655660 </i>
    <i name="pawaedc">  -3454.81317703 </i>
    <i name="eentropy">     -0.21083144 </i>
    <i name="bandstr">  -1373.23835759 </i>
    <i name="atom">   6761.44252427 </i>
    <i name="e_fr_energy">   -191.41546207 </i>
    <i name="e_wo_entrp">   -191.20463064 </i>
    <i name="e_0_energy">   -191.31004636 </i>
   </energy>
  </scstep>
  <scstep>
   <time name="dav">   31.80   31.88</time>
   <time name="total">   32.31   32.40</time>
   <energy>
    <i name="e_fr_energy">   -191.22581574 </i>
    <i name="e_wo_entrp">   -191.01523420 </i>
    <i name="e_0_energy">   -191.12052497 </i>
   </energy>
  </scstep>
  <scstep>
   <time name="dav">   29.80   29.87</time>
   <time name="total">   30.31   30.39</time>
   <energy>
    <i name="e_fr_energy">   -191.37576971 </i>
    <i name="e_wo_entrp">   -191.14345369 </i>
    <i name="e_0_energy">   -191.25961170 </i>
   </energy>
  </scstep>
  <scstep>
   <time name="dav">   29.96   30.03</time>
   <time name="total">   30.48   30.56</time>
   <energy>
    <i name="e_fr_energy">   -190.99846248 </i>
    <i name="e_wo_entrp">   -190.78511079 </i>
    <i name="e_0_energy">   -190.89178663 </i>
   </energy>
  </scstep>
  <scstep>
   <time name="dav">   30.13   30.21</time>
   <time name="total">   30.65   30.73</time>
   <energy>
    <i name="e_fr_energy">   -190.92077591 </i>
    <i name="e_wo_entrp">   -190.70824180 </i>
    <i name="e_0_energy">   -190.81450885 </i>
   </energy>
  </scstep>
  <scstep>
   <time name="dav">   30.14   30.21</time>
   <time name="total">   30.66   30.74</time>
   <energy>
    <i name="e_fr_energy">   -190.86923390 </i>
    <i name="e_wo_entrp">   -190.65161973 </i>
    <i name="e_0_energy">   -190.76042681 </i>
   </energy>
  </scstep>
  <scstep>
   <time name="dav">   30.65   30.73</time>
   <time name="total">   31.17   31.25</time>
   <energy>
    <i name="e_fr_energy">   -190.84629875 </i>
    <i name="e_wo_entrp">   -190.63045317 </i>
    <i name="e_0_energy">   -190.73837596 </i>
   </energy>
  </scstep>
  <scstep>
   <time name="dav">   28.34   28.41</time>
   <time name="total">   28.86   28.93</time>
   <energy>
    <i name="e_fr_energy">   -190.84463920 </i>
    <i name="e_wo_entrp">   -190.62877045 </i>
    <i name="e_0_energy">   -190.73670482 </i>
   </energy>
  </scstep>
  <scstep>
   <time name="dav">   26.39   26.45</time>
   <time name="total">   26.91   26.98</time>
   <energy>
    <i name="e_fr_energy">   -190.84373465 </i>
    <i name="e_wo_entrp">   -190.62787339 </i>
    <i name="e_0_energy">   -190.73580402 </i>
   </energy>
  </scstep>
  <scstep>
   <time name="dav">   27.77   27.84</time>
   <time name="total">   28.29   28.36</time>
   <energy>
    <i name="e_fr_energy">   -190.84396889 </i>
    <i name="e_wo_entrp">   -190.62811814 </i>
    <i name="e_0_energy">   -190.73604352 </i>
   </energy>
  </scstep>
  <scstep>
   <time name="dav">   25.90   25.96</time>
   <time name="total">   26.42   26.49</time>
   <energy>
    <i name="e_fr_energy">   -190.84377965 </i>
    <i name="e_wo_entrp">   -190.62786616 </i>
    <i name="e_0_energy">   -190.73582290 </i>
   </energy>
  </scstep>
  <scstep>
   <time name="dav">   19.34   19.39</time>
   <time name="total">   19.38   19.43</time>
   <energy>
    <i name="alphaZ">     85.80579766 </i>
    <i name="ewald">  42827.69530199 </i>
    <i name="hartreedc"> -48815.75781276 </i>
    <i name="XCdc">   -234.27336268 </i>
    <i name="pawpsdc">   4064.79573262 </i>
    <i name="pawaedc">  -3480.70774359 </i>
    <i name="eentropy">     -0.21592417 </i>
    <i name="bandstr">  -1399.62830017 </i>
    <i name="atom">   6761.44252427 </i>
    <i name="e_fr_energy">   -190.84378682 </i>
    <i name="e_wo_entrp">   -190.62786265 </i>
    <i name="e_0_energy">   -190.73582473 </i>
   </energy>
  </scstep>
  <structure>
   <crystal>
    <varray name="basis" >
     <v>       8.48846367       4.90086894       0.00000000 </v>
     <v>      -8.48666508       4.89778241       0.00000000 </v>
     <v>       0.00000000       0.00000000      30.00000000 </v>
    </varray>
    <i name="volume">   2495.00044022 </i>
    <varray name="rec_basis" >
     <v>       0.05889116       0.10204405       0.00000000 </v>
     <v>      -0.05892827       0.10206568       0.00000000 </v>
     <v>       0.00000000       0.00000000       0.03333333 </v>
    </varray>
   </crystal>
   <varray name="positions" >
    <v>       0.33068866       0.33597505      -0.00010892 </v>
    <v>       0.66672106      -0.00031536       0.00012354 </v>
    <v>       0.66594620       0.66671078       0.00027125 </v>
    <v>       1.00255179       0.34158260      -0.00016267 </v>
    <v>       0.32473012       0.66398626       0.00002635 </v>
    <v>       0.00535966       0.66306413      -0.00000205 </v>
    <v>       0.00082846       0.00006680       0.00030882 </v>
    <v>       0.32806323      -0.00833670      -0.00011576 </v>
    <v>       0.67470118       0.33740290      -0.00032476 </v>
    <v>       0.11581205       0.22379440       0.95064847 </v>
    <v>       0.22472924       0.11569062       0.04931208 </v>
    <v>       0.11105602       0.55539644       0.94792475 </v>
    <v>       0.22520782       0.44140485       0.04996372 </v>
    <v>       0.11113907       0.88951961       0.94913054 </v>
    <v>       0.22266151       0.77879133       0.05178417 </v>
    <v>       0.44216656       0.22431964       0.95174856 </v>
    <v>       0.55756180       0.10880192       0.04899615 </v>
    <v>       0.44697546       0.55299291       0.95203410 </v>
    <v>       0.55331109       0.44623735       0.04789396 </v>
    <v>       0.44954304       0.89206039       0.95051347 </v>
    <v>       0.56055208       0.78001046       0.04767524 </v>
    <v>       0.77443688       0.21704402       0.95039839 </v>
    <v>       0.88400440       0.10794488       0.04892978 </v>
    <v>       0.77445033       0.55741219       0.95061456 </v>
    <v>       0.88771144       0.44389601       0.05158675 </v>
    <v>       0.77331507       0.88682034       0.95181528 </v>
    <v>       0.88399023       0.77594063       0.04901412 </v>
   </varray>
  </structure>
  <varray name="forces" >
   <v>      -0.33853084      -0.05849227      -0.07946807 </v>
   <v>      -0.00811954       0.03025225       0.07708030 </v>
   <v>      -0.05638983      -0.02926054       0.04613969 </v>
   <v>      -0.46199690       0.36526838       0.01966953 </v>
   <v>      -0.53361083      -0.41915377      -0.00793046 </v>
   <v>       0.63246179       0.13200285      -0.00589896 </v>
   <v>       0.13474665       0.09524030       0.07122243 </v>
   <v>       0.15810208      -0.66501688      -0.05053518 </v>
   <v>       0.31815277       0.54187043      -0.06556854 </v>
   <v>      -0.05525546       0.01538687      -0.27912251 </v>
   <v>       0.03380350       0.06542290       0.28329079 </v>
   <v>       0.01812557       0.00194518      -0.78399395 </v>
   <v>      -0.04288797       0.01061562       0.48813351 </v>
   <v>       0.02578262      -0.10341051      -0.40174723 </v>
   <v>       0.02544681      -0.04870645       0.69653496 </v>
   <v>       0.05935970      -0.00300441       0.07714974 </v>
   <v>      -0.02560475      -0.00701960       0.12666499 </v>
   <v>      -0.06686076       0.00443235      -0.24940624 </v>
   <v>       0.01345646       0.00514443       0.21113133 </v>
   <v>       0.05846320      -0.04907032      -0.32495497 </v>
   <v>      -0.04683244      -0.07877435       0.19342924 </v>
   <v>       0.08164250       0.03373341      -0.39640496 </v>
   <v>      -0.04458854       0.06537340       0.16188109 </v>
   <v>       0.01927748       0.08591798      -0.31065850 </v>
   <v>       0.01255152       0.06296394       0.60252110 </v>
   <v>       0.00752516      -0.02438859      -0.29016705 </v>
   <v>       0.08178004      -0.02927260       0.19100794 </v>
  </varray>
  <varray name="stress" >
   <v>      -5.56464643       0.07830907      -0.13542807 </v>
   <v>       0.07830919      -5.68071790       0.08374474 </v>
   <v>      -0.13542803       0.08374463       4.48255249 </v>
  </varray>
  <energy>
   <i name="e_fr_energy">   -190.84378682 </i>
   <i name="e_wo_entrp">   -190.73582473 </i>
   <i name="e_0_energy">     -0.21592417 </i>
  </energy>
  <time name="totalsc">  379.10  380.11</time>
 </calculation>
 <calculation>
  <scstep>
   <time name="dav">   21.45   21.50</time>
   <time name="total">   21.95   22.01</time>
   <energy>
    <i name="alphaZ">     89.93679737 </i>
    <i name="ewald">  44563.99535054 </i>
    <i name="hartreedc"> -50604.54146050 </i>
    <i name="XCdc">   -231.95839787 </i>
    <i name="pawpsdc">   4064.75326155 </i>
    <i name="pawaedc">  -3480.66125794 </i>
    <i name="eentropy">     -0.21451748 </i>
    <i name="bandstr">  -1354.89786094 </i>
    <i name="atom">   6761.44252427 </i>
    <i name="e_fr_energy">   -192.14556100 </i>
    <i name="e_wo_entrp">   -191.93104351 </i>
    <i name="e_0_energy">   -192.03830226 </i>
   </energy>
  </scstep>
  <scstep>
   <time name="dav">   27.00   27.07</time>
   <time name="total">   27.51   27.58</time>
   <energy>
    <i name="e_fr_energy">   -191.92397909 </i>
    <i name="e_wo_entrp">   -191.70774227 </i>
    <i name="e_0_energy">   -191.81586068 </i>
   </energy>
  </scstep>
  <scstep>
   <time name="dav">   28.89   28.95</time>
   <time name="total">   29.39   29.47</time>
   <energy>
    <i name="e_fr_energy">   -191.79844551 </i>
    <i name="e_wo_entrp">   -191.57175121 </i>
    <i name="e_0_energy">   -191.68509836 </i>
   </energy>
  </scstep>
  <scstep>
   <time name="dav">   30.05   30.12</time>
   <time name="total">   30.55   30.64</time>
   <energy>
    <i name="e_fr_energy">   -191.82116670 </i>
    <i name="e_wo_entrp">   -191.61586176 </i>
    <i name="e_0_energy">   -191.71851423 </i>
   </energy>
  </scstep>
  <scstep>
   <time name="dav">   30.08   30.15</time>
   <time name="total">   30.58   30.66</time>
   <energy>
    <i name="e_fr_energy">   -191.55209751 </i>
    <i name="e_wo_entrp">   -191.33037160 </i>
    <i name="e_0_energy">   -191.44123455 </i>
   </energy>
  </scstep>
  <scstep>
   <time name="dav">   28.13   28.20</time>
   <time name="total">   28.64   28.72</time>
   <energy>
    <i name="e_fr_energy">   -191.54246492 </i>
    <i name="e_wo_entrp">   -191.32103658 </i>
    <i name="e_0_energy">   -191.43175075 </i>
   </energy>
  </scstep>
  <scstep>
   <time name="dav">   29.30   29.37</time>
   <time name="total">   29.80   29.88</time>
   <energy>
    <i name="e_fr_energy">   -191.54711958 </i>
    <i name="e_wo_entrp">   -191.32658371 </i>
    <i name="e_0_energy">   -191.43685165 </i>
   </energy>
  </scstep>
  <scstep>
   <time name="dav">   28.43   28.50</time>
   <time name="total">   28.93   29.01</time>
   <energy>
    <i name="e_fr_energy">   -191.53769670 </i>
    <i name="e_wo_entrp">   -191.31652223 </i>
    <i name="e_0_energy">   -191.42710946 </i>
   </energy>
  </scstep>
  <scstep>
   <time name="dav">   28.34   28.41</time>
   <time name="total">   28.84   28.92</time>
   <energy>
    <i name="e_fr_energy">   -191.53848861 </i>
    <i name="e_wo_entrp">   -191.31764155 </i>
    <i name="e_0_energy">   -191.42806508 </i>
   </energy>
  </scstep>
  <scstep>
   <time name="dav">   28.93   29.00</time>
   <time name="total">   29.44   29.52</time>
   <energy>
    <i name="e_fr_energy">   -191.53800620 </i>
    <i name="e_wo_entrp">   -191.31683019 </i>
    <i name="e_0_energy">   -191.42741819 </i>
   </energy>
  </scstep>
  <scstep>
   <time name="dav">   25.32   25.38</time>
   <time name="total">   25.82   25.89</time>
   <energy>
    <i name="e_fr_energy">   -191.53773827 </i>
    <i name="e_wo_entrp">   -191.31665865 </i>
    <i name="e_0_energy">   -191.42719846 </i>
   </energy>
  </scstep>
  <scstep>
   <time name="dav">   18.22   18.27</time>
   <time name="total">   18.26   18.31</time>
   <energy>
    <i name="alphaZ">     89.93679737 </i>
    <i name="ewald">  44563.99535054 </i>
    <i name="hartreedc"> -50572.94715339 </i>
    <i name="XCdc">   -233.38244555 </i>
    <i name="pawpsdc">   4087.40787267 </i>
    <i name="pawaedc">  -3503.44469820 </i>
    <i name="eentropy">     -0.22115647 </i>
    <i name="bandstr">  -1384.32480118 </i>
    <i name="atom">   6761.44252427 </i>
    <i name="e_fr_energy">   -191.53770994 </i>
    <i name="e_wo_entrp">   -191.31655347 </i>
    <i name="e_0_energy">   -191.42713171 </i>
   </energy>
  </scstep>
  <structure>
   <crystal>
    <varray name="basis" >
     <v>       8.29613895       4.78904525       0.00000000 </v>
     <v>      -8.29014879       4.77869897       0.00000000 </v>
     <v>       0.00000000       0.00000000      30.00000000 </v>
    </varray>
    <i name="volume">   2380.39944927 </i>
    <varray name="rec_basis" >
     <v>       0.06022559       0.10448014       0.00000000 </v>
     <v>      -0.06035599       0.10455563       0.00000000 </v>
     <v>       0.00000000       0.00000000       0.03333333 </v>
    </varray>
   </crystal>
   <varray name="positions" >
    <v>       0.32765082       0.33746525      -0.00043045 </v>
    <v>       0.66701532       0.00015011       0.00043775 </v>
    <v>       0.66531214       0.66676022       0.00046340 </v>
    <v>       1.00371586       0.34918972      -0.00007636 </v>
    <v>       0.31584537       0.66266882      -0.00000452 </v>
    <v>       0.01136511       0.66026424      -0.00002186 </v>
    <v>       0.00299690       0.00029689       0.00059693 </v>
    <v>       0.32125832      -0.01722024      -0.00034138 </v>
    <v>       0.68321611       0.34150732      -0.00058959 </v>
    <v>       0.11610762       0.22471154       0.94903645 </v>
    <v>       0.22600361       0.11677249       0.05093325 </v>
    <v>       0.11124067       0.55533018       0.94426408 </v>
    <v>       0.22525089       0.44157998       0.05240477 </v>
    <v>       0.11002134       0.88803397       0.94698465 </v>
    <v>       0.22218460       0.77784648       0.05510810 </v>
    <v>       0.44225301       0.22416396       0.95153480 </v>
    <v>       0.55758443       0.10865605       0.05003795 </v>
    <v>       0.44680448       0.55331776       0.95062032 </v>
    <v>       0.55317236       0.44645517       0.04917531 </v>
    <v>       0.44988819       0.89121541       0.94871865 </v>
    <v>       0.55971690       0.77960766       0.04885981 </v>
    <v>       0.77525118       0.21638647       0.94833548 </v>
    <v>       0.88398170       0.10891013       0.05007001 </v>
    <v>       0.77546544       0.55870710       0.94886767 </v>
    <v>       0.88869649       0.44459309       0.05454857 </v>
    <v>       0.77250676       0.88618676       0.95019683 </v>
    <v>       0.88370884       0.77465791       0.05026927 </v>
   </varray>
  </structure>
  <varray name="forces" >
   <v>      -0.46322458      -0.04910158       0.00176288 </v>
   <v>       0.00269773       0.06446178       0.02128762 </v>
   <v>      -0.10822941      -0.09221050       0.04424704 </v>
   <v>      -0.09662735       0.02352390      -0.06796989 </v>
   <v>      -0.05409929      -0.02925360      -0.03337472 </v>
   <v>       0.00759103       0.05116076      -0.03555520 </v>
   <v>       0.18964920       0.06437569       0.05232026 </v>
   <v>       0.09542668      -0.53769749       0.06316313 </v>
   <v>       0.26418812       0.52280306      -0.02777439 </v>
   <v>      -0.16438055      -0.05740180       0.00247013 </v>
   <v>       0.11208208       0.03738547       0.00385066 </v>
   <v>       0.02175558      -0.02608068      -0.27890639 </v>
   <v>      -0.16207657       0.01213177       0.12173028 </v>
   <v>       0.06652727      -0.21292709      -0.16974131 </v>
   <v>       0.01896862      -0.08155531       0.30088604 </v>
   <v>       0.21562999      -0.01678248       0.42462388 </v>
   <v>      -0.13078534      -0.02544292      -0.20787659 </v>
   <v>      -0.21403335      -0.01005869      -0.02476365 </v>
   <v>       0.09399185      -0.01764234      -0.08287336 </v>
   <v>       0.00584228      -0.18245861      -0.02704479 </v>
   <v>      -0.12291140      -0.19104550      -0.03222341 </v>
   <v>       0.08397359       0.14027203      -0.10602634 </v>
   <v>      -0.00961625       0.20359168      -0.08824051 </v>
   <v>       0.14067563       0.18807548      -0.02776741 </v>
   <v>      -0.00372864       0.14227328       0.25690837 </v>
   <v>       0.01904798       0.03622975       0.00799603 </v>
   <v>       0.19166508       0.04337392      -0.09110836 </v>
  </varray>
  <varray name="stress" >
   <v>       0.46025694       0.23231456      -0.19506111 </v>
   <v>       0.23231441       0.27106350       0.28945599 </v>
   <v>      -0.19506114       0.28945611      -0.68430966 </v>
  </varray>
  <energy>
   <i name="e_fr_energy">   -191.53770994 </i>
   <i name="e_wo_entrp">   -191.42713171 </i>
   <i name="e_0_energy">     -0.22115647 </i>
  </energy>
  <time name="totalsc">  371.56  372.55</time>
 </calculation>
 <calculation>
  <scstep>
   <time name="dav">   21.43   21.49</time>
   <time name="total">   21.94   22.00</time>
   <energy>
    <i name="alphaZ">     89.68764275 </i>
    <i name="ewald">  44440.27778701 </i>
    <i name="hartreedc"> -50446.95322410 </i>
    <i name="XCdc">   -233.60268825 </i>
    <i name="pawpsdc">   4087.25778952 </i>
    <i name="pawaedc">  -3503.28941240 </i>
    <i name="eentropy">     -0.22197240 </i>
    <i name="bandstr">  -1386.20972460 </i>
    <i name="atom">   6761.44252427 </i>
    <i name="e_fr_energy">   -191.61127820 </i>
    <i name="e_wo_entrp">   -191.38930581 </i>
    <i name="e_0_energy">   -191.50029200 </i>
   </energy>
  </scstep>
  <scstep>
   <time name="dav">   32.42   32.50</time>
   <time name="total">   32.93   33.02</time>
   <energy>
    <i name="e_fr_energy">   -191.66371337 </i>
    <i name="e_wo_entrp">   -191.43480915 </i>
    <i name="e_0_energy">   -191.54926126 </i>
   </energy>
  </scstep>
  <scstep>
   <time name="dav">   30.39   30.46</time>
   <time name="total">   30.89   30.97</time>
   <energy>
    <i name="e_fr_energy">   -191.62256604 </i>
    <i name="e_wo_entrp">   -191.40000675 </i>
    <i name="e_0_energy">   -191.51128639 </i>
   </energy>
  </scstep>
  <scstep>
   <time name="dav">   25.69   25.75</time>
   <time name="total">   26.19   26.26</time>
   <energy>
    <i name="e_fr_energy">   -191.62548910 </i>
    <i name="e_wo_entrp">   -191.40357875 </i>
    <i name="e_0_energy">   -191.51453392 </i>
   </energy>
  </scstep>
  <scstep>
   <time name="dav">   27.62   27.68</time>
   <time name="total">   28.12   28.19</time>
   <energy>
    <i name="e_fr_energy">   -191.61956086 </i>
    <i name="e_wo_entrp">   -191.39570579 </i>
    <i name="e_0_energy">   -191.50763333 </i>
   </energy>
  </scstep>
  <scstep>
   <time name="dav">   27.50   27.56</time>
   <time name="total">   28.00   28.08</time>
   <energy>
    <i name="e_fr_energy">   -191.62029309 </i>
    <i name="e_wo_entrp">   -191.39749465 </i>
    <i name="e_0_energy">   -191.50889387 </i>
   </energy>
  </scstep>
  <scstep>
   <time name="dav">   27.66   27.73</time>
   <time name="total">   28.17   28.24</time>
   <energy>
    <i name="e_fr_energy">   -191.61935015 </i>
    <i name="e_wo_entrp">   -191.39634913 </i>
    <i name="e_0_energy">   -191.50784964 </i>
   </energy>
  </scstep>
  <scstep>
   <time name="dav">   24.87   24.93</time>
   <time name="total">   25.38   25.45</time>
   <energy>
    <i name="e_fr_energy">   -191.61884476 </i>
    <i name="e_wo_entrp">   -191.39585229 </i>
    <i name="e_0_energy">   -191.50734852 </i>
   </energy>
  </scstep>
  <scstep>
   <time name="dav">   17.90   17.94</time>
   <time name="total">   17.93   17.98</time>
   <energy>
    <i name="alphaZ">     89.68764275 </i>
    <i name="ewald">  44440.27778701 </i>
    <i name="hartreedc"> -50449.97866375 </i>
    <i name="XCdc">   -233.49918464 </i>
    <i name="pawpsdc">   4083.93975730 </i>
    <i name="pawaedc">  -3499.92723473 </i>
    <i name="eentropy">     -0.22303328 </i>
    <i name="bandstr">  -1383.33844977 </i>
    <i name="atom">   6761.44252427 </i>
    <i name="e_fr_energy">   -191.61885485 </i>
    <i name="e_wo_entrp">   -191.39582156 </i>
    <i name="e_0_energy">   -191.50733820 </i>
   </energy>
  </scstep>
  <structure>
   <crystal>
    <varray name="basis" >
     <v>       8.31222921       4.79930493       0.00000000 </v>
     <v>      -8.30082183       4.77957227       0.00000000 </v>
     <v>       0.00000000       0.00000000      30.00000000 </v>
    </varray>
    <i name="volume">   2387.01226129 </i>
    <varray name="rec_basis" >
     <v>       0.06006972       0.10432483       0.00000000 </v>
     <v>      -0.06031772       0.10446820       0.00000000 </v>
     <v>       0.00000000       0.00000000       0.03333333 </v>
    </varray>
   </crystal>
   <varray name="positions" >
    <v>       0.32626505       0.33844868      -0.00041590 </v>
    <v>       0.66731731       0.00042991       0.00045820 </v>
    <v>       0.66460099       0.66661741       0.00052295 </v>
    <v>       1.00352199       0.34928920      -0.00018231 </v>
    <v>       0.31588514       0.66272548      -0.00005378 </v>
    <v>       0.01140937       0.66058712      -0.00007489 </v>
    <v>       0.00373781       0.00007451       0.00066524 </v>
    <v>       0.31921909      -0.01970994      -0.00023718 </v>
    <v>       0.68610644       0.34311674      -0.00062173 </v>
    <v>       0.11536464       0.22484702       0.94911159 </v>
    <v>       0.22643357       0.11659063       0.05086751 </v>
    <v>       0.11116902       0.55514874       0.94399045 </v>
    <v>       0.22485937       0.44208031       0.05248684 </v>
    <v>       0.10923728       0.88689952       0.94682052 </v>
    <v>       0.22186949       0.77744737       0.05542695 </v>
    <v>       0.44276579       0.22349349       0.95219645 </v>
    <v>       0.55709942       0.10890433       0.04967273 </v>
    <v>       0.44617338       0.55384815       0.95064511 </v>
    <v>       0.55335763       0.44610060       0.04899241 </v>
    <v>       0.44901509       0.89036245       0.94875594 </v>
    <v>       0.55849718       0.77904819       0.04875755 </v>
    <v>       0.77611824       0.21685739       0.94826296 </v>
    <v>       0.88493204       0.10986858       0.04988280 </v>
    <v>       0.77670586       0.55915616       0.94890233 </v>
    <v>       0.88932015       0.44525090       0.05481399 </v>
    <v>       0.77277367       0.88633644       0.95027961 </v>
    <v>       0.88445942       0.77439507       0.05007355 </v>
   </varray>
  </structure>
  <varray name="forces" >
   <v>      -0.54874898      -0.02599588      -0.00482771 </v>
   <v>      -0.01068502       0.05843585       0.03398190 </v>
   <v>      -0.12145524      -0.11904462       0.05967291 </v>
   <v>      -0.16933832       0.08452083      -0.01832650 </v>
   <v>      -0.10620225      -0.10990378      -0.02932558 </v>
   <v>       0.11632482       0.08102479      -0.02315273 </v>
   <v>       0.24856188       0.05398820       0.04877054 </v>
   <v>       0.10830083      -0.57821915      -0.00012225 </v>
   <v>       0.29331199       0.56031487      -0.02708010 </v>
   <v>      -0.08902499      -0.04183947      -0.01182163 </v>
   <v>       0.07870074       0.03513127      -0.01972092 </v>
   <v>       0.00755675      -0.00645731      -0.16331797 </v>
   <v>      -0.08541878      -0.01004242       0.12501441 </v>
   <v>       0.02962837      -0.12057123      -0.15887383 </v>
   <v>       0.03896040      -0.08410872       0.23393385 </v>
   <v>       0.15534895       0.00175441       0.48418935 </v>
   <v>      -0.09734086      -0.01297587      -0.21650535 </v>
   <v>      -0.11980201      -0.01318193      -0.04248393 </v>
   <v>       0.07226450      -0.02282175      -0.12146777 </v>
   <v>      -0.01684848      -0.10389802      -0.01434806 </v>
   <v>      -0.06822434      -0.08943456      -0.03610478 </v>
   <v>       0.06204857       0.08034157      -0.10816542 </v>
   <v>       0.02711972       0.11260887      -0.09878598 </v>
   <v>       0.06442135       0.12914407      -0.05366876 </v>
   <v>       0.02790932       0.10836988       0.19433614 </v>
   <v>       0.01338326       0.02646946       0.03967270 </v>
   <v>       0.08924783       0.00639063      -0.07147252 </v>
  </varray>
  <varray name="stress" >
   <v>      -0.21958041       0.03836906      -0.01349803 </v>
   <v>       0.03836910      -0.04060400       0.09403539 </v>
   <v>      -0.01349802       0.09403546      -1.21627147 </v>
  </varray>
  <energy>
   <i name="e_fr_energy">   -191.61885485 </i>
   <i name="e_wo_entrp">   -191.50733820 </i>
   <i name="e_0_energy">     -0.22303328 </i>
  </energy>
  <time name="totalsc">  281.22  281.96</time>
 </calculation>
 <calculation>
  <scstep>
   <time name="dav">   21.41   21.46</time>
   <time name="total">   21.91   21.97</time>
   <energy>
    <i name="alphaZ">     89.76441641 </i>
    <i name="ewald">  44472.75656140 </i>
    <i name="hartreedc"> -50483.26656689 </i>
    <i name="XCdc">   -233.45909788 </i>
    <i name="pawpsdc">   4083.60544266 </i>
    <i name="pawaedc">  -3499.58954452 </i>
    <i name="eentropy">     -0.22148648 </i>
    <i name="bandstr">  -1382.72471169 </i>
    <i name="atom">   6761.44252427 </i>
    <i name="e_fr_energy">   -191.69246271 </i>
    <i name="e_wo_entrp">   -191.47097623 </i>
    <i name="e_0_energy">   -191.58171947 </i>
   </energy>
  </scstep>
  <scstep>
   <time name="dav">   31.57   31.65</time>
   <time name="total">   32.08   32.16</time>
   <energy>
    <i name="e_fr_energy">   -191.72738689 </i>
    <i name="e_wo_entrp">   -191.49890372 </i>
    <i name="e_0_energy">   -191.61314530 </i>
   </energy>
  </scstep>
  <scstep>
   <time name="dav">   30.30   30.37</time>
   <time name="total">   30.81   30.89</time>
   <energy>
    <i name="e_fr_energy">   -191.69981301 </i>
    <i name="e_wo_entrp">   -191.47790765 </i>
    <i name="e_0_energy">   -191.58886033 </i>
   </energy>
  </scstep>
  <scstep>
   <time name="dav">   27.26   27.33</time>
   <time name="total">   27.77   27.85</time>
   <energy>
    <i name="e_fr_energy">   -191.70037677 </i>
    <i name="e_wo_entrp">   -191.47942950 </i>
    <i name="e_0_energy">   -191.58990314 </i>
   </energy>
  </scstep>
  <scstep>
   <time name="dav">   27.52   27.58</time>
   <time name="total">   28.02   28.10</time>
   <energy>
    <i name="e_fr_energy">   -191.69711295 </i>
    <i name="e_wo_entrp">   -191.47391745 </i>
    <i name="e_0_energy">   -191.58551520 </i>
   </energy>
  </scstep>
  <scstep>
   <time name="dav">   28.08   28.15</time>
   <time name="total">   28.59   28.66</time>
   <energy>
    <i name="e_fr_energy">   -191.69717563 </i>
    <i name="e_wo_entrp">   -191.47464705 </i>
    <i name="e_0_energy">   -191.58591134 </i>
   </energy>
  </scstep>
  <scstep>
   <time name="dav">   26.45   26.51</time>
   <time name="total">   26.95   27.02</time>
   <energy>
    <i name="e_fr_energy">   -191.69717694 </i>
    <i name="e_wo_entrp">   -191.47446636 </i>
    <i name="e_0_energy">   -191.58582165 </i>
   </energy>
  </scstep>
  <scstep>
[...]
    <i name="bandstr">  -1385.36189993 </i>
    <i name="atom">   6761.44252427 </i>
    <i name="e_fr_energy">   -192.36458158 </i>
    <i name="e_wo_entrp">   -192.20573145 </i>
    <i name="e_0_energy">   -192.28515652 </i>
   </energy>
  </scstep>
  <structure>
   <crystal>
    <varray name="basis" >
     <v>       8.38092456       4.83600070       0.00000000 </v>
     <v>      -8.35998238       4.79984717       0.00000000 </v>
     <v>       0.00000000       0.00000000      30.00000000 </v>
    </varray>
    <i name="volume">   2419.68113095 </i>
    <varray name="rec_basis" >
     <v>       0.05951008       0.10364980       0.00000000 </v>
     <v>      -0.05995832       0.10390945       0.00000000 </v>
     <v>       0.00000000       0.00000000       0.03333333 </v>
    </varray>
   </crystal>
   <varray name="positions" >
    <v>       0.31594305       0.35098518      -0.00060784 </v>
    <v>       0.65029876      -0.00152862       0.00073052 </v>
    <v>       0.64787980       0.66595281       0.00006847 </v>
    <v>       1.00759402       0.36274042       0.00008820 </v>
    <v>       0.31864504       0.66066422       0.00004059 </v>
    <v>       0.01561747       0.66513241       0.00003670 </v>
    <v>       0.01546690      -0.01987595       0.00139270 </v>
    <v>       0.31295550      -0.03376909      -0.00017054 </v>
    <v>       0.70370884       0.35337902      -0.00141704 </v>
    <v>       0.10956507       0.22131956       0.95129630 </v>
    <v>       0.23030620       0.11533310       0.04982390 </v>
    <v>       0.11306197       0.55791234       0.94315853 </v>
    <v>       0.22132793       0.44275041       0.05431842 </v>
    <v>       0.11182732       0.88347281       0.94397282 </v>
    <v>       0.22150877       0.77300562       0.05696510 </v>
    <v>       0.44459216       0.22397923       0.95909709 </v>
    <v>       0.55689492       0.11279830       0.04838583 </v>
    <v>       0.44167269       0.55342912       0.94892152 </v>
    <v>       0.55135664       0.44410907       0.04653595 </v>
    <v>       0.44853333       0.88866358       0.94759433 </v>
    <v>       0.55736833       0.78145556       0.04934450 </v>
    <v>       0.78158854       0.21985347       0.94819732 </v>
    <v>       0.89128809       0.10833892       0.04399736 </v>
    <v>       0.78025786       0.56352282       0.94930901 </v>
    <v>       0.89347801       0.44918944       0.05635877 </v>
    <v>       0.77509578       0.88744588       0.95261042 </v>
    <v>       0.88038149       0.76795485       0.04995097 </v>
   </varray>
  </structure>
  <varray name="forces" >
   <v>      -0.05122390      -0.00263192      -0.00523622 </v>
   <v>      -0.19096862      -0.57496255      -0.02336948 </v>
   <v>      -0.17584753      -0.03743295      -0.06955910 </v>
   <v>      -0.01950163       0.16557418       0.02419652 </v>
   <v>       0.06569599       0.20078469      -0.00097610 </v>
   <v>       0.07082271       0.01049778       0.00475772 </v>
   <v>       0.19366269      -0.03394548       0.04161253 </v>
   <v>       0.05239975       0.04771566       0.00873129 </v>
   <v>      -0.01523297       0.04856105      -0.01993686 </v>
   <v>       0.02026304      -0.04316127       0.07505045 </v>
   <v>       0.06452751       0.01289807      -0.00143231 </v>
   <v>       0.02880814       0.07896732       0.00721327 </v>
   <v>      -0.03144249       0.02790043       0.02639863 </v>
   <v>       0.09861241       0.04390899      -0.00480704 </v>
   <v>       0.03093206       0.01358507      -0.00446290 </v>
   <v>      -0.02071651       0.01855005       0.05089242 </v>
   <v>      -0.02675726       0.00948764       0.09060927 </v>
   <v>       0.01654816      -0.01366973      -0.06165119 </v>
   <v>      -0.05302819       0.01319341      -0.06332533 </v>
   <v>      -0.01260322       0.02817202      -0.18336022 </v>
   <v>      -0.00785269       0.02540538       0.14391807 </v>
   <v>       0.00534727       0.01406444       0.15906969 </v>
   <v>      -0.01568554      -0.05610525      -0.37414598 </v>
   <v>      -0.04189991       0.03638361       0.07154558 </v>
   <v>      -0.00457429       0.00257779       0.00813975 </v>
   <v>      -0.02968014       0.03145459       0.12578562 </v>
   <v>       0.04939516      -0.06777303      -0.02565811 </v>
  </varray>
  <varray name="stress" >
   <v>       0.14966128      -0.06631922      -0.06223353 </v>
   <v>      -0.06631929       0.14944640      -0.23693678 </v>
   <v>      -0.06223347      -0.23693690      -1.76106210 </v>
  </varray>
  <energy>
   <i name="e_fr_energy">   -192.36458158 </i>
   <i name="e_wo_entrp">   -192.28515652 </i>
   <i name="e_0_energy">     -0.15885013 </i>
  </energy>
  <time name="totalsc">  202.81  203.32</time>
 </calculation>
 <calculation>
  <scstep>
   <time name="dav">   21.44   21.49</time>
   <time name="total">   21.95   22.00</time>
   <energy>
    <i name="alphaZ">     88.32693050 </i>
    <i name="ewald">  43884.02067244 </i>
    <i name="hartreedc"> -49888.44768442 </i>
    <i name="XCdc">   -233.79813892 </i>
    <i name="pawpsdc">   4097.33772350 </i>
    <i name="pawaedc">  -3513.44822860 </i>
    <i name="eentropy">     -0.15303900 </i>
    <i name="bandstr">  -1387.72460535 </i>
    <i name="atom">   6761.44252427 </i>
    <i name="e_fr_energy">   -192.44384557 </i>
    <i name="e_wo_entrp">   -192.29080657 </i>
    <i name="e_0_energy">   -192.36732607 </i>
   </energy>
  </scstep>
  <scstep>
   <time name="dav">   28.73   28.80</time>
   <time name="total">   29.23   29.30</time>
   <energy>
    <i name="e_fr_energy">   -192.53324146 </i>
    <i name="e_wo_entrp">   -192.38664869 </i>
    <i name="e_0_energy">   -192.45994507 </i>
   </energy>
  </scstep>
  <scstep>
   <time name="dav">   29.23   29.31</time>
   <time name="total">   29.73   29.81</time>
   <energy>
    <i name="e_fr_energy">   -192.47072712 </i>
    <i name="e_wo_entrp">   -192.31709529 </i>
    <i name="e_0_energy">   -192.39391120 </i>
   </energy>
  </scstep>
  <scstep>
   <time name="dav">   29.95   30.03</time>
   <time name="total">   30.45   30.53</time>
   <energy>
    <i name="e_fr_energy">   -192.46703984 </i>
    <i name="e_wo_entrp">   -192.31317382 </i>
    <i name="e_0_energy">   -192.39010683 </i>
   </energy>
  </scstep>
  <scstep>
   <time name="dav">   30.07   30.15</time>
   <time name="total">   30.57   30.65</time>
   <energy>
    <i name="e_fr_energy">   -192.46074488 </i>
    <i name="e_wo_entrp">   -192.31092046 </i>
    <i name="e_0_energy">   -192.38583267 </i>
   </energy>
  </scstep>
  <scstep>
   <time name="dav">   29.69   29.77</time>
   <time name="total">   30.19   30.27</time>
   <energy>
    <i name="e_fr_energy">   -192.45966621 </i>
    <i name="e_wo_entrp">   -192.30664070 </i>
    <i name="e_0_energy">   -192.38315346 </i>
   </energy>
  </scstep>
  <scstep>
   <time name="dav">   29.54   29.61</time>
   <time name="total">   30.04   30.11</time>
   <energy>
    <i name="e_fr_energy">   -192.45940331 </i>
    <i name="e_wo_entrp">   -192.30717286 </i>
    <i name="e_0_energy">   -192.38328808 </i>
   </energy>
  </scstep>
  <scstep>
   <time name="dav">   28.95   29.02</time>
   <time name="total">   29.45   29.52</time>
   <energy>
    <i name="e_fr_energy">   -192.45787018 </i>
    <i name="e_wo_entrp">   -192.30591281 </i>
    <i name="e_0_energy">   -192.38189150 </i>
   </energy>
  </scstep>
  <scstep>
   <time name="dav">   20.19   20.24</time>
   <time name="total">   20.22   20.27</time>
   <energy>
    <i name="alphaZ">     88.32693050 </i>
    <i name="ewald">  43884.02067244 </i>
    <i name="hartreedc"> -49890.45891772 </i>
    <i name="XCdc">   -233.74216086 </i>
    <i name="pawpsdc">   4100.92137511 </i>
    <i name="pawaedc">  -3517.07165847 </i>
    <i name="eentropy">     -0.15197459 </i>
    <i name="bandstr">  -1385.74463698 </i>
    <i name="atom">   6761.44252427 </i>
    <i name="e_fr_energy">   -192.45784630 </i>
    <i name="e_wo_entrp">   -192.30587170 </i>
    <i name="e_0_energy">   -192.38185900 </i>
   </energy>
  </scstep>
  <structure>
   <crystal>
    <varray name="basis" >
     <v>       8.38549687       4.83590541       0.00000000 </v>
     <v>      -8.36941665       4.80819824       0.00000000 </v>
     <v>       0.00000000       0.00000000      30.00000000 </v>
    </varray>
    <i name="volume">   2423.78515493 </i>
    <varray name="rec_basis" >
     <v>       0.05951268       0.10359107       0.00000000 </v>
     <v>      -0.05985562       0.10379010       0.00000000 </v>
     <v>       0.00000000       0.00000000       0.03333333 </v>
    </varray>
   </crystal>
   <varray name="positions" >
    <v>       0.31550901       0.35135143      -0.00062365 </v>
    <v>       0.64085172      -0.00800824       0.00063950 </v>
    <v>       0.64597242       0.66683573      -0.00023392 </v>
    <v>       1.00970964       0.36519571       0.00021057 </v>
    <v>       0.32192592       0.66293020       0.00005118 </v>
    <v>       0.01633394       0.66469648       0.00007346 </v>
    <v>       0.01651485      -0.02188331       0.00159678 </v>
    <v>       0.31400241      -0.03353623      -0.00010486 </v>
    <v>       0.70430087       0.35419369      -0.00149483 </v>
    <v>       0.10912681       0.22055474       0.95162778 </v>
    <v>       0.23096381       0.11496594       0.04980414 </v>
    <v>       0.11438747       0.55878107       0.94318815 </v>
    <v>       0.22147375       0.44340507       0.05442322 </v>
    <v>       0.11320225       0.88329031       0.94394601 </v>
    <v>       0.22194956       0.77296680       0.05692266 </v>
    <v>       0.44469389       0.22439727       0.95932284 </v>
    <v>       0.55680941       0.11312797       0.04877122 </v>
    <v>       0.44163611       0.55312055       0.94864742 </v>
    <v>       0.55113566       0.44473095       0.04624814 </v>
    <v>       0.44879728       0.88914690       0.94677187 </v>
    <v>       0.55765832       0.78185958       0.04997774 </v>
    <v>       0.78182297       0.22000064       0.94891144 </v>
    <v>       0.89037594       0.10769851       0.04232806 </v>
    <v>       0.78043193       0.56437223       0.94963021 </v>
    <v>       0.89348020       0.44925541       0.05637146 </v>
    <v>       0.77528836       0.88811858       0.95317113 </v>
    <v>       0.87985994       0.76664645       0.04982215 </v>
   </varray>
  </structure>
  <varray name="forces" >
   <v>      -0.07257998      -0.01255794      -0.00592812 </v>
   <v>       0.00010734      -0.30590578       0.03755269 </v>
   <v>      -0.10698591      -0.05204948      -0.03721745 </v>
   <v>       0.10518553       0.12273254       0.00639904 </v>
   <v>       0.05652874       0.12169435      -0.00443134 </v>
   <v>       0.07469421       0.06104435      -0.02468495 </v>
   <v>       0.04323112      -0.00817177       0.01039509 </v>
   <v>       0.03422707       0.03450598       0.01379350 </v>
   <v>      -0.01811557       0.03344274      -0.00215521 </v>
   <v>       0.03509510       0.01446949       0.03701257 </v>
   <v>       0.00967582       0.01948566       0.00865521 </v>
   <v>       0.04219565       0.07521702      -0.00377259 </v>
   <v>       0.00767265       0.06579908      -0.00834787 </v>
   <v>       0.03954131       0.01143064       0.00133104 </v>
   <v>       0.02533809       0.02883378       0.01287510 </v>
   <v>      -0.02590971       0.01356675       0.03462280 </v>
   <v>       0.00564540      -0.02093789       0.00113876 </v>
   <v>       0.02341540      -0.02594038      -0.03243939 </v>
   <v>      -0.04290154       0.00975069      -0.04734490 </v>
   <v>      -0.08045534      -0.06292374      -0.16609377 </v>
   <v>      -0.01230865      -0.01078042       0.14350627 </v>
   <v>       0.02405444      -0.04777841       0.13529100 </v>
   <v>      -0.08860014      -0.07845821      -0.24217330 </v>
   <v>      -0.05510581       0.05037445       0.04730932 </v>
   <v>       0.00370001       0.00923445       0.02669313 </v>
   <v>      -0.06562560       0.00120723       0.06670537 </v>
   <v>       0.03828037      -0.04728516      -0.00869199 </v>
  </varray>
  <varray name="stress" >
   <v>       0.14056836       0.01344525       0.02726125 </v>
   <v>       0.01344506       0.24672962      -0.03768572 </v>
   <v>       0.02726135      -0.03768578      -1.53430126 </v>
  </varray>
  <energy>
   <i name="e_fr_energy">   -192.45784630 </i>
   <i name="e_wo_entrp">   -192.38185900 </i>
   <i name="e_0_energy">     -0.15197459 </i>
  </energy>
  <time name="totalsc">  293.84  294.57</time>
 </calculation>
 <calculation>
  <scstep>
   <time name="dav">   21.46   21.51</time>
   <time name="total">   21.96   22.01</time>
   <energy>
    <i name="alphaZ">     88.24297076 </i>
    <i name="ewald">  43848.07118038 </i>
    <i name="hartreedc"> -49853.41466595 </i>
    <i name="XCdc">   -233.80203088 </i>
    <i name="pawpsdc">   4100.76773525 </i>
    <i name="pawaedc">  -3516.91603463 </i>
    <i name="eentropy">     -0.15174291 </i>
    <i name="bandstr">  -1386.71718158 </i>
    <i name="atom">   6761.44252427 </i>
    <i name="e_fr_energy">   -192.47724528 </i>
    <i name="e_wo_entrp">   -192.32550238 </i>
    <i name="e_0_energy">   -192.40137383 </i>
   </energy>
  </scstep>
  <scstep>
   <time name="dav">   28.07   28.14</time>
   <time name="total">   28.56   28.64</time>
   <energy>
    <i name="e_fr_energy">   -192.48955032 </i>
    <i name="e_wo_entrp">   -192.34124241 </i>
    <i name="e_0_energy">   -192.41539637 </i>
   </energy>
  </scstep>
  <scstep>
   <time name="dav">   29.38   29.45</time>
   <time name="total">   29.88   29.95</time>
   <energy>
    <i name="e_fr_energy">   -192.48411752 </i>
    <i name="e_wo_entrp">   -192.33155391 </i>
    <i name="e_0_energy">   -192.40783572 </i>
   </energy>
  </scstep>
  <scstep>
   <time name="dav">   30.16   30.23</time>
   <time name="total">   30.66   30.95</time>
   <energy>
    <i name="e_fr_energy">   -192.48277763 </i>
    <i name="e_wo_entrp">   -192.33155669 </i>
    <i name="e_0_energy">   -192.40716716 </i>
   </energy>
  </scstep>
  <scstep>
   <time name="dav">   29.36   29.43</time>
   <time name="total">   29.86   29.93</time>
   <energy>
    <i name="e_fr_energy">   -192.48221517 </i>
    <i name="e_wo_entrp">   -192.33176217 </i>
    <i name="e_0_energy">   -192.40698867 </i>
   </energy>
  </scstep>
  <scstep>
   <time name="dav">   26.55   26.61</time>
   <time name="total">   27.04   27.11</time>
   <energy>
    <i name="e_fr_energy">   -192.48189870 </i>
    <i name="e_wo_entrp">   -192.33040640 </i>
    <i name="e_0_energy">   -192.40615255 </i>
   </energy>
  </scstep>
  <scstep>
   <time name="dav">   25.77   25.83</time>
   <time name="total">   25.80   25.87</time>
   <energy>
    <i name="alphaZ">     88.24297076 </i>
    <i name="ewald">  43848.07118038 </i>
    <i name="hartreedc"> -49854.31697343 </i>
    <i name="XCdc">   -233.76850738 </i>
    <i name="pawpsdc">   4100.61218994 </i>
    <i name="pawaedc">  -3516.76006768 </i>
    <i name="eentropy">     -0.15099029 </i>
    <i name="bandstr">  -1385.85428858 </i>
    <i name="atom">   6761.44252427 </i>
    <i name="e_fr_energy">   -192.48196201 </i>
    <i name="e_wo_entrp">   -192.33097172 </i>
    <i name="e_0_energy">   -192.40646686 </i>
   </energy>
  </scstep>
  <structure>
   <crystal>
    <varray name="basis" >
     <v>       8.38772631       4.83963417       0.00000000 </v>
     <v>      -8.37128486       4.81128639       0.00000000 </v>
     <v>       0.00000000       0.00000000      30.00000000 </v>
    </varray>
    <i name="volume">   2426.09129198 </i>
    <varray name="rec_basis" >
     <v>       0.05949430       0.10351570       0.00000000 </v>
     <v>      -0.05984483       0.10371901       0.00000000 </v>
     <v>       0.00000000       0.00000000       0.03333333 </v>
    </varray>
   </crystal>
   <varray name="positions" >
    <v>       0.31510487       0.35156857      -0.00062916 </v>
    <v>       0.63848005      -0.01043041       0.00074616 </v>
    <v>       0.64510367       0.66691026      -0.00031875 </v>
    <v>       1.01109305       0.36569194       0.00024513 </v>
    <v>       0.32310093       0.66363534       0.00005861 </v>
    <v>       0.01713946       0.66481148       0.00003245 </v>
    <v>       0.01662505      -0.02213588       0.00164693 </v>
    <v>       0.31438658      -0.03343361      -0.00003801 </v>
    <v>       0.70453079       0.35455772      -0.00148750 </v>
    <v>       0.10938334       0.22049947       0.95171802 </v>
    <v>       0.23111888       0.11503251       0.04980884 </v>
    <v>       0.11515857       0.55918025       0.94317617 </v>
    <v>       0.22201940       0.44389680       0.05438835 </v>
    <v>       0.11345383       0.88319949       0.94394244 </v>
    <v>       0.22229126       0.77309930       0.05692629 </v>
    <v>       0.44469648       0.22461147       0.95940848 </v>
    <v>       0.55666927       0.11292733       0.04875571 </v>
    <v>       0.44156668       0.55283438       0.94856613 </v>
    <v>       0.55104226       0.44501613       0.04612271 </v>
    <v>       0.44794004       0.88901533       0.94635121 </v>
    <v>       0.55752640       0.78182144       0.05032493 </v>
    <v>       0.78156409       0.21952697       0.94925563 </v>
    <v>       0.88937275       0.10749987       0.04171688 </v>
    <v>       0.78057972       0.56501558       0.94975197 </v>
    <v>       0.89356990       0.44930219       0.05640816 </v>
    <v>       0.77500476       0.88841991       0.95334008 </v>
    <v>       0.87969239       0.76614064       0.04978202 </v>
   </varray>
  </structure>
  <varray name="forces" >
   <v>      -0.01964078      -0.00297115       0.00167485 </v>
   <v>      -0.02356045      -0.26101154      -0.05820209 </v>
   <v>      -0.07160354      -0.03878618      -0.01118148 </v>
   <v>       0.01528838       0.09391441      -0.00610497 </v>
   <v>       0.02637183       0.07547042      -0.03846661 </v>
   <v>       0.05189069       0.02969267      -0.00236969 </v>
   <v>       0.06912338      -0.01619554       0.02142013 </v>
   <v>       0.00325720       0.00332492      -0.05293262 </v>
   <v>       0.01088539       0.05498756      -0.03330818 </v>
   <v>       0.03138926       0.00526670      -0.00141749 </v>
   <v>      -0.02079344       0.00597055      -0.00142450 </v>
   <v>       0.04939818       0.04864374       0.00953224 </v>
   <v>       0.01013624       0.05930837       0.03715712 </v>
   <v>       0.00467709       0.02213955       0.03411587 </v>
   <v>       0.03212684       0.02031885       0.01518213 </v>
   <v>      -0.02189748       0.02711892       0.04320280 </v>
   <v>      -0.01172714      -0.00215913       0.01348456 </v>
   <v>       0.01650443      -0.02330714      -0.03692733 </v>
   <v>      -0.03199832      -0.00551538      -0.03520016 </v>
   <v>      -0.05097946      -0.02501071      -0.04188601 </v>
   <v>       0.00526864      -0.03094920       0.12504848 </v>
   <v>       0.00750607      -0.02651694       0.12858591 </v>
   <v>      -0.05254494      -0.05574258      -0.15227392 </v>
   <v>      -0.02961620       0.03980605       0.06931315 </v>
   <v>       0.02841676       0.01630838      -0.02771204 </v>
   <v>      -0.05236219      -0.00434648       0.05033656 </v>
   <v>       0.02448358      -0.00975912      -0.04964670 </v>
  </varray>
  <varray name="stress" >
   <v>       0.05875235      -0.07213940       0.04038726 </v>
   <v>      -0.07213964       0.12399410      -0.05885046 </v>
   <v>       0.04038720      -0.05885045      -1.54815037 </v>
  </varray>
  <energy>
   <i name="e_fr_energy">   -192.48196201 </i>
   <i name="e_wo_entrp">   -192.40646686 </i>
   <i name="e_0_energy">     -0.15099029 </i>
  </energy>
  <time name="totalsc">  235.47  236.26</time>
 </calculation>
 <calculation>
  <scstep>
