   27   27  100    1
  0.9710400E+02  0.1002848E-08  0.1002848E-08  0.3000000E-08  0.5000000E-15
  1.000000000000000E-004
  CAR 
 unknown system                          
    159     34    120
 
  0.0000000E+00  0.0000000E+00  0.0000000E+00  0.1562500E-01
    1      -17.799203   1.000000
    2      -16.703849   1.000000
    3      -16.637875   1.000000
    4      -16.594471   1.000000
    5      -16.527053   1.000000
    6      -16.481408   1.000000
    7      -16.400344   1.000000
    8      -16.304737   1.000000
    9      -16.170018   1.000000
   10      -16.113504   1.000000
   11      -16.072862   1.000000
   12      -15.951101   1.000000
   13      -15.878337   1.000000
   14      -15.707237   1.000000
   15      -15.595748   1.000000
   16      -15.535268   1.000000
   17      -15.352493   1.000000
   18      -15.303212   1.000000
   19       -9.235111   1.000000
   20       -8.991084   1.000000
   21       -8.949914   1.000000
   22       -8.869913   1.000000
   23       -8.787871   1.000000
   24       -8.724195   1.000000
   25       -8.671843   1.000000
   26       -8.544035   1.000000
   27       -8.512874   1.000000
   28       -8.411466   1.000000
   29       -8.370398   1.000000
   30       -8.346259   1.000000
   31       -8.261137   1.000000
   32       -8.212310   1.000000
   33       -8.123811   1.000000
   34       -7.946026   1.000000
   35       -7.921095   1.000000
   36       -7.803667   1.000000
   37       -7.714440   1.000000
   38       -7.565995   1.000000
   39       -7.466814   1.000000
   40       -7.384569   1.000000
   41       -7.340136   1.000000
   42       -7.216529   1.000000
   43       -7.115235   1.000000
   44       -6.975401   1.000000
   45       -6.808041   1.000000
   46       -6.761808   1.000000
   47       -6.660808   1.000000
   48       -6.614184   1.000000
   49       -6.602017   1.000000
   50       -6.489133   1.000000
   51       -6.439577   1.000000
   52       -6.387953   1.000000
   53       -6.381171   1.000000
   54       -6.299647   1.000000
   55       -6.253537   1.000000
   56       -6.181860   1.000000
   57       -6.039378   1.000000
   58       -5.930421   1.000000
   59       -5.741038   1.000000
   60       -5.540450   1.000000
   61       -5.498618   1.000000
   62       -5.415728   1.000000
   63       -5.258813   1.000000
   64       -5.119459   1.000000
   65       -5.073158   1.000000
   66       -5.051411   1.000000
   67       -4.986017   1.000000
   68       -4.941929   1.000000
   69       -4.740072   1.000000
   70       -4.725275   1.000000
   71       -4.692367   1.000000
   72       -4.605926   1.000000
   73       -4.556186   1.000000
   74       -4.237797   1.000000
   75       -4.181047   1.000000
   76       -4.096580   1.000000
   77       -3.671649   0.998423
   78       -3.583167   0.990008
   79       -3.508389   0.963904
   80       -3.383020   0.818960
   81       -3.366431   0.786434
   82       -2.931061   0.011173
   83       -2.866850   0.003086
   84       -2.642589   0.000008
   85       -2.577680   0.000001
   86       -2.442108   0.000000
   87       -2.307331   0.000000
   88       -2.171336   0.000000
   89       -2.110868   0.000000
   90       -1.996307   0.000000
   91       -1.780900   0.000000
   92       -1.681624   0.000000
   93       -1.522402   0.000000
   94       -1.322658   0.000000
   95       -1.140707   0.000000
   96       -1.059396   0.000000
   97       -0.988592   0.000000
   98       -0.925052   0.000000
   99       -0.823593   0.000000
  100       -0.695604   0.000000
  101       -0.536778   0.000000
  102       -0.507338   0.000000
  103       -0.488489   0.000000
  104       -0.346555   0.000000
  105       -0.250623   0.000000
  106       -0.103189   0.000000
  107       -0.033220   0.000000
  108       -0.009875   0.000000
  109        0.092503   0.000000
  110        0.168362   0.000000
  111        0.256132   0.000000
  112        0.379051   0.000000
  113        0.685760   0.000000
  114        0.759547   0.000000
  115        0.942837   0.000000
  116        1.046616   0.000000
  117        1.235685   0.000000
  118        1.635108   0.000000
  119        1.828733   0.000000
  120        2.141686   0.000000
 
  0.1250000E+00  0.2775558E-16  0.0000000E+00  0.3125000E-01
    1      -17.774082   1.000000
    2      -16.777013   1.000000
    3      -16.671938   1.000000
    4      -16.651262   1.000000
    5      -16.563464   1.000000
    6      -16.393986   1.000000
    7      -16.370096   1.000000
    8      -16.290287   1.000000
    9      -16.203534   1.000000
   10      -16.081556   1.000000
   11      -16.017807   1.000000
   12      -15.938082   1.000000
   13      -15.866276   1.000000
   14      -15.709670   1.000000
   15      -15.596411   1.000000
   16      -15.542822   1.000000
   17      -15.358267   1.000000
   18      -15.310761   1.000000
   19       -9.246645   1.000000
   20       -9.154178   1.000000
   21       -9.050240   1.000000
   22       -8.980657   1.000000
   23       -8.756884   1.000000
   24       -8.726828   1.000000
   25       -8.599390   1.000000
   26       -8.558198   1.000000
   27       -8.528849   1.000000
   28       -8.429103   1.000000
   29       -8.394055   1.000000
   30       -8.239213   1.000000
   31       -8.157785   1.000000
   32       -8.130975   1.000000
   33       -8.062123   1.000000
   34       -7.942319   1.000000
   35       -7.820104   1.000000
   36       -7.729908   1.000000
   37       -7.673408   1.000000
   38       -7.597678   1.000000
   39       -7.521510   1.000000
   40       -7.393698   1.000000
   41       -7.300534   1.000000
   42       -7.250998   1.000000
   43       -7.110501   1.000000
   44       -6.984977   1.000000
   45       -6.866523   1.000000
   46       -6.812693   1.000000
   47       -6.699759   1.000000
   48       -6.556354   1.000000
   49       -6.525156   1.000000
   50       -6.486226   1.000000
   51       -6.466137   1.000000
   52       -6.395500   1.000000
   53       -6.353291   1.000000
   54       -6.308578   1.000000
   55       -6.253306   1.000000
   56       -6.186783   1.000000
   57       -5.993916   1.000000
   58       -5.937962   1.000000
   59       -5.728593   1.000000
   60       -5.569024   1.000000
   61       -5.512025   1.000000
   62       -5.440167   1.000000
   63       -5.362976   1.000000
   64       -5.189803   1.000000
   65       -5.124043   1.000000
   66       -5.016992   1.000000
   67       -4.964593   1.000000
   68       -4.892100   1.000000
   69       -4.830758   1.000000
   70       -4.748558   1.000000
   71       -4.668330   1.000000
   72       -4.552783   1.000000
   73       -4.491285   1.000000
   74       -4.190889   1.000000
   75       -4.156949   1.000000
   76       -4.030055   1.000000
   77       -3.816346   0.999965
   78       -3.762050   0.999836
   79       -3.523030   0.971377
   80       -3.317873   0.673915
   81       -3.219830   0.404188
   82       -2.899693   0.006101
   83       -2.843809   0.001858
   84       -2.647107   0.000009
   85       -2.558456   0.000000
   86       -2.438204   0.000000
   87       -2.278435   0.000000
   88       -2.184142   0.000000
   89       -2.110997   0.000000
   90       -1.985981   0.000000
   91       -1.802160   0.000000
   92       -1.669861   0.000000
   93       -1.519101   0.000000
   94       -1.306308   0.000000
   95       -1.140369   0.000000
   96       -1.070547   0.000000
   97       -0.981858   0.000000
   98       -0.924493   0.000000
   99       -0.821405   0.000000
  100       -0.757061   0.000000
  101       -0.611652   0.000000
  102       -0.584528   0.000000
  103       -0.523792   0.000000
  104       -0.384620   0.000000
  105       -0.343033   0.000000
  106       -0.123595   0.000000
  107       -0.067479   0.000000
  108       -0.007588   0.000000
  109        0.063926   0.000000
  110        0.134694   0.000000
  111        0.345875   0.000000
  112        0.518803   0.000000
  113        0.682381   0.000000
  114        0.771793   0.000000
  115        0.915728   0.000000
  116        1.092700   0.000000
  117        1.199108   0.000000
  118        1.678716   0.000000
  119        1.867517   0.000000
  120        2.176682   0.000000
 
  0.2500000E+00  0.5551115E-16  0.0000000E+00  0.3125000E-01
    1      -17.699838   1.000000
    2      -16.985827   1.000000
    3      -16.709794   1.000000
    4      -16.668442   1.000000
    5      -16.605843   1.000000
    6      -16.376646   1.000000
    7      -16.299922   1.000000
    8      -16.244818   1.000000
    9      -16.184619   1.000000
   10      -16.092816   1.000000
   11      -15.933181   1.000000
   12      -15.885733   1.000000
   13      -15.838488   1.000000
   14      -15.699559   1.000000
   15      -15.603469   1.000000
   16      -15.558911   1.000000
   17      -15.374437   1.000000
   18      -15.327174   1.000000
   19       -9.514334   1.000000
   20       -9.239991   1.000000
   21       -9.135149   1.000000
   22       -9.003162   1.000000
   23       -8.876819   1.000000
   24       -8.734185   1.000000
   25       -8.620889   1.000000
   26       -8.560985   1.000000
   27       -8.459205   1.000000
   28       -8.404978   1.000000
   29       -8.294332   1.000000
   30       -8.210326   1.000000
   31       -8.158252   1.000000
   32       -8.008756   1.000000
   33       -7.919252   1.000000
   34       -7.860546   1.000000
   35       -7.710248   1.000000
   36       -7.665953   1.000000
   37       -7.622222   1.000000
   38       -7.560596   1.000000
   39       -7.459724   1.000000
   40       -7.402001   1.000000
   41       -7.317576   1.000000
   42       -7.243603   1.000000
   43       -7.048587   1.000000
   44       -6.997994   1.000000
   45       -6.872320   1.000000
   46       -6.815913   1.000000
   47       -6.749431   1.000000
   48       -6.595418   1.000000
   49       -6.524720   1.000000
   50       -6.507297   1.000000
   51       -6.457968   1.000000
   52       -6.398211   1.000000
   53       -6.332903   1.000000
   54       -6.258979   1.000000
   55       -6.195641   1.000000
   56       -6.102378   1.000000
   57       -5.994397   1.000000
   58       -5.898302   1.000000
   59       -5.761039   1.000000
   60       -5.716847   1.000000
   61       -5.668107   1.000000
   62       -5.551545   1.000000
   63       -5.446913   1.000000
   64       -5.291501   1.000000
   65       -5.209619   1.000000
   66       -5.054712   1.000000
   67       -4.936683   1.000000
   68       -4.845943   1.000000
   69       -4.750186   1.000000
   70       -4.715812   1.000000
   71       -4.629970   1.000000
   72       -4.463660   1.000000
   73       -4.403905   1.000000
   74       -4.281832   1.000000
   75       -4.162383   1.000000
   76       -4.034797   1.000000
   77       -3.974300   1.000000
   78       -3.824896   0.999973
   79       -3.519965   0.969930
   80       -3.236911   0.451555
   81       -3.075552   0.103346
   82       -2.842550   0.001805
   83       -2.786286   0.000470
   84       -2.639503   0.000007
   85       -2.525178   0.000000
   86       -2.425635   0.000000
   87       -2.250163   0.000000
   88       -2.201864   0.000000
   89       -2.097852   0.000000
   90       -1.936570   0.000000
   91       -1.827075   0.000000
   92       -1.654938   0.000000
   93       -1.514491   0.000000
   94       -1.274204   0.000000
   95       -1.164455   0.000000
   96       -1.066941   0.000000
   97       -1.015243   0.000000
   98       -0.981614   0.000000
   99       -0.873119   0.000000
  100       -0.792508   0.000000
  101       -0.747681   0.000000
  102       -0.689064   0.000000
  103       -0.605694   0.000000
  104       -0.529473   0.000000
  105       -0.431401   0.000000
  106       -0.284487   0.000000
  107       -0.154960   0.000000
  108       -0.032551   0.000000
  109        0.082801   0.000000
  110        0.196487   0.000000
  111        0.423347   0.000000
  112        0.594130   0.000000
  113        0.700130   0.000000
  114        0.814332   0.000000
  115        0.950216   0.000000
  116        1.127120   0.000000
  117        1.208015   0.000000
  118        1.800958   0.000000
  119        1.979458   0.000000
  120        2.280624   0.000000
 
  0.3750000E+00  0.0000000E+00  0.0000000E+00  0.3125000E-01
    1      -17.580972   1.000000
    2      -17.202079   1.000000
    3      -16.745541   1.000000
    4      -16.676787   1.000000
    5      -16.624293   1.000000
    6      -16.397322   1.000000
    7      -16.258820   1.000000
    8      -16.191544   1.000000
    9      -16.138990   1.000000
   10      -16.101009   1.000000
   11      -15.904693   1.000000
   12      -15.842237   1.000000
   13      -15.802432   1.000000
   14      -15.684064   1.000000
   15      -15.625221   1.000000
   16      -15.547585   1.000000
   17      -15.401037   1.000000
   18      -15.336431   1.000000
   19       -9.729553   1.000000
   20       -9.361146   1.000000
   21       -9.140813   1.000000
   22       -9.004342   1.000000
   23       -8.913863   1.000000
   24       -8.760720   1.000000
   25       -8.600910   1.000000
   26       -8.512743   1.000000
   27       -8.440584   1.000000
   28       -8.407959   1.000000
   29       -8.279235   1.000000
   30       -8.177485   1.000000
   31       -8.121740   1.000000
   32       -7.980703   1.000000
   33       -7.912106   1.000000
   34       -7.827650   1.000000
   35       -7.755420   1.000000
   36       -7.720802   1.000000
   37       -7.584081   1.000000
   38       -7.497317   1.000000
   39       -7.356102   1.000000
   40       -7.259979   1.000000
   41       -7.214874   1.000000
   42       -7.163705   1.000000
   43       -7.006191   1.000000
   44       -6.950528   1.000000
   45       -6.868471   1.000000
   46       -6.785262   1.000000
   47       -6.683102   1.000000
   48       -6.606596   1.000000
   49       -6.541250   1.000000
   50       -6.513105   1.000000
   51       -6.462315   1.000000
   52       -6.389470   1.000000
   53       -6.318643   1.000000
   54       -6.201221   1.000000
   55       -6.161900   1.000000
   56       -6.061797   1.000000
   57       -5.988677   1.000000
   58       -5.949101   1.000000
   59       -5.901889   1.000000
   60       -5.838001   1.000000
   61       -5.740131   1.000000
   62       -5.688312   1.000000
   63       -5.597746   1.000000
   64       -5.381053   1.000000
   65       -5.168740   1.000000
   66       -5.022581   1.000000
   67       -4.920973   1.000000
   68       -4.863014   1.000000
   69       -4.752931   1.000000
   70       -4.647820   1.000000
   71       -4.637648   1.000000
   72       -4.507556   1.000000
   73       -4.370664   1.000000
   74       -4.324435   1.000000
   75       -4.229868   1.000000
   76       -4.145491   1.000000
   77       -3.895729   0.999997
   78       -3.718096   0.999482
   79       -3.527617   0.973435
   80       -3.182643   0.306614
   81       -2.991951   0.031879
   82       -2.790601   0.000523
   83       -2.745184   0.000160
   84       -2.620378   0.000004
   85       -2.501951   0.000000
   86       -2.395055   0.000000
   87       -2.303242   0.000000
   88       -2.142773   0.000000
   89       -2.078253   0.000000
   90       -1.933338   0.000000
   91       -1.762992   0.000000
   92       -1.646190   0.000000
   93       -1.515463   0.000000
   94       -1.278336   0.000000
   95       -1.195336   0.000000
   96       -1.166126   0.000000
   97       -1.063451   0.000000
   98       -0.978133   0.000000
   99       -0.944482   0.000000
  100       -0.868784   0.000000
  101       -0.806593   0.000000
  102       -0.723304   0.000000
  103       -0.675793   0.000000
  104       -0.632318   0.000000
  105       -0.472218   0.000000
  106       -0.443992   0.000000
  107       -0.234102   0.000000
  108       -0.077347   0.000000
  109        0.112546   0.000000
  110        0.227513   0.000000
  111        0.381375   0.000000
  112        0.620024   0.000000
  113        0.688993   0.000000
  114        0.874346   0.000000
  115        1.006876   0.000000
  116        1.169343   0.000000
  117        1.286856   0.000000
  118        1.984689   0.000000
  119        2.154159   0.000000
  120        2.450556   0.000000
 
  0.5000000E+00  0.1110223E-15  0.0000000E+00  0.1562500E-01
    1      -17.461833   1.000000
    2      -17.355474   1.000000
    3      -16.758487   1.000000
    4      -16.683972   1.000000
    5      -16.625126   1.000000
    6      -16.407343   1.000000
    7      -16.249008   1.000000
    8      -16.167859   1.000000
    9      -16.120577   1.000000
   10      -16.098852   1.000000
   11      -15.906530   1.000000
   12      -15.818401   1.000000
   13      -15.779028   1.000000
   14      -15.693811   1.000000
   15      -15.644370   1.000000
   16      -15.520299   1.000000
   17      -15.421350   1.000000
   18      -15.336766   1.000000
   19       -9.806528   1.000000
   20       -9.404413   1.000000
   21       -9.156312   1.000000
   22       -9.034300   1.000000
   23       -8.848745   1.000000
   24       -8.760205   1.000000
   25       -8.611454   1.000000
   26       -8.544339   1.000000
   27       -8.427926   1.000000
   28       -8.402403   1.000000
   29       -8.271770   1.000000
   30       -8.137711   1.000000
   31       -8.036761   1.000000
   32       -8.024900   1.000000
   33       -7.923762   1.000000
   34       -7.865481   1.000000
   35       -7.808059   1.000000
   36       -7.767207   1.000000
   37       -7.572090   1.000000
   38       -7.449337   1.000000
   39       -7.350897   1.000000
   40       -7.217948   1.000000
   41       -7.133416   1.000000
   42       -7.062480   1.000000
   43       -6.934924   1.000000
   44       -6.918097   1.000000
   45       -6.893191   1.000000
   46       -6.738097   1.000000
   47       -6.645982   1.000000
   48       -6.595832   1.000000
   49       -6.555855   1.000000
   50       -6.499160   1.000000
   51       -6.420275   1.000000
   52       -6.406149   1.000000
   53       -6.380288   1.000000
   54       -6.223832   1.000000
   55       -6.198221   1.000000
   56       -6.076023   1.000000
   57       -6.048117   1.000000
   58       -5.970986   1.000000
   59       -5.907197   1.000000
   60       -5.860440   1.000000
   61       -5.715418   1.000000
   62       -5.662753   1.000000
   63       -5.561527   1.000000
   64       -5.446664   1.000000
   65       -5.310154   1.000000
   66       -5.051308   1.000000
   67       -4.938888   1.000000
   68       -4.909256   1.000000
   69       -4.684219   1.000000
   70       -4.668516   1.000000
   71       -4.611452   1.000000
   72       -4.492175   1.000000
   73       -4.349847   1.000000
   74       -4.322668   1.000000
   75       -4.300119   1.000000
   76       -4.156059   1.000000
   77       -3.816865   0.999965
   78       -3.705675   0.999296
   79       -3.527506   0.973387
   80       -3.164495   0.263106
   81       -2.964893   0.020418
   82       -2.772241   0.000328
   83       -2.726741   0.000096
   84       -2.615234   0.000003
   85       -2.495901   0.000000
   86       -2.376333   0.000000
   87       -2.320083   0.000000
   88       -2.122634   0.000000
   89       -2.060123   0.000000
   90       -1.948456   0.000000
   91       -1.713863   0.000000
   92       -1.641147   0.000000
   93       -1.518287   0.000000
   94       -1.303395   0.000000
   95       -1.250048   0.000000
   96       -1.152029   0.000000
   97       -1.089161   0.000000
   98       -1.008528   0.000000
   99       -0.976044   0.000000
  100       -0.885886   0.000000
  101       -0.826740   0.000000
  102       -0.731058   0.000000
  103       -0.696037   0.000000
  104       -0.650232   0.000000
  105       -0.537029   0.000000
  106       -0.461217   0.000000
  107       -0.265758   0.000000
  108       -0.098286   0.000000
  109        0.114843   0.000000
  110        0.237872   0.000000
  111        0.352513   0.000000
  112        0.612311   0.000000
  113        0.703518   0.000000
  114        0.883598   0.000000
  115        1.023296   0.000000
  116        1.212573   0.000000
  117        1.316462   0.000000
  118        2.195116   0.000000
  119        2.246780   0.000000
  120        2.365384   0.000000
 
  0.0000000E+00  0.1250000E+00  0.0000000E+00  0.3125000E-01
    1      -17.774960   1.000000
    2      -16.773488   1.000000
    3      -16.682899   1.000000
    4      -16.605277   1.000000
    5      -16.571044   1.000000
    6      -16.484118   1.000000
    7      -16.325053   1.000000
    8      -16.265167   1.000000
    9      -16.190553   1.000000
   10      -16.125284   1.000000
   11      -16.006849   1.000000
   12      -15.929369   1.000000
   13      -15.857149   1.000000
   14      -15.707532   1.000000
   15      -15.615169   1.000000
   16      -15.533187   1.000000
   17      -15.366601   1.000000
   18      -15.304276   1.000000
   19       -9.244116   1.000000
   20       -9.108126   1.000000
   21       -9.003000   1.000000
   22       -8.949184   1.000000
   23       -8.833945   1.000000
   24       -8.801894   1.000000
   25       -8.667721   1.000000
   26       -8.577561   1.000000
   27       -8.474330   1.000000
   28       -8.426594   1.000000
   29       -8.407424   1.000000
   30       -8.250169   1.000000
   31       -8.207922   1.000000
   32       -8.067279   1.000000
   33       -7.976281   1.000000
   34       -7.880228   1.000000
   35       -7.848105   1.000000
   36       -7.768637   1.000000
   37       -7.662750   1.000000
   38       -7.616081   1.000000
   39       -7.507451   1.000000
   40       -7.417581   1.000000
   41       -7.307629   1.000000
   42       -7.170220   1.000000
   43       -7.092847   1.000000
   44       -7.044498   1.000000
   45       -6.863703   1.000000
   46       -6.807579   1.000000
   47       -6.727363   1.000000
   48       -6.611011   1.000000
   49       -6.544379   1.000000
   50       -6.457830   1.000000
   51       -6.443349   1.000000
   52       -6.402793   1.000000
   53       -6.356522   1.000000
   54       -6.311086   1.000000
   55       -6.253692   1.000000
   56       -6.194656   1.000000
   57       -5.991867   1.000000
   58       -5.909266   1.000000
   59       -5.705381   1.000000
   60       -5.558530   1.000000
   61       -5.509871   1.000000
   62       -5.423587   1.000000
   63       -5.331613   1.000000
   64       -5.210526   1.000000
   65       -5.133869   1.000000
   66       -5.076146   1.000000
   67       -5.020549   1.000000
   68       -4.937518   1.000000
   69       -4.828747   1.000000
   70       -4.736740   1.000000
   71       -4.604414   1.000000
   72       -4.556340   1.000000
   73       -4.448541   1.000000
   74       -4.197340   1.000000
   75       -4.136647   1.000000
   76       -4.003283   1.000000
   77       -3.860670   0.999991
   78       -3.749968   0.999773
   79       -3.437314   0.902397
   80       -3.365221   0.783935
   81       -3.241867   0.465459
   82       -2.907404   0.007109
   83       -2.843429   0.001842
   84       -2.663181   0.000015
   85       -2.557469   0.000000
   86       -2.432429   0.000000
   87       -2.290865   0.000000
   88       -2.195799   0.000000
   89       -2.119661   0.000000
   90       -1.957550   0.000000
   91       -1.784550   0.000000
   92       -1.682019   0.000000
   93       -1.519689   0.000000
   94       -1.329025   0.000000
   95       -1.135256   0.000000
   96       -1.072762   0.000000
   97       -1.007605   0.000000
   98       -0.922414   0.000000
   99       -0.830600   0.000000
  100       -0.760242   0.000000
  101       -0.619576   0.000000
  102       -0.559751   0.000000
  103       -0.530091   0.000000
  104       -0.411478   0.000000
  105       -0.255314   0.000000
  106       -0.181294   0.000000
  107       -0.096250   0.000000
  108        0.021694   0.000000
  109        0.058490   0.000000
  110        0.232309   0.000000
  111        0.260270   0.000000
  112        0.410756   0.000000
  113        0.634590   0.000000
  114        0.808993   0.000000
  115        0.974832   0.000000
  116        1.089676   0.000000
  117        1.274379   0.000000
  118        1.678875   0.000000
  119        1.867375   0.000000
  120        2.176516   0.000000
 
  0.1250000E+00  0.1250000E+00  0.0000000E+00  0.3125000E-01
    1      -17.725865   1.000000
    2      -16.892408   1.000000
    3      -16.780138   1.000000
    4      -16.657640   1.000000
    5      -16.522267   1.000000
    6      -16.430095   1.000000
    7      -16.294051   1.000000
    8      -16.262895   1.000000
    9      -16.183991   1.000000
   10      -16.094597   1.000000
   11      -15.975555   1.000000
   12      -15.890066   1.000000
   13      -15.821078   1.000000
   14      -15.710889   1.000000
   15      -15.618840   1.000000
   16      -15.544393   1.000000
   17      -15.382402   1.000000
   18      -15.311441   1.000000
   19       -9.356731   1.000000
   20       -9.263500   1.000000
   21       -9.142176   1.000000
   22       -9.043352   1.000000
   23       -8.832606   1.000000
   24       -8.726741   1.000000
   25       -8.608698   1.000000
   26       -8.549751   1.000000
   27       -8.489580   1.000000
   28       -8.400674   1.000000
   29       -8.351876   1.000000
   30       -8.256298   1.000000
   31       -8.139751   1.000000
   32       -8.048055   1.000000
   33       -7.936183   1.000000
   34       -7.842907   1.000000
   35       -7.722366   1.000000
   36       -7.677877   1.000000
   37       -7.650264   1.000000
   38       -7.538169   1.000000
   39       -7.488399   1.000000
   40       -7.387581   1.000000
   41       -7.263262   1.000000
   42       -7.224922   1.000000
   43       -7.091598   1.000000
   44       -7.017179   1.000000
   45       -6.931839   1.000000
   46       -6.839623   1.000000
   47       -6.722619   1.000000
   48       -6.591407   1.000000
   49       -6.557001   1.000000
   50       -6.483968   1.000000
   51       -6.442869   1.000000
   52       -6.401216   1.000000
   53       -6.354000   1.000000
   54       -6.311548   1.000000
   55       -6.232297   1.000000
   56       -6.131494   1.000000
   57       -5.977413   1.000000
   58       -5.870088   1.000000
   59       -5.728816   1.000000
   60       -5.644756   1.000000
   61       -5.573880   1.000000
   62       -5.502957   1.000000
   63       -5.379633   1.000000
   64       -5.326973   1.000000
   65       -5.185349   1.000000
   66       -5.088878   1.000000
   67       -5.020804   1.000000
   68       -4.908061   1.000000
   69       -4.843777   1.000000
   70       -4.699955   1.000000
   71       -4.558696   1.000000
   72       -4.473557   1.000000
   73       -4.400560   1.000000
   74       -4.185493   1.000000
   75       -4.137569   1.000000
   76       -4.067918   1.000000
   77       -3.925244   0.999999
   78       -3.827358   0.999975
   79       -3.441446   0.907339
   80       -3.291721   0.604814
   81       -3.126261   0.182958
   82       -2.849734   0.002122
   83       -2.805214   0.000751
   84       -2.670715   0.000019
   85       -2.536447   0.000000
   86       -2.432974   0.000000
   87       -2.288260   0.000000
   88       -2.217758   0.000000
   89       -2.100317   0.000000
   90       -1.929616   0.000000
   91       -1.806167   0.000000
   92       -1.666262   0.000000
   93       -1.503888   0.000000
   94       -1.320375   0.000000
   95       -1.147251   0.000000
   96       -1.092821   0.000000
   97       -1.026480   0.000000
   98       -0.949618   0.000000
   99       -0.832894   0.000000
  100       -0.821555   0.000000
  101       -0.710059   0.000000
  102       -0.673962   0.000000
  103       -0.600196   0.000000
  104       -0.447296   0.000000
  105       -0.391266   0.000000
  106       -0.219295   0.000000
  107       -0.133427   0.000000
  108       -0.053101   0.000000
  109        0.063835   0.000000
  110        0.162504   0.000000
  111        0.396269   0.000000
  112        0.488003   0.000000
  113        0.672802   0.000000
  114        0.799061   0.000000
  115        1.010751   0.000000
  116        1.181055   0.000000
  117        1.238990   0.000000
  118        1.761431   0.000000
  119        1.941655   0.000000
  120        2.245845   0.000000
 
  0.2500000E+00  0.1250000E+00  0.0000000E+00  0.3125000E-01
    1      -17.629872   1.000000
    2      -17.084367   1.000000
    3      -16.876261   1.000000
    4      -16.648751   1.000000
    5      -16.520742   1.000000
    6      -16.347371   1.000000
    7      -16.313919   1.000000
    8      -16.234973   1.000000
    9      -16.148363   1.000000
   10      -16.091226   1.000000
   11      -15.953009   1.000000
   12      -15.840421   1.000000
   13      -15.780738   1.000000
   14      -15.693517   1.000000
   15      -15.630482   1.000000
   16      -15.553794   1.000000
   17      -15.401237   1.000000
   18      -15.321136   1.000000
   19       -9.611589   1.000000
   20       -9.366474   1.000000
   21       -9.265762   1.000000
   22       -8.996444   1.000000
   23       -8.861855   1.000000
   24       -8.680723   1.000000
   25       -8.541907   1.000000
   26       -8.489623   1.000000
   27       -8.438997   1.000000
   28       -8.392358   1.000000
   29       -8.318689   1.000000
   30       -8.224878   1.000000
   31       -8.148016   1.000000
   32       -8.085350   1.000000
   33       -7.940144   1.000000
   34       -7.872646   1.000000
   35       -7.761953   1.000000
   36       -7.644361   1.000000
   37       -7.535423   1.000000
   38       -7.413112   1.000000
   39       -7.369789   1.000000
   40       -7.346009   1.000000
   41       -7.244128   1.000000
   42       -7.183778   1.000000
   43       -7.051387   1.000000
   44       -6.979071   1.000000
   45       -6.864770   1.000000
   46       -6.814008   1.000000
   47       -6.706146   1.000000