       N       E                     dE             d eps       ncg     rms          rms(c)
DAV:   1     0.112340506480E+04    0.11234E+04   -0.35867E+04  8160   0.577E+02
DAV:   2    -0.109943191626E+01   -0.11245E+04   -0.10822E+04 11160   0.173E+02
DAV:   3    -0.199530094229E+03   -0.19843E+03   -0.18998E+03 10880   0.820E+01
DAV:   4    -0.209018198760E+03   -0.94881E+01   -0.91843E+01 12120   0.264E+01
DAV:   5    -0.209355225674E+03   -0.33703E+00   -0.33613E+00 11520   0.370E+00    0.277E+01
DAV:   6    -0.240939374671E+03   -0.31584E+02   -0.11703E+02 12600   0.599E+01    0.606E+01
DAV:   7    -0.196274961444E+03    0.44664E+02   -0.17765E+02 13200   0.151E+02    0.199E+01
DAV:   8    -0.189531213870E+03    0.67437E+01   -0.18753E+01 12000   0.128E+01    0.126E+01
DAV:   9    -0.188082893795E+03    0.14483E+01   -0.31511E+00 12640   0.622E+00    0.892E+00
DAV:  10    -0.186929179148E+03    0.11537E+01   -0.16056E+00 13320   0.743E+00    0.205E+00
DAV:  11    -0.187077598141E+03   -0.14842E+00   -0.66017E-01 13280   0.397E+00    0.461E+00
DAV:  12    -0.186924272874E+03    0.15333E+00   -0.64707E-01 12680   0.440E+00    0.282E+00
DAV:  13    -0.186855149536E+03    0.69123E-01   -0.18150E-01 13080   0.226E+00    0.146E+00
DAV:  14    -0.186842981322E+03    0.12168E-01   -0.90444E-02 12680   0.168E+00    0.133E+00
DAV:  15    -0.186829676919E+03    0.13304E-01   -0.35033E-02 13120   0.890E-01    0.478E-01
DAV:  16    -0.186827448508E+03    0.22284E-02   -0.74027E-03 12320   0.282E-01    0.277E-01
DAV:  17    -0.186826129815E+03    0.13187E-02   -0.48033E-03 12600   0.290E-01    0.208E-01
DAV:  18    -0.186825630084E+03    0.49973E-03   -0.17053E-03 12680   0.200E-01    0.709E-02
DAV:  19    -0.186826278569E+03   -0.64848E-03   -0.89228E-04 10480   0.983E-02    0.762E-02
DAV:  20    -0.186826743137E+03   -0.46457E-03   -0.28129E-04  7520   0.460E-02    0.681E-02
DAV:  21    -0.186827808985E+03   -0.10658E-02   -0.27469E-04  7400   0.540E-02    0.194E-02
DAV:  22    -0.186828899564E+03   -0.10906E-02   -0.11003E-04  8120   0.244E-02    0.206E-02
DAV:  23    -0.186829367686E+03   -0.46812E-03   -0.31534E-05  6120   0.174E-02    0.107E-02
DAV:  24    -0.186830013866E+03   -0.64618E-03   -0.39048E-05  7160   0.158E-02    0.653E-03
DAV:  25    -0.186830363664E+03   -0.34980E-03   -0.90936E-06  6400   0.101E-02    0.288E-03
DAV:  26    -0.186830607627E+03   -0.24396E-03   -0.75026E-06  6800   0.629E-03    0.184E-03
DAV:  27    -0.186830677039E+03   -0.69412E-04   -0.24877E-06  7560   0.415E-03
   1 F= -.18683068E+03 E0= -.18665776E+03  d E =-.186831E+03
       N       E                     dE             d eps       ncg     rms          rms(c)
DAV:   1    -0.187522420884E+03   -0.69181E+00   -0.27747E+02  8160   0.354E+01    0.466E+00
DAV:   2    -0.189507584526E+03   -0.19852E+01   -0.20315E+01 12240   0.155E+01    0.938E+00
DAV:   3    -0.189349604733E+03    0.15798E+00   -0.40735E+00 12560   0.122E+01    0.651E+00
DAV:   4    -0.188772699147E+03    0.57691E+00   -0.67234E-01 12800   0.449E+00    0.171E+00
DAV:   5    -0.188730585217E+03    0.42114E-01   -0.28294E-01 10400   0.158E+00    0.174E+00
DAV:   6    -0.188779298134E+03   -0.48713E-01   -0.33336E-01 13280   0.300E+00    0.318E+00
DAV:   7    -0.188712178929E+03    0.67119E-01   -0.19541E-01 12800   0.254E+00    0.137E+00
DAV:   8    -0.188688910024E+03    0.23269E-01   -0.43478E-02 11440   0.915E-01    0.460E-01
DAV:   9    -0.188689926821E+03   -0.10168E-02   -0.12171E-02 12560   0.567E-01    0.558E-01
DAV:  10    -0.188687831138E+03    0.20957E-02   -0.62098E-03 13040   0.405E-01    0.177E-01
DAV:  11    -0.188687347274E+03    0.48386E-03   -0.15722E-03 11560   0.123E-01    0.795E-02
DAV:  12    -0.188687432105E+03   -0.84831E-04   -0.52982E-04 10080   0.630E-02
   2 F= -.18868743E+03 E0= -.18854508E+03  d E =-.185676E+01
       N       E                     dE             d eps       ncg     rms          rms(c)
DAV:   1    -0.190627799787E+03   -0.19405E+01   -0.31772E+01  9160   0.143E+01    0.444E+00
DAV:   2    -0.190546536675E+03    0.81263E-01   -0.27599E+00 11640   0.910E+00    0.714E+00
DAV:   3    -0.190123532277E+03    0.42300E+00   -0.15130E+00 12440   0.840E+00    0.432E+00
DAV:   4    -0.189895684909E+03    0.22785E+00   -0.72128E-01 12680   0.437E+00    0.242E+00
DAV:   5    -0.189812309807E+03    0.83375E-01   -0.29913E-01 11880   0.203E+00    0.109E+00
DAV:   6    -0.189800287613E+03    0.12022E-01   -0.62037E-02 11920   0.133E+00    0.918E-01
DAV:   7    -0.189793994421E+03    0.62932E-02   -0.17648E-02 11640   0.732E-01    0.246E-01
DAV:   8    -0.189793666430E+03    0.32799E-03   -0.22349E-03 11560   0.160E-01    0.132E-01
DAV:   9    -0.189794179933E+03   -0.51350E-03   -0.11161E-03 10720   0.126E-01    0.169E-01
DAV:  10    -0.189793999590E+03    0.18034E-03   -0.10880E-03 10720   0.183E-01    0.157E-01
DAV:  11    -0.189793820373E+03    0.17922E-03   -0.42529E-04  8880   0.127E-01    0.331E-02
DAV:  12    -0.189793823768E+03   -0.33954E-05   -0.44057E-05  5960   0.291E-02
   3 F= -.18979382E+03 E0= -.18967216E+03  d E =-.110639E+01
       N       E                     dE             d eps       ncg     rms          rms(c)
DAV:   1    -0.191407862051E+03   -0.16140E+01   -0.83542E+01  8160   0.207E+01    0.459E+00
DAV:   2    -0.191159243530E+03    0.24862E+00   -0.53749E+00 12880   0.677E+00    0.378E+00
DAV:   3    -0.191375265468E+03   -0.21602E+00   -0.14883E+00 12240   0.849E+00    0.670E+00
DAV:   4    -0.190984644225E+03    0.39062E+00   -0.13505E+00 12240   0.812E+00    0.295E+00
DAV:   5    -0.190858672001E+03    0.12597E+00   -0.32008E-01 12200   0.255E+00    0.121E+00
DAV:   6    -0.190859986298E+03   -0.13143E-02   -0.12947E-01 12160   0.214E+00    0.169E+00
DAV:   7    -0.190838543129E+03    0.21443E-01   -0.67545E-02 11720   0.162E+00    0.543E-01
DAV:   8    -0.190834709663E+03    0.38335E-02   -0.79108E-03 11600   0.461E-01    0.268E-01
DAV:   9    -0.190834668894E+03    0.40769E-04   -0.27991E-03 12760   0.330E-01    0.244E-01
DAV:  10    -0.190834463661E+03    0.20523E-03   -0.19720E-03 11080   0.219E-01    0.608E-02
DAV:  11    -0.190834461780E+03    0.18814E-05   -0.20544E-04  7160   0.579E-02
   4 F= -.19083446E+03 E0= -.19072661E+03  d E =-.104064E+01
       N       E                     dE             d eps       ncg     rms          rms(c)
DAV:   1    -0.192264677484E+03   -0.14302E+01   -0.19444E+02  8160   0.309E+01    0.584E+00
DAV:   2    -0.191972819137E+03    0.29186E+00   -0.10052E+01  9960   0.767E+00    0.325E+00
DAV:   3    -0.191847961665E+03    0.12486E+00   -0.15539E+00 10880   0.498E+00    0.361E+00
DAV:   4    -0.191864021687E+03   -0.16060E-01   -0.96237E-01 12160   0.704E+00    0.499E+00
DAV:   5    -0.191612553922E+03    0.25147E+00   -0.73273E-01 12320   0.571E+00    0.183E+00
DAV:   6    -0.191610986733E+03    0.15672E-02   -0.23240E-01 12240   0.296E+00    0.193E+00
DAV:   7    -0.191575508128E+03    0.35479E-01   -0.93998E-02 12280   0.204E+00    0.570E-01
DAV:   8    -0.191571707205E+03    0.38009E-02   -0.17171E-02 11560   0.706E-01    0.473E-01
DAV:   9    -0.191570227146E+03    0.14801E-02   -0.68626E-03 11920   0.504E-01    0.240E-01
DAV:  10    -0.191570066380E+03    0.16077E-03   -0.24616E-03 11600   0.227E-01    0.888E-02
DAV:  11    -0.191570019936E+03    0.46444E-04   -0.40984E-04  9680   0.832E-02
   5 F= -.19157002E+03 E0= -.19146203E+03  d E =-.735558E+00
       N       E                     dE             d eps       ncg     rms          rms(c)
DAV:   1    -0.191645410243E+03   -0.75344E-01   -0.54924E+00  8160   0.500E+00    0.769E-01
DAV:   2    -0.191722877978E+03   -0.77468E-01   -0.36108E-01 12480   0.328E+00    0.261E+00
DAV:   3    -0.191656509046E+03    0.66369E-01   -0.14300E-01 12480   0.253E+00    0.532E-01
DAV:   4    -0.191661200936E+03   -0.46919E-02   -0.29891E-02 10680   0.111E+00    0.910E-01
DAV:   5    -0.191652189609E+03    0.90113E-02   -0.16068E-02 10840   0.862E-01    0.229E-01
DAV:   6    -0.191651767654E+03    0.42195E-03   -0.45748E-03 11320   0.250E-01    0.126E-01
DAV:   7    -0.191651555725E+03    0.21193E-03   -0.13579E-03 10960   0.172E-01    0.131E-01
DAV:   8    -0.191651453227E+03    0.10250E-03   -0.60692E-04  8600   0.145E-01    0.712E-02
DAV:   9    -0.191651419312E+03    0.33914E-04   -0.11793E-04  6000   0.606E-02
   6 F= -.19165142E+03 E0= -.19154196E+03  d E =-.813994E-01
       N       E                     dE             d eps       ncg     rms          rms(c)
DAV:   1    -0.191728927308E+03   -0.77474E-01   -0.65127E+00  8160   0.538E+00    0.641E-01
DAV:   2    -0.191785063219E+03   -0.56136E-01   -0.24340E-01 13160   0.232E+00    0.226E+00
DAV:   3    -0.191737144869E+03    0.47918E-01   -0.11534E-01 12480   0.221E+00    0.533E-01
DAV:   4    -0.191738711968E+03   -0.15671E-02   -0.19265E-02 10480   0.868E-01    0.654E-01
DAV:   5    -0.191733899159E+03    0.48128E-02   -0.85851E-03 11080   0.668E-01    0.173E-01
DAV:   6    -0.191733678427E+03    0.22073E-03   -0.23743E-03 10520   0.190E-01    0.110E-01
DAV:   7    -0.191733565704E+03    0.11272E-03   -0.11681E-03 10960   0.158E-01    0.128E-01
DAV:   8    -0.191733473742E+03    0.91962E-04   -0.66313E-04  8480   0.150E-01
   7 F= -.19173347E+03 E0= -.19162349E+03  d E =-.820544E-01
       N       E                     dE             d eps       ncg     rms          rms(c)
DAV:   1    -0.191813407009E+03   -0.79841E-01   -0.69361E+00  8160   0.562E+00    0.768E-01
DAV:   2    -0.191906071734E+03   -0.92665E-01   -0.36698E-01 12160   0.331E+00    0.306E+00
DAV:   3    -0.191822502442E+03    0.83569E-01   -0.18409E-01 12440   0.276E+00    0.508E-01
DAV:   4    -0.191825005172E+03   -0.25027E-02   -0.22198E-02 10240   0.100E+00    0.730E-01
DAV:   5    -0.191818827301E+03    0.61779E-02   -0.11785E-02 11360   0.797E-01    0.230E-01
DAV:   6    -0.191818934982E+03   -0.10768E-03   -0.52162E-03 11400   0.344E-01    0.300E-01
DAV:   7    -0.191819088757E+03   -0.15377E-03   -0.59622E-03 11400   0.451E-01    0.346E-01
DAV:   8    -0.191817925549E+03    0.11632E-02   -0.22154E-03 10120   0.259E-01    0.300E-02
DAV:   9    -0.191817951623E+03   -0.26074E-04   -0.11783E-04  6280   0.338E-02
   8 F= -.19181795E+03 E0= -.19170894E+03  d E =-.844779E-01
       N       E                     dE             d eps       ncg     rms          rms(c)
DAV:   1    -0.191921557441E+03   -0.10363E+00   -0.26197E+01  8160   0.109E+01    0.130E+00
DAV:   2    -0.192151989248E+03   -0.23043E+00   -0.11070E+00 11200   0.511E+00    0.466E+00
DAV:   3    -0.191966862606E+03    0.18513E+00   -0.47538E-01 12360   0.446E+00    0.883E-01
DAV:   4    -0.191957845103E+03    0.90175E-02   -0.33143E-02 12240   0.944E-01    0.617E-01
DAV:   5    -0.191956931992E+03    0.91311E-03   -0.22439E-02 11480   0.114E+00    0.699E-01
DAV:   6    -0.191954241745E+03    0.26902E-02   -0.21607E-02 12600   0.942E-01    0.544E-01
DAV:   7    -0.191955108666E+03   -0.86692E-03   -0.18610E-02 11800   0.818E-01    0.664E-01
DAV:   8    -0.191950900463E+03    0.42082E-02   -0.76511E-03 11840   0.523E-01    0.591E-02
DAV:   9    -0.191950930658E+03   -0.30195E-04   -0.48605E-04 10160   0.678E-02
   9 F= -.19195093E+03 E0= -.19184715E+03  d E =-.132979E+00
       N       E                     dE             d eps       ncg     rms          rms(c)
DAV:   1    -0.191964337703E+03   -0.13437E-01   -0.53844E-01  8160   0.167E+00    0.330E-01
DAV:   2    -0.191964056865E+03    0.28084E-03   -0.27316E-02 10520   0.654E-01    0.400E-01
DAV:   3    -0.191963755283E+03    0.30158E-03   -0.93385E-03 11520   0.711E-01    0.384E-01
DAV:   4    -0.191962375675E+03    0.13796E-02   -0.55104E-03 11560   0.480E-01    0.283E-01
DAV:   5    -0.191962365458E+03    0.10218E-04   -0.38358E-03 11360   0.433E-01    0.294E-01
DAV:   6    -0.191961413920E+03    0.95154E-03   -0.19741E-03 11160   0.295E-01    0.744E-02
DAV:   7    -0.191961518546E+03   -0.10463E-03   -0.62093E-04  8720   0.147E-01    0.131E-01
DAV:   8    -0.191961364039E+03    0.15451E-03   -0.28569E-04  7400   0.106E-01    0.189E-02
DAV:   9    -0.191961368628E+03   -0.45891E-05   -0.23001E-05  6600   0.198E-02
  10 F= -.19196137E+03 E0= -.19185766E+03  d E =-.104380E-01
       N       E                     dE             d eps       ncg     rms          rms(c)
DAV:   1    -0.191990061921E+03   -0.28698E-01   -0.18441E+00  8160   0.287E+00    0.323E-01
DAV:   2    -0.191998831515E+03   -0.87696E-02   -0.65229E-02 10680   0.997E-01    0.766E-01
DAV:   3    -0.191994001472E+03    0.48300E-02   -0.17432E-02 12600   0.918E-01    0.344E-01
DAV:   4    -0.191992989898E+03    0.10116E-02   -0.30610E-03 11400   0.322E-01    0.169E-01
DAV:   5    -0.191992916687E+03    0.73211E-04   -0.17221E-03 11400   0.307E-01    0.180E-01
DAV:   6    -0.191992695163E+03    0.22152E-03   -0.11630E-03 10720   0.233E-01    0.114E-01
DAV:   7    -0.191992862970E+03   -0.16781E-03   -0.11582E-03 10000   0.207E-01    0.193E-01
DAV:   8    -0.191992526731E+03    0.33624E-03   -0.59144E-04  8400   0.150E-01    0.191E-02
DAV:   9    -0.191992541000E+03   -0.14268E-04   -0.37234E-05  5840   0.222E-02
  11 F= -.19199254E+03 E0= -.19189095E+03  d E =-.311724E-01
       N       E                     dE             d eps       ncg     rms          rms(c)
DAV:   1    -0.192013018999E+03   -0.20492E-01   -0.78182E-01  8160   0.190E+00    0.230E-01
DAV:   2    -0.192015486616E+03   -0.24676E-02   -0.27410E-02 11600   0.573E-01    0.401E-01
DAV:   3    -0.192014680057E+03    0.80656E-03   -0.65333E-03 12680   0.559E-01    0.289E-01
DAV:   4    -0.192013819904E+03    0.86015E-03   -0.18257E-03 11200   0.262E-01    0.105E-01
DAV:   5    -0.192014034528E+03   -0.21462E-03   -0.12037E-03 10440   0.215E-01    0.211E-01
DAV:   6    -0.192013735289E+03    0.29924E-03   -0.12008E-03  9240   0.210E-01    0.947E-02
DAV:   7    -0.192013705840E+03    0.29449E-04   -0.32004E-04  8600   0.126E-01
  12 F= -.19201371E+03 E0= -.19191368E+03  d E =-.211648E-01
       N       E                     dE             d eps       ncg     rms          rms(c)
DAV:   1    -0.192023766541E+03   -0.10031E-01   -0.17949E-01  8160   0.916E-01    0.105E-01
DAV:   2    -0.192024128771E+03   -0.36223E-03   -0.55471E-03 11960   0.210E-01    0.117E-01
DAV:   3    -0.192024291014E+03   -0.16224E-03   -0.11659E-03 11120   0.243E-01    0.182E-01
DAV:   4    -0.192023975916E+03    0.31510E-03   -0.56520E-04  8640   0.166E-01    0.524E-02
DAV:   5    -0.192024010085E+03   -0.34169E-04   -0.21062E-04  6920   0.940E-02
  13 F= -.19202401E+03 E0= -.19192472E+03  d E =-.103042E-01
       N       E                     dE             d eps       ncg     rms          rms(c)
DAV:   1    -0.192013901353E+03    0.10075E-01   -0.29298E-01  8160   0.120E+00    0.200E-01
DAV:   2    -0.192017043997E+03   -0.31426E-02   -0.15543E-02 12680   0.597E-01    0.643E-01
DAV:   3    -0.192013830368E+03    0.32136E-02   -0.93150E-03 11040   0.585E-01    0.199E-01
DAV:   4    -0.192013483834E+03    0.34653E-03   -0.13367E-03  9680   0.171E-01    0.913E-02
DAV:   5    -0.192013549592E+03   -0.65758E-04   -0.83670E-04 10080   0.181E-01
  14 F= -.19201355E+03 E0= -.19191281E+03  d E =0.104605E-01
       N       E                     dE             d eps       ncg     rms          rms(c)
DAV:   1    -0.192060614164E+03   -0.47130E-01   -0.35119E+00  8160   0.409E+00    0.530E-01
DAV:   2    -0.192070436346E+03   -0.98222E-02   -0.11596E-01 11880   0.123E+00    0.976E-01
DAV:   3    -0.192066052763E+03    0.43836E-02   -0.37084E-02 11520   0.126E+00    0.682E-01
DAV:   4    -0.192063080801E+03    0.29720E-02   -0.14855E-02 12240   0.740E-01    0.503E-01
DAV:   5    -0.192061880013E+03    0.12008E-02   -0.10024E-02 10040   0.662E-01    0.424E-01
DAV:   6    -0.192060411340E+03    0.14687E-02   -0.52736E-03 11400   0.439E-01    0.186E-01
DAV:   7    -0.192060434045E+03   -0.22704E-04   -0.20329E-03 10280   0.348E-01    0.182E-01
DAV:   8    -0.192059979326E+03    0.45472E-03   -0.59290E-04  9840   0.195E-01    0.297E-02
DAV:   9    -0.192059968822E+03    0.10504E-04   -0.66946E-05  6240   0.327E-02
  15 F= -.19205997E+03 E0= -.19196329E+03  d E =-.464192E-01
       N       E                     dE             d eps       ncg     rms          rms(c)
DAV:   1    -0.192075495395E+03   -0.15516E-01   -0.36676E-01  8160   0.130E+00    0.146E-01
DAV:   2    -0.192076140024E+03   -0.64463E-03   -0.11085E-02 11400   0.284E-01    0.141E-01
DAV:   3    -0.192076744099E+03   -0.60407E-03   -0.26700E-03 11480   0.321E-01    0.311E-01
DAV:   4    -0.192075900669E+03    0.84343E-03   -0.17261E-03  9760   0.256E-01    0.705E-02
DAV:   5    -0.192075906321E+03   -0.56518E-05   -0.28328E-04  7560   0.948E-02
  16 F= -.19207591E+03 E0= -.19198064E+03  d E =-.159375E-01
       N       E                     dE             d eps       ncg     rms          rms(c)
DAV:   1    -0.191990926813E+03    0.84974E-01   -0.99253E+00  8160   0.680E+00    0.761E-01
DAV:   2    -0.192010236612E+03   -0.19310E-01   -0.29985E-01 12240   0.161E+00    0.885E-01
DAV:   3    -0.192020909042E+03   -0.10672E-01   -0.75441E-02 12320   0.171E+00    0.153E+00
DAV:   4    -0.192004155795E+03    0.16753E-01   -0.48976E-02 12120   0.132E+00    0.603E-01
DAV:   5    -0.192001601530E+03    0.25543E-02   -0.13834E-02 10360   0.870E-01    0.421E-01
DAV:   6    -0.192000165319E+03    0.14362E-02   -0.67972E-03 13400   0.546E-01    0.207E-01
DAV:   7    -0.191999316193E+03    0.84913E-03   -0.18173E-03 10840   0.195E-01    0.534E-02
DAV:   8    -0.191999349283E+03   -0.33090E-04   -0.31483E-04  9120   0.101E-01
  17 F= -.19199935E+03 E0= -.19189834E+03  d E =0.765570E-01
       N       E                     dE             d eps       ncg     rms          rms(c)
DAV:   1    -0.191986030272E+03    0.13286E-01   -0.76445E-01  8160   0.189E+00    0.212E-01
DAV:   2    -0.191986878791E+03   -0.84852E-03   -0.18332E-02 12480   0.372E-01    0.187E-01
DAV:   3    -0.191987975584E+03   -0.10968E-02   -0.49129E-03 12360   0.427E-01    0.418E-01
DAV:   4    -0.191986606024E+03    0.13696E-02   -0.38158E-03 10240   0.371E-01    0.159E-01
DAV:   5    -0.191986574321E+03    0.31703E-04   -0.12110E-03 10000   0.223E-01    0.156E-01
DAV:   6    -0.191986400502E+03    0.17382E-03   -0.74520E-04  9400   0.189E-01    0.879E-02
DAV:   7    -0.191986419434E+03   -0.18932E-04   -0.38662E-04  8560   0.143E-01
  18 F= -.19198642E+03 E0= -.19188330E+03  d E =0.129298E-01
       N       E                     dE             d eps       ncg     rms          rms(c)
DAV:   1    -0.191979421898E+03    0.69786E-02   -0.23437E+00  8160   0.327E+00    0.343E-01
DAV:   2    -0.191983699101E+03   -0.42772E-02   -0.68958E-02 12240   0.702E-01    0.249E-01
DAV:   3    -0.191985208420E+03   -0.15093E-02   -0.98198E-03 12760   0.517E-01    0.541E-01
DAV:   4    -0.191983297056E+03    0.19114E-02   -0.83337E-03 11080   0.537E-01    0.277E-01
DAV:   5    -0.191982526560E+03    0.77050E-03   -0.23366E-03 10480   0.232E-01    0.100E-01
DAV:   6    -0.191982836323E+03   -0.30976E-03   -0.12728E-03 10640   0.238E-01    0.190E-01
DAV:   7    -0.191982421606E+03    0.41472E-03   -0.61949E-04  9120   0.195E-01    0.395E-02
DAV:   8    -0.191982432995E+03   -0.11389E-04   -0.87109E-05  6120   0.674E-02
  19 F= -.19198243E+03 E0= -.19187791E+03  d E =0.398644E-02
       N       E                     dE             d eps       ncg     rms          rms(c)
DAV:   1    -0.191999981656E+03   -0.17560E-01   -0.13197E+00  8160   0.251E+00    0.364E-01
DAV:   2    -0.192008197115E+03   -0.82155E-02   -0.55132E-02 12920   0.108E+00    0.929E-01
DAV:   3    -0.192000856827E+03    0.73403E-02   -0.19650E-02 12000   0.981E-01    0.306E-01
DAV:   4    -0.191999956085E+03    0.90074E-03   -0.33712E-03 11480   0.350E-01    0.203E-01
DAV:   5    -0.192000056282E+03   -0.10020E-03   -0.29062E-03 10920   0.389E-01    0.272E-01
DAV:   6    -0.191999663167E+03    0.39312E-03   -0.27813E-03 11160   0.315E-01    0.210E-01
DAV:   7    -0.191999433444E+03    0.22972E-03   -0.13788E-03  9480   0.240E-01    0.117E-01
DAV:   8    -0.191999274001E+03    0.15944E-03   -0.27102E-04  7480   0.106E-01    0.177E-02
DAV:   9    -0.191999275010E+03   -0.10091E-05   -0.40033E-05  6640   0.228E-02
  20 F= -.19199928E+03 E0= -.19189607E+03  d E =-.168420E-01
       N       E                     dE             d eps       ncg     rms          rms(c)
DAV:   1    -0.192007531835E+03   -0.82578E-02   -0.31874E-01  8160   0.119E+00    0.139E-01
DAV:   2    -0.192008937947E+03   -0.14061E-02   -0.12372E-02 10320   0.426E-01    0.273E-01
DAV:   3    -0.192008389363E+03    0.54858E-03   -0.27810E-03 12480   0.381E-01    0.171E-01
DAV:   4    -0.192008308782E+03    0.80581E-04   -0.10239E-03  9440   0.200E-01    0.152E-01
DAV:   5    -0.192008126215E+03    0.18257E-03   -0.64891E-04  8520   0.169E-01    0.848E-02
DAV:   6    -0.192008176286E+03   -0.50072E-04   -0.39376E-04  8560   0.124E-01
  21 F= -.19200818E+03 E0= -.19190602E+03  d E =-.890128E-02
       N       E                     dE             d eps       ncg     rms          rms(c)
DAV:   1    -0.192021407294E+03   -0.13281E-01   -0.65481E-01  8160   0.174E+00    0.196E-01
DAV:   2    -0.192022779870E+03   -0.13726E-02   -0.18010E-02 12120   0.416E-01    0.288E-01
DAV:   3    -0.192022862035E+03   -0.82164E-04   -0.50047E-03 12600   0.462E-01    0.318E-01
DAV:   4    -0.192022266138E+03    0.59590E-03   -0.24263E-03 10120   0.296E-01    0.197E-01
DAV:   5    -0.192022013277E+03    0.25286E-03   -0.12088E-03  9400   0.247E-01    0.129E-01
DAV:   6    -0.192022004755E+03    0.85226E-05   -0.72084E-04  9280   0.166E-01
  22 F= -.19202200E+03 E0= -.19192107E+03  d E =-.138285E-01
       N       E                     dE             d eps       ncg     rms          rms(c)
DAV:   1    -0.192004602131E+03    0.17411E-01   -0.10615E+00  8160   0.222E+00    0.259E-01
DAV:   2    -0.192007663333E+03   -0.30612E-02   -0.30408E-02 13040   0.665E-01    0.469E-01
DAV:   3    -0.192006115151E+03    0.15482E-02   -0.85436E-03 11720   0.614E-01    0.326E-01
DAV:   4    -0.192006147767E+03   -0.32616E-04   -0.48265E-03 11440   0.421E-01    0.342E-01
DAV:   5    -0.192005232816E+03    0.91495E-03   -0.29895E-03 10160   0.360E-01    0.162E-01
DAV:   6    -0.192005218178E+03    0.14638E-04   -0.13592E-03 10080   0.232E-01    0.173E-01
DAV:   7    -0.192005014087E+03    0.20409E-03   -0.81017E-04  9360   0.209E-01    0.792E-02
DAV:   8    -0.192004928810E+03    0.85276E-04   -0.13689E-04  5960   0.739E-02
  23 F= -.19200493E+03 E0= -.19190231E+03  d E =0.170759E-01
       N       E                     dE             d eps       ncg     rms          rms(c)
DAV:   1    -0.192027592077E+03   -0.22578E-01   -0.17460E+00  8160   0.288E+00    0.385E-01
DAV:   2    -0.192033016745E+03   -0.54247E-02   -0.59722E-02 12400   0.955E-01    0.747E-01
DAV:   3    -0.192029721060E+03    0.32957E-02   -0.18846E-02 11680   0.904E-01    0.458E-01
DAV:   4    -0.192029469890E+03    0.25117E-03   -0.92300E-03 12160   0.602E-01    0.485E-01
DAV:   5    -0.192027693798E+03    0.17761E-02   -0.66266E-03 10280   0.531E-01    0.268E-01
DAV:   6    -0.192027603700E+03    0.90098E-04   -0.31542E-03 11160   0.368E-01    0.250E-01
DAV:   7    -0.192027034858E+03    0.56884E-03   -0.15693E-03 10360   0.299E-01    0.806E-02
DAV:   8    -0.192026922646E+03    0.11221E-03   -0.16860E-04  6280   0.781E-02    0.196E-02
DAV:   9    -0.192026918776E+03    0.38696E-05   -0.53515E-05  8040   0.264E-02
  24 F= -.19202692E+03 E0= -.19192550E+03  d E =-.219900E-01
       N       E                     dE             d eps       ncg     rms          rms(c)
DAV:   1    -0.192031238004E+03   -0.43154E-02   -0.59484E-02  8160   0.523E-01    0.687E-02
DAV:   2    -0.192031532719E+03   -0.29471E-03   -0.23335E-03 10640   0.219E-01    0.155E-01
DAV:   3    -0.192031336154E+03    0.19656E-03   -0.69860E-04  8680   0.179E-01    0.816E-02
DAV:   4    -0.192031355963E+03   -0.19809E-04   -0.32199E-04  7440   0.117E-01
  25 F= -.19203136E+03 E0= -.19193016E+03  d E =-.443719E-02
       N       E                     dE             d eps       ncg     rms          rms(c)
DAV:   1    -0.192049737309E+03   -0.18401E-01   -0.92918E-01  8160   0.207E+00    0.243E-01
DAV:   2    -0.192051380387E+03   -0.16431E-02   -0.24377E-02 12280   0.488E-01    0.360E-01
DAV:   3    -0.192051728935E+03   -0.34855E-03   -0.81764E-03 12400   0.554E-01    0.426E-01
DAV:   4    -0.192050280813E+03    0.14481E-02   -0.34099E-03 11000   0.344E-01    0.148E-01
DAV:   5    -0.192050360040E+03   -0.79227E-04   -0.12981E-03 10160   0.279E-01    0.184E-01
DAV:   6    -0.192050117250E+03    0.24279E-03   -0.10176E-03 10280   0.231E-01    0.104E-01
DAV:   7    -0.192050082232E+03    0.35017E-04   -0.47288E-04  8400   0.155E-01
  26 F= -.19205008E+03 E0= -.19195020E+03  d E =-.187263E-01
       N       E                     dE             d eps       ncg     rms          rms(c)
DAV:   1    -0.192043134972E+03    0.69823E-02   -0.11301E-01  8160   0.739E-01    0.881E-02
DAV:   2    -0.192043644359E+03   -0.50939E-03   -0.36407E-03 13520   0.252E-01    0.229E-01
DAV:   3    -0.192043244065E+03    0.40029E-03   -0.13093E-03  9400   0.225E-01    0.922E-02
DAV:   4    -0.192043265723E+03   -0.21657E-04   -0.37634E-04  8200   0.132E-01
  27 F= -.19204327E+03 E0= -.19194339E+03  d E =0.681651E-02
       N       E                     dE             d eps       ncg     rms          rms(c)
DAV:   1    -0.192008013019E+03    0.35231E-01   -0.47583E+00  8160   0.471E+00    0.609E-01
DAV:   2    -0.192026334837E+03   -0.18322E-01   -0.15429E-01 13000   0.174E+00    0.129E+00
DAV:   3    -0.192014160197E+03    0.12175E-01   -0.49806E-02 12120   0.157E+00    0.685E-01
DAV:   4    -0.192014894956E+03   -0.73476E-03   -0.22235E-02 11640   0.942E-01    0.807E-01
DAV:   5    -0.192010021248E+03    0.48737E-02   -0.18114E-02 12280   0.893E-01    0.443E-01
DAV:   6    -0.192009551533E+03    0.46972E-03   -0.77099E-03 10640   0.549E-01    0.364E-01
DAV:   7    -0.192008444419E+03    0.11071E-02   -0.38982E-03 12560   0.437E-01    0.144E-01
DAV:   8    -0.192008080691E+03    0.36373E-03   -0.71472E-04 10240   0.134E-01    0.311E-02
DAV:   9    -0.192008074499E+03    0.61924E-05   -0.81374E-05  7360   0.307E-02
  28 F= -.19200807E+03 E0= -.19190625E+03  d E =0.351912E-01
       N       E                     dE             d eps       ncg     rms          rms(c)
DAV:   1    -0.191997036126E+03    0.11045E-01   -0.12093E+00  8160   0.236E+00    0.260E-01
DAV:   2    -0.191999163589E+03   -0.21275E-02   -0.29686E-02 12320   0.541E-01    0.379E-01
DAV:   3    -0.191999499742E+03   -0.33615E-03   -0.89489E-03 12280   0.593E-01    0.434E-01
DAV:   4    -0.191998200657E+03    0.12991E-02   -0.45841E-03 11240   0.386E-01    0.237E-01
DAV:   5    -0.191997940308E+03    0.26035E-03   -0.21445E-03  9840   0.313E-01    0.186E-01
DAV:   6    -0.191997723381E+03    0.21693E-03   -0.96722E-04 10360   0.187E-01    0.878E-02
DAV:   7    -0.191997687457E+03    0.35924E-04   -0.39373E-04  8640   0.149E-01
  29 F= -.19199769E+03 E0= -.19189491E+03  d E =0.103870E-01
       N       E                     dE             d eps       ncg     rms          rms(c)
DAV:   1    -0.191995492564E+03    0.22308E-02   -0.11185E+00  8160   0.228E+00    0.269E-01
DAV:   2    -0.191996524861E+03   -0.10323E-02   -0.28643E-02 12200   0.441E-01    0.215E-01
DAV:   3    -0.191998216167E+03   -0.16913E-02   -0.76489E-03 12080   0.524E-01    0.523E-01
DAV:   4    -0.191996178068E+03    0.20381E-02   -0.63850E-03 10440   0.475E-01    0.222E-01
DAV:   5    -0.191996022110E+03    0.15596E-03   -0.21510E-03  9760   0.310E-01    0.192E-01
DAV:   6    -0.191995778827E+03    0.24328E-03   -0.12067E-03  9800   0.228E-01    0.115E-01
DAV:   7    -0.191995766844E+03    0.11983E-04   -0.63060E-04  9120   0.183E-01
  30 F= -.19199577E+03 E0= -.19189326E+03  d E =0.192061E-02
       N       E                     dE             d eps       ncg     rms          rms(c)
DAV:   1    -0.191999901717E+03   -0.41229E-02   -0.16855E+00  8160   0.281E+00    0.334E-01
DAV:   2    -0.192002570087E+03   -0.26684E-02   -0.52342E-02 13160   0.712E-01    0.323E-01
DAV:   3    -0.192003751173E+03   -0.11811E-02   -0.94629E-03 12360   0.684E-01    0.495E-01
DAV:   4    -0.192001594407E+03    0.21568E-02   -0.63866E-03 10400   0.528E-01    0.278E-01
DAV:   5    -0.192001534094E+03    0.60313E-04   -0.39580E-03 11000   0.399E-01    0.282E-01
DAV:   6    -0.192001098102E+03    0.43599E-03   -0.26712E-03 10640   0.308E-01    0.184E-01
DAV:   7    -0.192000962171E+03    0.13593E-03   -0.12566E-03  9800   0.250E-01    0.138E-01
DAV:   8    -0.192000751362E+03    0.21081E-03   -0.38864E-04  8040   0.137E-01    0.255E-02
DAV:   9    -0.192000744970E+03    0.63926E-05   -0.40482E-05  6640   0.260E-02
  31 F= -.19200074E+03 E0= -.19189817E+03  d E =-.497813E-02
       N       E                     dE             d eps       ncg     rms          rms(c)
DAV:   1    -0.192004865048E+03   -0.41137E-02   -0.48787E-01  8160   0.149E+00    0.160E-01
DAV:   2    -0.192005800188E+03   -0.93514E-03   -0.14925E-02 12920   0.361E-01    0.162E-01
DAV:   3    -0.192006322181E+03   -0.52199E-03   -0.31019E-03 11280   0.350E-01    0.307E-01
DAV:   4    -0.192005523877E+03    0.79830E-03   -0.19630E-03  9800   0.269E-01    0.113E-01
DAV:   5    -0.192005549686E+03   -0.25809E-04   -0.70839E-04  8640   0.172E-01
  32 F= -.19200555E+03 E0= -.19190280E+03  d E =-.480472E-02
       N       E                     dE             d eps       ncg     rms          rms(c)
DAV:   1    -0.192003411707E+03    0.21122E-02   -0.12084E-01  8160   0.762E-01    0.105E-01
DAV:   2    -0.192005060377E+03   -0.16487E-02   -0.60237E-03 12960   0.417E-01    0.398E-01
DAV:   3    -0.192003566266E+03    0.14941E-02   -0.31750E-03 10600   0.380E-01    0.106E-01
DAV:   4    -0.192003563485E+03    0.27811E-05   -0.51713E-04  8320   0.127E-01
  33 F= -.19200356E+03 E0= -.19190127E+03  d E =0.198620E-02
       N       E                     dE             d eps       ncg     rms          rms(c)
DAV:   1    -0.192006330551E+03   -0.27643E-02   -0.26229E-01  8160   0.109E+00    0.105E-01
DAV:   2    -0.192006940295E+03   -0.60974E-03   -0.77726E-03 12320   0.282E-01    0.130E-01
DAV:   3    -0.192006994799E+03   -0.54504E-04   -0.13408E-03 11120   0.246E-01    0.160E-01
DAV:   4    -0.192006850683E+03    0.14412E-03   -0.82133E-04  8560   0.174E-01    0.117E-01
DAV:   5    -0.192006754528E+03    0.96155E-04   -0.37108E-04  7840   0.128E-01
  34 F= -.19200675E+03 E0= -.19190467E+03  d E =-.319104E-02
       N       E                     dE             d eps       ncg     rms          rms(c)
DAV:   1    -0.192007992385E+03   -0.11417E-02   -0.28270E-02  8160   0.375E-01    0.579E-02
DAV:   2    -0.192008050167E+03   -0.57782E-04   -0.93418E-04 11800   0.107E-01
  35 F= -.19200805E+03 E0= -.19190613E+03  d E =-.129564E-02
       N       E                     dE             d eps       ncg     rms          rms(c)
DAV:   1    -0.192009498381E+03   -0.15060E-02   -0.10415E-01  8160   0.700E-01    0.122E-01
DAV:   2    -0.192012382503E+03   -0.28841E-02   -0.81291E-03 12640   0.550E-01    0.540E-01
DAV:   3    -0.192009537877E+03    0.28446E-02   -0.44349E-03 10400   0.468E-01    0.780E-02
DAV:   4    -0.192009681487E+03   -0.14361E-03   -0.56833E-04  8520   0.145E-01    0.137E-01
DAV:   5    -0.192009523333E+03    0.15815E-03   -0.41019E-04  7840   0.130E-01    0.448E-02
DAV:   6    -0.192009530960E+03   -0.76272E-05   -0.93854E-05  5720   0.613E-02
  36 F= -.19200953E+03 E0= -.19190747E+03  d E =-.148079E-02
       N       E                     dE             d eps       ncg     rms          rms(c)
DAV:   1    -0.192009877210E+03   -0.35388E-03   -0.30574E-02  8160   0.417E-01    0.756E-02
DAV:   2    -0.192009999579E+03   -0.12237E-03   -0.17805E-03 11840   0.175E-01    0.141E-01
DAV:   3    -0.192009865830E+03    0.13375E-03   -0.63912E-04  8840   0.183E-01    0.878E-02
DAV:   4    -0.192009849523E+03    0.16307E-04   -0.34278E-04  7040   0.107E-01
  37 F= -.19200985E+03 E0= -.19190800E+03  d E =-.318563E-03
       N       E                     dE             d eps       ncg     rms          rms(c)
DAV:   1    -0.192014814290E+03   -0.49485E-02   -0.48702E-01  8160   0.148E+00    0.166E-01
DAV:   2    -0.192017511200E+03   -0.26969E-02   -0.13483E-02 13560   0.552E-01    0.492E-01
DAV:   3    -0.192015230724E+03    0.22805E-02   -0.49914E-03 11320   0.499E-01    0.132E-01
DAV:   4    -0.192015349279E+03   -0.11856E-03   -0.95442E-04  8720   0.191E-01    0.177E-01
DAV:   5    -0.192015146993E+03    0.20229E-03   -0.10414E-03  8840   0.205E-01    0.116E-01
DAV:   6    -0.192015103455E+03    0.43538E-04   -0.44911E-04  8040   0.131E-01
  38 F= -.19201510E+03 E0= -.19191333E+03  d E =-.525393E-02
       N       E                     dE             d eps       ncg     rms          rms(c)
DAV:   1    -0.192004447527E+03    0.10699E-01   -0.19400E+00  8160   0.294E+00    0.295E-01
DAV:   2    -0.192008313823E+03   -0.38663E-02   -0.40326E-02 12480   0.698E-01    0.486E-01
DAV:   3    -0.192007104518E+03    0.12093E-02   -0.10107E-02 12360   0.738E-01    0.389E-01
DAV:   4    -0.192005903420E+03    0.12011E-02   -0.35393E-03 11280   0.397E-01    0.180E-01
DAV:   5    -0.192005665655E+03    0.23776E-03   -0.15659E-03 10120   0.274E-01    0.159E-01
DAV:   6    -0.192005490157E+03    0.17550E-03   -0.10590E-03 11560   0.244E-01    0.934E-02
DAV:   7    -0.192005379159E+03    0.11100E-03   -0.26278E-04  7480   0.101E-01    0.220E-02
DAV:   8    -0.192005380678E+03   -0.15188E-05   -0.49306E-05  6720   0.364E-02
  39 F= -.19200538E+03 E0= -.19190319E+03  d E =0.972278E-02
       N       E                     dE             d eps       ncg     rms          rms(c)
DAV:   1    -0.192014558268E+03   -0.91791E-02   -0.12487E+00  8160   0.241E+00    0.332E-01
DAV:   2    -0.192018018541E+03   -0.34603E-02   -0.37683E-02 13560   0.833E-01    0.665E-01
DAV:   3    -0.192015039598E+03    0.29789E-02   -0.13956E-02 11960   0.821E-01    0.373E-01
DAV:   4    -0.192014264720E+03    0.77488E-03   -0.54596E-03 11920   0.437E-01    0.330E-01
DAV:   5    -0.192014046990E+03    0.21773E-03   -0.51261E-03 10040   0.440E-01    0.321E-01
DAV:   6    -0.192013183872E+03    0.86312E-03   -0.25106E-03 10800   0.286E-01    0.104E-01
DAV:   7    -0.192013163773E+03    0.20099E-04   -0.66088E-04  8720   0.186E-01
  40 F= -.19201316E+03 E0= -.19191117E+03  d E =-.778310E-02
       N       E                     dE             d eps       ncg     rms          rms(c)
DAV:   1    -0.192014039090E+03   -0.85522E-03   -0.40062E-02  8160   0.450E-01    0.118E-01
DAV:   2    -0.192014156199E+03   -0.11711E-03   -0.32285E-03 10560   0.310E-01    0.190E-01
DAV:   3    -0.192013858395E+03    0.29780E-03   -0.13024E-03 10080   0.281E-01    0.113E-01
DAV:   4    -0.192013805563E+03    0.52832E-04   -0.70157E-04  8560   0.164E-01
  41 F= -.19201381E+03 E0= -.19191233E+03  d E =-.641790E-03
       N       E                     dE             d eps       ncg     rms          rms(c)
DAV:   1    -0.192018658521E+03   -0.48001E-02   -0.46445E-01  8160   0.144E+00    0.161E-01
DAV:   2    -0.192020198749E+03   -0.15402E-02   -0.11765E-02 13520   0.395E-01    0.375E-01
DAV:   3    -0.192019310348E+03    0.88840E-03   -0.52228E-03 11080   0.439E-01    0.233E-01
DAV:   4    -0.192019018720E+03    0.29163E-03   -0.12726E-03  9640   0.197E-01    0.138E-01
DAV:   5    -0.192018933388E+03    0.85331E-04   -0.71095E-04  8640   0.190E-01
  42 F= -.19201893E+03 E0= -.19191724E+03  d E =-.512783E-02
       N       E                     dE             d eps       ncg     rms          rms(c)
DAV:   1    -0.192019226027E+03   -0.20731E-03   -0.39998E-03  9000   0.180E-01    0.515E-02
DAV:   2    -0.192019682046E+03   -0.45602E-03   -0.97266E-04 10600   0.229E-01    0.209E-01
DAV:   3    -0.192019211285E+03    0.47076E-03   -0.68358E-04  8840   0.206E-01    0.430E-02
DAV:   4    -0.192019211953E+03   -0.66830E-06   -0.70252E-05  5840   0.500E-02
  43 F= -.19201921E+03 E0= -.19191797E+03  d E =-.278565E-03
       N       E                     dE             d eps       ncg     rms          rms(c)
DAV:   1    -0.192019192934E+03    0.18351E-04   -0.99005E-03  8160   0.216E-01    0.394E-02
DAV:   2    -0.192019322515E+03   -0.12958E-03   -0.62270E-04 10480   0.141E-01    0.112E-01
DAV:   3    -0.192019186878E+03    0.13564E-03   -0.23671E-04  7680   0.115E-01    0.289E-02
DAV:   4    -0.192019193264E+03   -0.63857E-05   -0.49700E-05  5560   0.511E-02
  44 F= -.19201919E+03 E0= -.19191773E+03  d E =0.186891E-04
       N       E                     dE             d eps       ncg     rms          rms(c)
DAV:   1    -0.192020659890E+03   -0.14730E-02   -0.19120E-01  8160   0.960E-01    0.178E-01
DAV:   2    -0.192024570607E+03   -0.39107E-02   -0.13427E-02 12240   0.707E-01    0.680E-01
DAV:   3    -0.192020505856E+03    0.40648E-02   -0.76536E-03 10280   0.570E-01    0.158E-01
DAV:   4    -0.192020705121E+03   -0.19926E-03   -0.18341E-03  9840   0.281E-01    0.215E-01
DAV:   5    -0.192020339495E+03    0.36563E-03   -0.11941E-03  9640   0.207E-01    0.121E-01
DAV:   6    -0.192020260205E+03    0.79289E-04   -0.51673E-04  8360   0.169E-01
  45 F= -.19202026E+03 E0= -.19191859E+03  d E =-.106694E-02
       N       E                     dE             d eps       ncg     rms          rms(c)
DAV:   1    -0.192027432149E+03   -0.70927E-02   -0.65479E-01  8160   0.170E+00    0.198E-01
DAV:   2    -0.192030492937E+03   -0.30608E-02   -0.18610E-02 13560   0.582E-01    0.557E-01
DAV:   3    -0.192028206904E+03    0.22860E-02   -0.86697E-03 11000   0.565E-01    0.249E-01
DAV:   4    -0.192027720406E+03    0.48650E-03   -0.16313E-03  9840   0.205E-01    0.102E-01
DAV:   5    -0.192027712363E+03    0.80429E-05   -0.70911E-04  9640   0.172E-01
  46 F= -.19202771E+03 E0= -.19192705E+03  d E =-.745216E-02
       N       E                     dE             d eps       ncg     rms          rms(c)
DAV:   1    -0.192031098905E+03   -0.33785E-02   -0.14758E-01  8160   0.824E-01    0.115E-01
DAV:   2    -0.192032603337E+03   -0.15044E-02   -0.53322E-03 13440   0.409E-01    0.381E-01
DAV:   3    -0.192031097235E+03    0.15061E-02   -0.24286E-03 10680   0.361E-01    0.676E-02
DAV:   4    -0.192031179630E+03   -0.82395E-04   -0.32010E-04  8440   0.128E-01
  47 F= -.19203118E+03 E0= -.19193042E+03  d E =-.346727E-02
       N       E                     dE             d eps       ncg     rms          rms(c)
DAV:   1    -0.192038347411E+03   -0.72502E-02   -0.48968E-01  8160   0.147E+00    0.161E-01
DAV:   2    -0.192039604299E+03   -0.12569E-02   -0.10792E-02 12600   0.376E-01    0.343E-01
DAV:   3    -0.192039000918E+03    0.60338E-03   -0.45914E-03 11160   0.415E-01    0.240E-01
DAV:   4    -0.192038679728E+03    0.32119E-03   -0.12602E-03  9480   0.205E-01    0.133E-01
DAV:   5    -0.192038583196E+03    0.96532E-04   -0.65498E-04  8680   0.188E-01
  48 F= -.19203858E+03 E0= -.19193793E+03  d E =-.740357E-02
       N       E                     dE             d eps       ncg     rms          rms(c)
DAV:   1    -0.192038718301E+03   -0.38573E-04   -0.49754E-02  8160   0.499E-01    0.110E-01
DAV:   2    -0.192040824404E+03   -0.21061E-02   -0.52305E-03 11000   0.538E-01    0.423E-01
DAV:   3    -0.192038670055E+03    0.21543E-02   -0.28521E-03 10200   0.436E-01    0.738E-02
DAV:   4    -0.192038681556E+03   -0.11500E-04   -0.25103E-04  7560   0.104E-01
  49 F= -.19203868E+03 E0= -.19193849E+03  d E =-.983601E-04
       N       E                     dE             d eps       ncg     rms          rms(c)
DAV:   1    -0.192039315780E+03   -0.64572E-03   -0.32309E-01  8160   0.123E+00    0.171E-01
DAV:   2    -0.192041369281E+03   -0.20535E-02   -0.11186E-02 12640   0.541E-01    0.431E-01
DAV:   3    -0.192039426500E+03    0.19428E-02   -0.47028E-03 11680   0.472E-01    0.144E-01
DAV:   4    -0.192039870254E+03   -0.44375E-03   -0.17492E-03  9800   0.284E-01    0.261E-01
DAV:   5    -0.192039236472E+03    0.63378E-03   -0.12798E-03  9400   0.241E-01    0.865E-02
DAV:   6    -0.192039314179E+03   -0.77706E-04   -0.47739E-04  8440   0.161E-01
  50 F= -.19203931E+03 E0= -.19193960E+03  d E =-.632623E-03
       N       E                     dE             d eps       ncg     rms          rms(c)
DAV:   1    -0.192039234495E+03    0.19773E-05   -0.81022E-04 10000   0.125E-01    0.255E-02
DAV:   2    -0.192039284352E+03   -0.49857E-04   -0.12560E-04  6440   0.721E-02
  51 F= -.19203928E+03 E0= -.19193989E+03  d E =0.298267E-04
       N       E                     dE             d eps       ncg     rms          rms(c)
DAV:   1    -0.192052680447E+03   -0.13446E-01   -0.12200E+00  8160   0.232E+00    0.253E-01
DAV:   2    -0.192054126320E+03   -0.14459E-02   -0.25482E-02 13560   0.569E-01    0.322E-01
DAV:   3    -0.192053990749E+03    0.13557E-03   -0.58140E-03 11960   0.544E-01    0.321E-01
DAV:   4    -0.192053240048E+03    0.75070E-03   -0.32361E-03 11440   0.382E-01    0.227E-01
DAV:   5    -0.192053113553E+03    0.12649E-03   -0.22352E-03 10400   0.325E-01    0.214E-01
DAV:   6    -0.192052852196E+03    0.26136E-03   -0.14717E-03  9520   0.237E-01    0.145E-01
DAV:   7    -0.192052728316E+03    0.12388E-03   -0.63370E-04  8160   0.186E-01    0.830E-02
DAV:   8    -0.192052650503E+03    0.77813E-04   -0.13733E-04  5680   0.873E-02
  52 F= -.19205265E+03 E0= -.19195430E+03  d E =-.133662E-01
       N       E                     dE             d eps       ncg     rms          rms(c)
DAV:   1    -0.192057233244E+03   -0.45049E-02   -0.11868E-01  8160   0.721E-01    0.725E-02
DAV:   2    -0.192057373746E+03   -0.14050E-03   -0.23850E-03 12600   0.169E-01    0.751E-02
DAV:   3    -0.192057378772E+03   -0.50259E-05   -0.39267E-04  9040   0.152E-01
  53 F= -.19205738E+03 E0= -.19195940E+03  d E =-.472827E-02
       N       E                     dE             d eps       ncg     rms          rms(c)
DAV:   1    -0.192069675675E+03   -0.12302E-01   -0.84228E-01  8160   0.192E+00    0.205E-01
DAV:   2    -0.192070825043E+03   -0.11494E-02   -0.17305E-02 12440   0.454E-01    0.264E-01
DAV:   3    -0.192071245909E+03   -0.42087E-03   -0.50493E-03 11280   0.468E-01    0.375E-01
DAV:   4    -0.192070195289E+03    0.10506E-02   -0.27934E-03  9800   0.329E-01    0.150E-01
DAV:   5    -0.192070335370E+03   -0.14008E-03   -0.13947E-03  9640   0.254E-01    0.194E-01
DAV:   6    -0.192069991822E+03    0.34355E-03   -0.81181E-04  8840   0.196E-01    0.600E-02
DAV:   7    -0.192070028024E+03   -0.36202E-04   -0.26569E-04  8080   0.121E-01
  54 F= -.19207003E+03 E0= -.19197342E+03  d E =-.126493E-01
       N       E                     dE             d eps       ncg     rms          rms(c)
DAV:   1    -0.192071209362E+03   -0.12175E-02   -0.12724E-02  8160   0.247E-01    0.379E-02
DAV:   2    -0.192071226983E+03   -0.17622E-04   -0.33630E-04  8480   0.754E-02
  55 F= -.19207123E+03 E0= -.19197480E+03  d E =-.119896E-02
       N       E                     dE             d eps       ncg     rms          rms(c)
DAV:   1    -0.192092645453E+03   -0.21436E-01   -0.21503E+00  8160   0.307E+00    0.295E-01
DAV:   2    -0.192094983397E+03   -0.23379E-02   -0.40719E-02 12200   0.616E-01    0.282E-01
DAV:   3    -0.192096003441E+03   -0.10200E-02   -0.76746E-03 12360   0.625E-01    0.447E-01
DAV:   4    -0.192094569835E+03    0.14336E-02   -0.54398E-03 11840   0.515E-01    0.276E-01
DAV:   5    -0.192094304977E+03    0.26486E-03   -0.28523E-03 10120   0.366E-01    0.232E-01
DAV:   6    -0.192093957481E+03    0.34750E-03   -0.15527E-03  9520   0.266E-01    0.133E-01
DAV:   7    -0.192093955233E+03    0.22481E-05   -0.81816E-04  9880   0.209E-01
  56 F= -.19209396E+03 E0= -.19199961E+03  d E =-.227282E-01
       N       E                     dE             d eps       ncg     rms          rms(c)
DAV:   1    -0.192099924080E+03   -0.59666E-02   -0.15042E-01  8160   0.847E-01    0.976E-02
DAV:   2    -0.192100208637E+03   -0.28456E-03   -0.43098E-03 12160   0.201E-01    0.108E-01
DAV:   3    -0.192100225572E+03   -0.16935E-04   -0.91614E-04 11040   0.228E-01
  57 F= -.19210023E+03 E0= -.19200577E+03  d E =-.627034E-02
       N       E                     dE             d eps       ncg     rms          rms(c)
DAV:   1    -0.192114225913E+03   -0.14017E-01   -0.79570E-01  8160   0.191E+00    0.233E-01
DAV:   2    -0.192117568933E+03   -0.33430E-02   -0.23246E-02 12280   0.712E-01    0.553E-01
DAV:   3    -0.192114935682E+03    0.26333E-02   -0.77477E-03 11240   0.602E-01    0.243E-01
DAV:   4    -0.192115084615E+03   -0.14893E-03   -0.29875E-03  9960   0.357E-01    0.282E-01
DAV:   5    -0.192114500059E+03    0.58456E-03   -0.20040E-03  9920   0.308E-01    0.145E-01
DAV:   6    -0.192114433862E+03    0.66196E-04   -0.86811E-04  9720   0.206E-01
  58 F= -.19211443E+03 E0= -.19202112E+03  d E =-.142083E-01
       N       E                     dE             d eps       ncg     rms          rms(c)
DAV:   1    -0.192118526112E+03   -0.40261E-02   -0.25883E-01  8160   0.127E+00    0.321E-01
DAV:   2    -0.192119379001E+03   -0.85289E-03   -0.19982E-02 11360   0.723E-01    0.564E-01
DAV:   3    -0.192117050281E+03    0.23287E-02   -0.11639E-02 11440   0.830E-01    0.378E-01
DAV:   4    -0.192116333684E+03    0.71660E-03   -0.55390E-03 11280   0.466E-01    0.339E-01
DAV:   5    -0.192115635635E+03    0.69805E-03   -0.39974E-03 11320   0.443E-01    0.237E-01
DAV:   6    -0.192115384369E+03    0.25127E-03   -0.19049E-03  9560   0.272E-01    0.185E-01
DAV:   7    -0.192115007602E+03    0.37677E-03   -0.61493E-04  8600   0.182E-01    0.208E-02
DAV:   8    -0.192115009011E+03   -0.14088E-05   -0.55371E-05  6360   0.310E-02
  59 F= -.19211501E+03 E0= -.19202155E+03  d E =-.575149E-03
       N       E                     dE             d eps       ncg     rms          rms(c)
DAV:   1    -0.192128777073E+03   -0.13769E-01   -0.62611E-01  8160   0.167E+00    0.179E-01
DAV:   2    -0.192130253148E+03   -0.14761E-02   -0.16455E-02 12080   0.493E-01    0.296E-01
DAV:   3    -0.192129728742E+03    0.52441E-03   -0.34870E-03 12280   0.435E-01    0.206E-01
DAV:   4    -0.192129342116E+03    0.38663E-03   -0.11086E-03  9680   0.231E-01    0.111E-01
DAV:   5    -0.192129413488E+03   -0.71372E-04   -0.79063E-04  9040   0.206E-01
  60 F= -.19212941E+03 E0= -.19203695E+03  d E =-.144045E-01
       N       E                     dE             d eps       ncg     rms          rms(c)
DAV:   1    -0.192150271448E+03   -0.20929E-01   -0.16252E+00  8160   0.269E+00    0.280E-01
DAV:   2    -0.192154725602E+03   -0.44542E-02   -0.39661E-02 12400   0.745E-01    0.540E-01
DAV:   3    -0.192152552950E+03    0.21727E-02   -0.92781E-03 12000   0.698E-01    0.306E-01
DAV:   4    -0.192152333242E+03    0.21971E-03   -0.33809E-03 10720   0.364E-01    0.296E-01
DAV:   5    -0.192151789585E+03    0.54366E-03   -0.25026E-03  9960   0.341E-01    0.172E-01
DAV:   6    -0.192151575480E+03    0.21411E-03   -0.84888E-04 10240   0.167E-01    0.551E-02
DAV:   7    -0.192151560131E+03    0.15349E-04   -0.22757E-04  7920   0.972E-02
  61 F= -.19215156E+03 E0= -.19206050E+03  d E =-.221466E-01
       N       E                     dE             d eps       ncg     rms          rms(c)
DAV:   1    -0.192160972409E+03   -0.93969E-02   -0.27073E-01  8160   0.111E+00    0.132E-01
DAV:   2    -0.192161423989E+03   -0.45158E-03   -0.76808E-03 12120   0.303E-01    0.157E-01
DAV:   3    -0.192161546276E+03   -0.12229E-03   -0.18129E-03 12080   0.309E-01    0.209E-01
DAV:   4    -0.192161221177E+03    0.32510E-03   -0.10596E-03  8720   0.220E-01    0.119E-01
DAV:   5    -0.192161172969E+03    0.48208E-04   -0.56503E-04  8280   0.170E-01
  62 F= -.19216117E+03 E0= -.19207045E+03  d E =-.961284E-02
       N       E                     dE             d eps       ncg     rms          rms(c)
DAV:   1    -0.192199115572E+03   -0.37894E-01   -0.59762E+00  8160   0.521E+00    0.557E-01
DAV:   2    -0.192210833835E+03   -0.11718E-01   -0.15328E-01 12160   0.120E+00    0.735E-01
DAV:   3    -0.192212883410E+03   -0.20496E-02   -0.36812E-02 11280   0.131E+00    0.976E-01
DAV:   4    -0.192205795720E+03    0.70877E-02   -0.19027E-02 12200   0.874E-01    0.448E-01
DAV:   5    -0.192205074064E+03    0.72166E-03   -0.80657E-03 10320   0.655E-01    0.381E-01
DAV:   6    -0.192203882209E+03    0.11919E-02   -0.37987E-03 11760   0.414E-01    0.167E-01
DAV:   7    -0.192203928259E+03   -0.46050E-04   -0.19854E-03 10360   0.342E-01    0.182E-01
DAV:   8    -0.192203491643E+03    0.43662E-03   -0.70111E-04 10200   0.208E-01    0.305E-02
DAV:   9    -0.192203486760E+03    0.48831E-05   -0.68073E-05  6200   0.333E-02
  63 F= -.19220349E+03 E0= -.19211383E+03  d E =-.423138E-01
       N       E                     dE             d eps       ncg     rms          rms(c)
DAV:   1    -0.192219011589E+03   -0.15520E-01   -0.94729E-01  8160   0.208E+00    0.246E-01
DAV:   2    -0.192223211653E+03   -0.42001E-02   -0.35105E-02 12040   0.800E-01    0.490E-01
DAV:   3    -0.192220947092E+03    0.22646E-02   -0.69043E-03 12360   0.640E-01    0.216E-01
DAV:   4    -0.192220689557E+03    0.25754E-03   -0.16642E-03 10200   0.304E-01    0.183E-01
DAV:   5    -0.192220480965E+03    0.20859E-03   -0.12444E-03 10160   0.279E-01    0.132E-01
DAV:   6    -0.192220499420E+03   -0.18455E-04   -0.82805E-04 10360   0.189E-01
  64 F= -.19222050E+03 E0= -.19213143E+03  d E =-.170127E-01
       N       E                     dE             d eps       ncg     rms          rms(c)
DAV:   1    -0.192233182835E+03   -0.12702E-01   -0.64044E-01  8160   0.173E+00    0.219E-01
DAV:   2    -0.192236476172E+03   -0.32933E-02   -0.24262E-02 12680   0.580E-01    0.506E-01
DAV:   3    -0.192234604816E+03    0.18714E-02   -0.74593E-03 12000   0.590E-01    0.269E-01
DAV:   4    -0.192234130105E+03    0.47471E-03   -0.15669E-03  9960   0.251E-01    0.152E-01
DAV:   5    -0.192233954445E+03    0.17566E-03   -0.78140E-04 10600   0.227E-01    0.103E-01
DAV:   6    -0.192233947045E+03    0.74006E-05   -0.41997E-04  8560   0.144E-01
  65 F= -.19223395E+03 E0= -.19214486E+03  d E =-.134476E-01
       N       E                     dE             d eps       ncg     rms          rms(c)
DAV:   1    -0.192256692727E+03   -0.22738E-01   -0.26379E+00  8160   0.348E+00    0.397E-01
DAV:   2    -0.192266108983E+03   -0.94163E-02   -0.84356E-02 11960   0.104E+00    0.751E-01
DAV:   3    -0.192262869802E+03    0.32392E-02   -0.20508E-02 12000   0.100E+00    0.537E-01
DAV:   4    -0.192260988037E+03    0.18818E-02   -0.63341E-03 11800   0.541E-01    0.315E-01
DAV:   5    -0.192260307875E+03    0.68016E-03   -0.31224E-03 10320   0.447E-01    0.212E-01
DAV:   6    -0.192260153085E+03    0.15479E-03   -0.16572E-03 12400   0.293E-01    0.159E-01
DAV:   7    -0.192260023748E+03    0.12934E-03   -0.11198E-03 10640   0.266E-01    0.121E-01
DAV:   8    -0.192259818629E+03    0.20512E-03   -0.30025E-04  8880   0.128E-01    0.187E-02
DAV:   9    -0.192259821808E+03   -0.31787E-05   -0.40506E-05  6680   0.229E-02
  66 F= -.19225982E+03 E0= -.19217109E+03  d E =-.258748E-01
       N       E                     dE             d eps       ncg     rms          rms(c)
DAV:   1    -0.192286838061E+03   -0.27019E-01   -0.40392E+00  8160   0.433E+00    0.500E-01
DAV:   2    -0.192298496775E+03   -0.11659E-01   -0.12630E-01 11400   0.120E+00    0.778E-01
DAV:   3    -0.192296769195E+03    0.17276E-02   -0.28896E-02 11680   0.122E+00    0.730E-01
DAV:   4    -0.192292760316E+03    0.40089E-02   -0.11170E-02 12240   0.718E-01    0.384E-01
DAV:   5    -0.192292087520E+03    0.67280E-03   -0.54805E-03 10800   0.578E-01    0.313E-01
DAV:   6    -0.192291338697E+03    0.74882E-03   -0.26853E-03 12240   0.365E-01    0.152E-01
DAV:   7    -0.192291327162E+03    0.11535E-04   -0.14505E-03 10280   0.299E-01    0.157E-01
DAV:   8    -0.192290995033E+03    0.33213E-03   -0.49528E-04  9360   0.179E-01    0.259E-02
DAV:   9    -0.192290994950E+03    0.83041E-07   -0.56496E-05  6400   0.304E-02
  67 F= -.19229099E+03 E0= -.19220270E+03  d E =-.311731E-01
       N       E                     dE             d eps       ncg     rms          rms(c)
DAV:   1    -0.192296192623E+03   -0.51976E-02   -0.11741E-01  8160   0.737E-01    0.889E-02
DAV:   2    -0.192296419707E+03   -0.22708E-03   -0.31312E-03 10560   0.192E-01    0.116E-01
DAV:   3    -0.192296399200E+03    0.20506E-04   -0.63822E-04 10520   0.201E-01
  68 F= -.19229640E+03 E0= -.19220832E+03  d E =-.540425E-02
       N       E                     dE             d eps       ncg     rms          rms(c)
DAV:   1    -0.192287662844E+03    0.87569E-02   -0.68188E-01  8160   0.179E+00    0.241E-01
DAV:   2    -0.192295075351E+03   -0.74125E-02   -0.28868E-02 12280   0.100E+00    0.847E-01
DAV:   3    -0.192288375393E+03    0.67000E-02   -0.11754E-02 11520   0.813E-01    0.177E-01
DAV:   4    -0.192288729487E+03   -0.35409E-03   -0.19568E-03 10080   0.345E-01    0.251E-01
DAV:   5    -0.192288060957E+03    0.66853E-03   -0.13103E-03 10160   0.287E-01    0.910E-02
DAV:   6    -0.192288175129E+03   -0.11417E-03   -0.56293E-04  9000   0.189E-01    0.131E-01
DAV:   7    -0.192287993928E+03    0.18120E-03   -0.37619E-04  8560   0.153E-01    0.326E-02
DAV:   8    -0.192287982013E+03    0.11916E-04   -0.46924E-05  6440   0.357E-02
  69 F= -.19228798E+03 E0= -.19219923E+03  d E =0.841719E-02
       N       E                     dE             d eps       ncg     rms          rms(c)
DAV:   1    -0.192307001537E+03   -0.19008E-01   -0.14039E+00  8160   0.258E+00    0.343E-01
DAV:   2    -0.192310239095E+03   -0.32376E-02   -0.39565E-02 10840   0.808E-01    0.540E-01
DAV:   3    -0.192308483456E+03    0.17556E-02   -0.11023E-02 12360   0.839E-01    0.371E-01
DAV:   4    -0.192306789958E+03    0.16935E-02   -0.28391E-03 11600   0.389E-01    0.122E-01
DAV:   5    -0.192306993281E+03   -0.20332E-03   -0.15364E-03 11520   0.284E-01    0.194E-01
DAV:   6    -0.192306615319E+03    0.37796E-03   -0.11579E-03 11160   0.273E-01    0.872E-02
DAV:   7    -0.192306601167E+03    0.14152E-04   -0.36714E-04  8520   0.135E-01
  70 F= -.19230660E+03 E0= -.19221869E+03  d E =-.186192E-01
       N       E                     dE             d eps       ncg     rms          rms(c)
DAV:   1    -0.192310963838E+03   -0.43485E-02   -0.95833E-02  8160   0.669E-01    0.950E-02
DAV:   2    -0.192311445307E+03   -0.48147E-03   -0.41998E-03 10400   0.276E-01    0.187E-01
DAV:   3    -0.192311157444E+03    0.28786E-03   -0.11145E-03 10680   0.245E-01    0.104E-01
DAV:   4    -0.192311124516E+03    0.32929E-04   -0.38241E-04  8160   0.142E-01
  71 F= -.19231112E+03 E0= -.19222336E+03  d E =-.452335E-02
       N       E                     dE             d eps       ncg     rms          rms(c)
DAV:   1    -0.192327932979E+03   -0.16776E-01   -0.96448E-01  8160   0.211E+00    0.268E-01
DAV:   2    -0.192329657032E+03   -0.17241E-02   -0.24985E-02 10840   0.544E-01    0.349E-01
DAV:   3    -0.192329628423E+03    0.28610E-04   -0.65564E-03 12040   0.605E-01    0.369E-01
DAV:   4    -0.192328608497E+03    0.10199E-02   -0.31871E-03 11440   0.403E-01    0.212E-01
DAV:   5    -0.192328493200E+03    0.11530E-03   -0.19923E-03 10080   0.343E-01    0.194E-01
DAV:   6    -0.192328182793E+03    0.31041E-03   -0.93504E-04 11200   0.225E-01    0.924E-02
DAV:   7    -0.192328164612E+03    0.18181E-04   -0.42214E-04  8440   0.167E-01
  72 F= -.19232816E+03 E0= -.19224159E+03  d E =-.170401E-01
       N       E                     dE             d eps       ncg     rms          rms(c)
DAV:   1    -0.192328269828E+03   -0.87035E-04   -0.22548E-04  8000   0.890E-02    0.138E-02
DAV:   2    -0.192328277741E+03   -0.79135E-05   -0.36206E-05  6640   0.295E-02
  73 F= -.19232828E+03 E0= -.19224176E+03  d E =-.113129E-03
       N       E                     dE             d eps       ncg     rms          rms(c)
DAV:   1    -0.192346563127E+03   -0.18293E-01   -0.10182E+00  8160   0.218E+00    0.276E-01
DAV:   2    -0.192350232086E+03   -0.36690E-02   -0.27500E-02 11120   0.734E-01    0.547E-01
DAV:   3    -0.192347499752E+03    0.27323E-02   -0.85045E-03 12400   0.743E-01    0.247E-01
DAV:   4    -0.192346908466E+03    0.59129E-03   -0.15491E-03 10400   0.254E-01    0.135E-01
DAV:   5    -0.192347213771E+03   -0.30530E-03   -0.17361E-03 10520   0.300E-01    0.240E-01
DAV:   6    -0.192346676701E+03    0.53707E-03   -0.10776E-03  9400   0.234E-01    0.500E-02
DAV:   7    -0.192346647512E+03    0.29188E-04   -0.95233E-05  6240   0.506E-02
  74 F= -.19234665E+03 E0= -.19226125E+03  d E =-.183698E-01
       N       E                     dE             d eps       ncg     rms          rms(c)
DAV:   1    -0.192312418777E+03    0.34258E-01   -0.34114E+00  8160   0.398E+00    0.509E-01
DAV:   2    -0.192326189254E+03   -0.13770E-01   -0.98300E-02 11200   0.142E+00    0.105E+00
DAV:   3    -0.192316288421E+03    0.99008E-02   -0.29960E-02 12240   0.138E+00    0.455E-01
DAV:   4    -0.192315302870E+03    0.98555E-03   -0.64302E-03 11920   0.563E-01    0.415E-01
DAV:   5    -0.192314282509E+03    0.10204E-02   -0.60084E-03 10600   0.568E-01    0.306E-01
DAV:   6    -0.192313900459E+03    0.38205E-03   -0.31083E-03 11520   0.382E-01    0.214E-01
DAV:   7    -0.192313483721E+03    0.41674E-03   -0.14613E-03 10200   0.311E-01    0.103E-01
DAV:   8    -0.192313312017E+03    0.17170E-03   -0.24226E-04  8200   0.109E-01    0.164E-02
DAV:   9    -0.192313312143E+03   -0.12621E-06   -0.53716E-05  7800   0.225E-02
  75 F= -.19231331E+03 E0= -.19222551E+03  d E =0.333354E-01
       N       E                     dE             d eps       ncg     rms          rms(c)
DAV:   1    -0.192259263238E+03    0.54049E-01   -0.16282E+01  8160   0.878E+00    0.108E+00
DAV:   2    -0.192309364979E+03   -0.50102E-01   -0.43599E-01 11680   0.277E+00    0.196E+00
DAV:   3    -0.192280018044E+03    0.29347E-01   -0.12217E-01 12320   0.279E+00    0.109E+00
DAV:   4    -0.192268361770E+03    0.11656E-01   -0.25439E-02 12400   0.110E+00    0.636E-01
DAV:   5    -0.192271675032E+03   -0.33133E-02   -0.29156E-02 11400   0.119E+00    0.939E-01
DAV:   6    -0.192264219727E+03    0.74553E-02   -0.18862E-02 12480   0.880E-01    0.225E-01
DAV:   7    -0.192263778226E+03    0.44150E-03   -0.30670E-03 11560   0.369E-01    0.194E-01
DAV:   8    -0.192263289019E+03    0.48921E-03   -0.97187E-04 10160   0.237E-01    0.453E-02
DAV:   9    -0.192263274254E+03    0.14765E-04   -0.12963E-04  6680   0.529E-02
  76 F= -.19226327E+03 E0= -.19217171E+03  d E =0.500379E-01
       N       E                     dE             d eps       ncg     rms          rms(c)
DAV:   1    -0.192262627650E+03    0.66137E-03   -0.62099E-01  8160   0.170E+00    0.202E-01
DAV:   2    -0.192263373339E+03   -0.74569E-03   -0.14240E-02 10920   0.356E-01    0.209E-01
DAV:   3    -0.192263566333E+03   -0.19299E-03   -0.37608E-03 12600   0.426E-01    0.262E-01
DAV:   4    -0.192263063612E+03    0.50272E-03   -0.20712E-03 10120   0.307E-01    0.187E-01
DAV:   5    -0.192262854663E+03    0.20895E-03   -0.11952E-03  9040   0.251E-01    0.128E-01
DAV:   6    -0.192262741187E+03    0.11348E-03   -0.47015E-04  8520   0.143E-01    0.553E-02
DAV:   7    -0.192262716091E+03    0.25096E-04   -0.13066E-04  6760   0.849E-02
  77 F= -.19226272E+03 E0= -.19217041E+03  d E =0.558163E-03
       N       E                     dE             d eps       ncg     rms          rms(c)
DAV:   1    -0.192264486844E+03   -0.17457E-02   -0.10306E+00  8160   0.220E+00    0.258E-01
DAV:   2    -0.192267455128E+03   -0.29683E-02   -0.31183E-02 12240   0.649E-01    0.407E-01
DAV:   3    -0.192266133921E+03    0.13212E-02   -0.78522E-03 12320   0.615E-01    0.267E-01
DAV:   4    -0.192266152833E+03   -0.18912E-04   -0.32028E-03 11600   0.376E-01    0.298E-01
DAV:   5    -0.192265319041E+03    0.83379E-03   -0.20625E-03  9800   0.330E-01    0.105E-01
DAV:   6    -0.192265350963E+03   -0.31922E-04   -0.58731E-04  9680   0.151E-01
  78 F= -.19226535E+03 E0= -.19217172E+03  d E =-.263487E-02
       N       E                     dE             d eps       ncg     rms          rms(c)
DAV:   1    -0.192268649479E+03   -0.33304E-02   -0.44550E-01  8160   0.143E+00    0.168E-01
DAV:   2    -0.192271372151E+03   -0.27227E-02   -0.19211E-02 12960   0.539E-01    0.406E-01
DAV:   3    -0.192269781046E+03    0.15911E-02   -0.51815E-03 12040   0.489E-01    0.168E-01
DAV:   4    -0.192269813299E+03   -0.32253E-04   -0.12030E-03  9160   0.247E-01    0.171E-01
DAV:   5    -0.192269481701E+03    0.33160E-03   -0.66553E-04  8560   0.194E-01    0.494E-02
DAV:   6    -0.192269538161E+03   -0.56460E-04   -0.22238E-04  6520   0.961E-02
  79 F= -.19226954E+03 E0= -.19217583E+03  d E =-.418720E-02
       N       E                     dE             d eps       ncg     rms          rms(c)
DAV:   1    -0.192272057454E+03   -0.25758E-02   -0.21603E+00  8160   0.317E+00    0.379E-01
DAV:   2    -0.192283340589E+03   -0.11283E-01   -0.84985E-02 13040   0.119E+00    0.806E-01
DAV:   3    -0.192276456173E+03    0.68844E-02   -0.21571E-02 11840   0.103E+00    0.342E-01
DAV:   4    -0.192276893444E+03   -0.43727E-03   -0.64778E-03 12160   0.544E-01    0.418E-01
DAV:   5    -0.192275096900E+03    0.17965E-02   -0.39308E-03 11040   0.454E-01    0.125E-01
DAV:   6    -0.192275273741E+03   -0.17684E-03   -0.12036E-03 10840   0.225E-01    0.169E-01
DAV:   7    -0.192275092963E+03    0.18078E-03   -0.11362E-03 11080   0.263E-01    0.120E-01
DAV:   8    -0.192274905202E+03    0.18776E-03   -0.30120E-04  8680   0.119E-01    0.174E-02
DAV:   9    -0.192274907611E+03   -0.24088E-05   -0.36346E-05  6640   0.218E-02
  80 F= -.19227491E+03 E0= -.19217949E+03  d E =-.536945E-02
       N       E                     dE             d eps       ncg     rms          rms(c)
DAV:   1    -0.192277324738E+03   -0.24195E-02   -0.15657E+00  8160   0.268E+00    0.319E-01
DAV:   2    -0.192287085983E+03   -0.97612E-02   -0.64872E-02 11840   0.109E+00    0.781E-01
DAV:   3    -0.192280583484E+03    0.65025E-02   -0.18686E-02 11920   0.935E-01    0.283E-01
DAV:   4    -0.192280818474E+03   -0.23499E-03   -0.44887E-03 11120   0.457E-01    0.328E-01
DAV:   5    -0.192279617327E+03    0.12011E-02   -0.24164E-03 10120   0.357E-01    0.856E-02
DAV:   6    -0.192279608779E+03    0.85489E-05   -0.57212E-04 10320   0.107E-01
  81 F= -.19227961E+03 E0= -.19218282E+03  d E =-.470117E-02
       N       E                     dE             d eps       ncg     rms          rms(c)
DAV:   1    -0.192281033377E+03   -0.14160E-02   -0.70672E-01  8160   0.180E+00    0.233E-01
DAV:   2    -0.192286551442E+03   -0.55181E-02   -0.34297E-02 11480   0.829E-01    0.602E-01
DAV:   3    -0.192282548578E+03    0.40029E-02   -0.11102E-02 12360   0.727E-01    0.181E-01
DAV:   4    -0.192282831198E+03   -0.28262E-03   -0.21119E-03  9800   0.325E-01    0.244E-01
DAV:   5    -0.192282174067E+03    0.65713E-03   -0.13103E-03  9640   0.263E-01    0.651E-02
DAV:   6    -0.192282369799E+03   -0.19573E-03   -0.50115E-04  9040   0.171E-01    0.143E-01
DAV:   7    -0.192282158445E+03    0.21135E-03   -0.38982E-04  9160   0.166E-01    0.367E-02
DAV:   8    -0.192282143613E+03    0.14832E-04   -0.47240E-05  6120   0.376E-02
  82 F= -.19228214E+03 E0= -.19218455E+03  d E =-.253483E-02
       N       E                     dE             d eps       ncg     rms          rms(c)
DAV:   1    -0.192283071095E+03   -0.91265E-03   -0.12728E+00  8160   0.241E+00    0.290E-01
DAV:   2    -0.192291426175E+03   -0.83551E-02   -0.55600E-02 11440   0.102E+00    0.711E-01
DAV:   3    -0.192285837001E+03    0.55892E-02   -0.15859E-02 12000   0.864E-01    0.237E-01
DAV:   4    -0.192286135588E+03   -0.29859E-03   -0.35339E-03 11000   0.407E-01    0.298E-01
DAV:   5    -0.192285139335E+03    0.99625E-03   -0.19926E-03 10000   0.321E-01    0.728E-02
DAV:   6    -0.192285141311E+03   -0.19761E-05   -0.43060E-04 10120   0.816E-02
  83 F= -.19228514E+03 E0= -.19218635E+03  d E =-.299770E-02
       N       E                     dE             d eps       ncg     rms          rms(c)
DAV:   1    -0.192286072402E+03   -0.93307E-03   -0.16655E-01  8160   0.869E-01    0.106E-01
DAV:   2    -0.192287019214E+03   -0.94681E-03   -0.67719E-03 11720   0.350E-01    0.246E-01
DAV:   3    -0.192286406139E+03    0.61307E-03   -0.20286E-03 11400   0.308E-01    0.952E-02
DAV:   4    -0.192286428295E+03   -0.22155E-04   -0.45865E-04  8320   0.147E-01
  84 F= -.19228643E+03 E0= -.19218727E+03  d E =-.128698E-02
       N       E                     dE             d eps       ncg     rms          rms(c)
DAV:   1    -0.192286373599E+03    0.32541E-04   -0.80833E-04  9880   0.126E-01    0.317E-02
DAV:   2    -0.192286443661E+03   -0.70062E-04   -0.20066E-04  8720   0.999E-02
  85 F= -.19228644E+03 E0= -.19218725E+03  d E =-.153664E-04
