<?xml version="1.0" encoding="ISO-8859-1"?>
<modeling>
 <generator>
  <i name="program" type="string">vasp </i>
  <i name="version" type="string">5.4.1  </i>
  <i name="subversion" type="string">05Feb16 (build Jul 05 2020 17:13:04) complex                          parallel </i>
  <i name="platform" type="string">IFC91_ompi </i>
  <i name="date" type="string">2024 04 22 </i>
  <i name="time" type="string">07:24:43 </i>
 </generator>
 <incar>
  <i type="int" name="ISTART">     0</i>
  <i type="string" name="PREC">normal</i>
  <i type="string" name="ALGO"> Normal</i>
  <i type="int" name="ISPIN">     1</i>
  <i type="int" name="ICHARG">     2</i>
  <i type="int" name="IBRION">     1</i>
  <i type="int" name="NSW">   100</i>
  <i type="int" name="ISIF">     3</i>
  <i type="int" name="ISYM">     0</i>
  <i name="SYMPREC">      0.00000001</i>
  <i name="POTIM">      0.50000000</i>
  <i type="logical" name="LREAL"> F  </i>
  <i type="logical" name="LPLANE"> F  </i>
  <i type="int" name="ISMEAR">     0</i>
  <i type="logical" name="LWAVE"> F  </i>
  <i type="logical" name="LCHARG"> F  </i>
  <v type="int" name="KPOINT_BSE">    -1     0     0     0</v>
 </incar>
 <kpoints>
  <generation param="Gamma">
   <v type="int" name="divisions">       8        8        1 </v>
   <v name="usershift">      0.00000000       0.00000000       0.00000000 </v>
   <v name="genvec1">      0.12500000       0.00000000       0.00000000 </v>
   <v name="genvec2">     -0.00000000       0.12500000       0.00000000 </v>
   <v name="genvec3">      0.00000000       0.00000000       1.00000000 </v>
   <v name="shift">      0.00000000       0.00000000       0.00000000 </v>
  </generation>
  <varray name="kpointlist" >
   <v>       0.00000000       0.00000000       0.00000000 </v>
   <v>       0.12500000       0.00000000       0.00000000 </v>
   <v>       0.25000000       0.00000000       0.00000000 </v>
   <v>       0.37500000       0.00000000       0.00000000 </v>
   <v>       0.50000000       0.00000000       0.00000000 </v>
   <v>       0.00000000       0.12500000       0.00000000 </v>
   <v>       0.12500000       0.12500000       0.00000000 </v>
   <v>       0.25000000       0.12500000       0.00000000 </v>
   <v>       0.37500000       0.12500000       0.00000000 </v>
   <v>       0.50000000       0.12500000       0.00000000 </v>
   <v>      -0.37500000       0.12500000       0.00000000 </v>
   <v>      -0.25000000       0.12500000       0.00000000 </v>
   <v>      -0.12500000       0.12500000       0.00000000 </v>
   <v>       0.00000000       0.25000000       0.00000000 </v>
   <v>       0.12500000       0.25000000       0.00000000 </v>
   <v>       0.25000000       0.25000000       0.00000000 </v>
   <v>       0.37500000       0.25000000       0.00000000 </v>
   <v>       0.50000000       0.25000000       0.00000000 </v>
   <v>      -0.37500000       0.25000000       0.00000000 </v>
   <v>      -0.25000000       0.25000000       0.00000000 </v>
   <v>      -0.12500000       0.25000000       0.00000000 </v>
   <v>      -0.00000000       0.37500000       0.00000000 </v>
   <v>       0.12500000       0.37500000       0.00000000 </v>
   <v>       0.25000000       0.37500000       0.00000000 </v>
   <v>       0.37500000       0.37500000       0.00000000 </v>
   <v>       0.50000000       0.37500000       0.00000000 </v>
   <v>      -0.37500000       0.37500000       0.00000000 </v>
   <v>      -0.25000000       0.37500000       0.00000000 </v>
   <v>      -0.12500000       0.37500000       0.00000000 </v>
   <v>       0.00000000       0.50000000       0.00000000 </v>
   <v>       0.12500000       0.50000000       0.00000000 </v>
   <v>       0.25000000       0.50000000       0.00000000 </v>
   <v>       0.37500000       0.50000000       0.00000000 </v>
   <v>       0.50000000       0.50000000       0.00000000 </v>
  </varray>
  <varray name="weights" >
   <v>       0.01562500 </v>
   <v>       0.03125000 </v>
   <v>       0.03125000 </v>
   <v>       0.03125000 </v>
   <v>       0.01562500 </v>
   <v>       0.03125000 </v>
   <v>       0.03125000 </v>
   <v>       0.03125000 </v>
   <v>       0.03125000 </v>
   <v>       0.03125000 </v>
   <v>       0.03125000 </v>
   <v>       0.03125000 </v>
   <v>       0.03125000 </v>
   <v>       0.03125000 </v>
   <v>       0.03125000 </v>
   <v>       0.03125000 </v>
   <v>       0.03125000 </v>
   <v>       0.03125000 </v>
   <v>       0.03125000 </v>
   <v>       0.03125000 </v>
   <v>       0.03125000 </v>
   <v>       0.03125000 </v>
   <v>       0.03125000 </v>
   <v>       0.03125000 </v>
   <v>       0.03125000 </v>
   <v>       0.03125000 </v>
   <v>       0.03125000 </v>
   <v>       0.03125000 </v>
   <v>       0.03125000 </v>
   <v>       0.01562500 </v>
   <v>       0.03125000 </v>
   <v>       0.03125000 </v>
   <v>       0.03125000 </v>
   <v>       0.01562500 </v>
  </varray>
 </kpoints>
 <parameters>
  <separator name="general" >
   <i type="string" name="SYSTEM">unknown system</i>
   <i type="logical" name="LCOMPAT"> F  </i>
  </separator>
  <separator name="electronic" >
   <i type="string" name="PREC">normal</i>
   <i name="ENMAX">    280.00000000</i>
   <i name="ENAUG">    373.43800000</i>
   <i name="EDIFF">      0.00010000</i>
   <i type="int" name="IALGO">    38</i>
   <i type="int" name="IWAVPR">    11</i>
   <i type="int" name="NBANDS">   120</i>
   <i name="NELECT">    159.00000000</i>
   <i type="int" name="TURBO">     0</i>
   <i type="int" name="IRESTART">     0</i>
   <i type="int" name="NREBOOT">     0</i>
   <i type="int" name="NMIN">     0</i>
   <i name="EREF">      0.00000000</i>
   <separator name="electronic smearing" >
    <i type="int" name="ISMEAR">     0</i>
    <i name="SIGMA">      0.20000000</i>
    <i name="KSPACING">      0.50000000</i>
    <i type="logical" name="KGAMMA"> T  </i>
   </separator>
   <separator name="electronic projectors" >
    <i type="logical" name="LREAL"> F  </i>
    <v name="ROPT">      0.00000000      0.00000000      0.00000000      0.00000000</v>
    <i type="int" name="LMAXPAW">  -100</i>
    <i type="int" name="LMAXMIX">     2</i>
    <i type="logical" name="NLSPLINE"> F  </i>
   </separator>
   <separator name="electronic startup" >
    <i type="int" name="ISTART">     0</i>
    <i type="int" name="ICHARG">     2</i>
    <i type="int" name="INIWAV">     1</i>
   </separator>
   <separator name="electronic spin" >
    <i type="int" name="ISPIN">     1</i>
    <i type="logical" name="LNONCOLLINEAR"> F  </i>
    <v name="MAGMOM">      1.00000000      1.00000000      1.00000000      1.00000000      1.00000000      1.00000000      1.00000000      1.00000000      1.00000000      1.00000000      1.00000000      1.00000000      1.00000000      1.00000000      1.00000000      1.00000000      1.00000000      1.00000000      1.00000000      1.00000000
      1.00000000      1.00000000      1.00000000      1.00000000      1.00000000      1.00000000      1.00000000</v>
    <i name="NUPDOWN">     -1.00000000</i>
    <i type="logical" name="LSORBIT"> F  </i>
    <v name="SAXIS">      0.00000000      0.00000000      1.00000000</v>
    <i type="logical" name="LSPIRAL"> F  </i>
    <v name="QSPIRAL">      0.00000000      0.00000000      0.00000000</v>
    <i type="logical" name="LZEROZ"> F  </i>
   </separator>
   <separator name="electronic exchange-correlation" >
    <i type="logical" name="LASPH"> F  </i>
    <i type="logical" name="LMETAGGA"> F  </i>
   </separator>
   <separator name="electronic convergence" >
    <i type="int" name="NELM">    60</i>
    <i type="int" name="NELMDL">    -5</i>
    <i type="int" name="NELMIN">     2</i>
    <i name="ENINI">    280.00000000</i>
    <separator name="electronic convergence detail" >
     <i type="logical" name="LDIAG"> T  </i>
     <i type="logical" name="LSUBROT"> F  </i>
     <i name="WEIMIN">      0.00100000</i>
     <i name="EBREAK">      0.00000021</i>
     <i name="DEPER">      0.30000000</i>
     <i type="int" name="NRMM">     4</i>
     <i name="TIME">      0.40000000</i>
    </separator>
   </separator>
   <separator name="electronic mixer" >
    <i name="AMIX">      0.40000000</i>
    <i name="BMIX">      1.00000000</i>
    <i name="AMIN">      0.10000000</i>
    <i name="AMIX_MAG">      1.60000000</i>
    <i name="BMIX_MAG">      1.00000000</i>
    <separator name="electronic mixer details" >
     <i type="int" name="IMIX">     4</i>
     <i type="logical" name="MIXFIRST"> F  </i>
     <i type="int" name="MAXMIX">   -45</i>
     <i name="WC">    100.00000000</i>
     <i type="int" name="INIMIX">     1</i>
     <i type="int" name="MIXPRE">     1</i>
     <i type="int" name="MREMOVE">     5</i>
    </separator>
   </separator>
   <separator name="electronic dipolcorrection" >
    <i type="logical" name="LDIPOL"> F  </i>
    <i type="logical" name="LMONO"> F  </i>
    <i type="int" name="IDIPOL">     0</i>
    <i name="EPSILON">      1.00000000</i>
    <v name="DIPOL">   -100.00000000   -100.00000000   -100.00000000</v>
    <i name="EFIELD">      0.00000000</i>
   </separator>
  </separator>
  <separator name="grids" >
   <i type="int" name="NGX">    42</i>
   <i type="int" name="NGY">    42</i>
   <i type="int" name="NGZ">   126</i>
   <i type="int" name="NGXF">    84</i>
   <i type="int" name="NGYF">    84</i>
   <i type="int" name="NGZF">   252</i>
   <i type="logical" name="ADDGRID"> F  </i>
  </separator>
  <separator name="ionic" >
   <i type="int" name="NSW">   100</i>
   <i type="int" name="IBRION">     1</i>
   <i type="int" name="ISIF">     3</i>
   <i name="PSTRESS">      0.00000000</i>
   <i name="EDIFFG">      0.00100000</i>
   <i type="int" name="NFREE">     0</i>
   <i name="POTIM">      0.50000000</i>
   <i name="SMASS">     -3.00000000</i>
   <i name="SCALEE">      1.00000000</i>
  </separator>
  <separator name="ionic md" >
   <i name="TEBEG">      0.00010000</i>
   <i name="TEEND">      0.00010000</i>
   <i type="int" name="NBLOCK">     1</i>
   <i type="int" name="KBLOCK">   100</i>
   <i type="int" name="NPACO">   256</i>
   <i name="APACO">     16.00000000</i>
  </separator>
  <separator name="symmetry" >
   <i type="int" name="ISYM">     0</i>
   <i name="SYMPREC">      0.00000001</i>
  </separator>
  <separator name="dos" >
   <i type="logical" name="LORBIT"> F  </i>
   <v name="RWIGS">     -1.00000000     -1.00000000     -1.00000000     -1.00000000</v>
   <i type="int" name="NEDOS">   301</i>
   <i name="EMIN">     10.00000000</i>
   <i name="EMAX">    -10.00000000</i>
   <i name="EFERMI">      0.00000000</i>
  </separator>
  <separator name="writing" >
   <i type="int" name="NWRITE">     2</i>
   <i type="logical" name="LWAVE"> F  </i>
   <i type="logical" name="LCHARG"> F  </i>
   <i type="logical" name="LPARD"> F  </i>
   <i type="logical" name="LVTOT"> F  </i>
   <i type="logical" name="LVHAR"> F  </i>
   <i type="logical" name="LELF"> F  </i>
   <i type="logical" name="LOPTICS"> F  </i>
   <v name="STM">      0.00000000      0.00000000      0.00000000      0.00000000      0.00000000      0.00000000      0.00000000</v>
  </separator>
  <separator name="performance" >
   <i type="int" name="NPAR">    40</i>
   <i type="int" name="NSIM">     4</i>
   <i type="int" name="NBLK">    -1</i>
   <i type="logical" name="LPLANE"> F  </i>
   <i type="logical" name="LSCALAPACK"> T  </i>
   <i type="logical" name="LSCAAWARE"> F  </i>
   <i type="logical" name="LSCALU"> F  </i>
   <i type="logical" name="LASYNC"> F  </i>
   <i type="logical" name="LORBITALREAL"> F  </i>
  </separator>
  <separator name="miscellaneous" >
   <i type="int" name="IDIOT">     3</i>
   <i type="logical" name="LMUSIC"> F  </i>
   <v name="POMASS">     50.94100000     95.94000000    183.85000000     32.06600000</v>
   <v name="DARWINR">      0.00000000      0.00000000      0.00000000      0.00000000</v>
   <v name="DARWINV">      1.00000000      1.00000000      1.00000000      1.00000000</v>
   <i type="logical" name="LCORR"> T  </i>
  </separator>
  <i type="logical" name="GGA_COMPAT"> T  </i>
  <i type="logical" name="LBERRY"> F  </i>
  <i type="int" name="ICORELEVEL">     0</i>
  <i type="logical" name="LDAU"> F  </i>
  <i type="int" name="I_CONSTRAINED_M">     0</i>
  <separator name="electronic exchange-correlation" >
   <i type="string" name="GGA">--</i>
   <i type="int" name="VOSKOWN">     0</i>
   <i type="logical" name="LHFCALC"> F  </i>
   <i type="string" name="PRECFOCK"></i>
   <i type="logical" name="LSYMGRAD"> F  </i>
   <i type="logical" name="LHFONE"> F  </i>
   <i type="logical" name="LRHFCALC"> F  </i>
   <i type="logical" name="LTHOMAS"> F  </i>
   <i type="logical" name="LMODELHF"> F  </i>
   <i name="ENCUT4O">     -1.00000000</i>
   <i type="int" name="EXXOEP">     0</i>
   <i type="int" name="FOURORBIT">     0</i>
   <i name="AEXX">      0.00000000</i>
   <i name="HFALPHA">      0.00000000</i>
   <i name="MCALPHA">      0.00000000</i>
   <i name="ALDAX">      1.00000000</i>
   <i name="AGGAX">      1.00000000</i>
   <i name="ALDAC">      1.00000000</i>
   <i name="AGGAC">      1.00000000</i>
   <i type="int" name="NKREDX">     1</i>
   <i type="int" name="NKREDY">     1</i>
   <i type="int" name="NKREDZ">     1</i>
   <i type="logical" name="SHIFTRED"> F  </i>
   <i type="logical" name="ODDONLY"> F  </i>
   <i type="logical" name="EVENONLY"> F  </i>
   <i type="int" name="LMAXFOCK">     0</i>
   <i type="int" name="NMAXFOCKAE">     0</i>
   <i type="logical" name="LFOCKAEDFT"> F  </i>
   <i name="HFSCREEN">      0.00000000</i>
   <i name="HFSCREENC">      0.00000000</i>
   <i type="int" name="NBANDSGWLOW">     0</i>
  </separator>
  <separator name="vdW DFT" >
   <i type="logical" name="LUSE_VDW"> F  </i>
   <i name="Zab_VDW">     -0.84910000</i>
   <i name="PARAM1">      0.12340000</i>
   <i name="PARAM2">      1.00000000</i>
   <i name="PARAM3">      0.00000000</i>
  </separator>
  <separator name="model GW" >
   <i type="int" name="MODEL_GW">     0</i>
   <i name="MODEL_EPS0">     58.26239943</i>
   <i name="MODEL_ALPHA">      1.00000000</i>
  </separator>
  <separator name="linear response parameters" >
   <i type="logical" name="LEPSILON"> F  </i>
   <i type="logical" name="LRPA"> F  </i>
   <i type="logical" name="LNABLA"> F  </i>
   <i type="logical" name="LVEL"> F  </i>
   <i type="int" name="KINTER">     0</i>
   <i name="CSHIFT">      0.10000000</i>
   <i name="OMEGAMAX">     -1.00000000</i>
   <i name="DEG_THRESHOLD">      0.00200000</i>
  </separator>
  <separator name="orbital magnetization" >
   <i type="logical" name="NUCIND"> F  </i>
   <v name="MAGPOS">      0.00000000      0.00000000      0.00000000</v>
   <i type="logical" name="LNICSALL"> T  </i>
   <i type="logical" name="ORBITALMAG"> F  </i>
   <i type="logical" name="LMAGBLOCH"> F  </i>
   <i type="logical" name="LCHIMAG"> F  </i>
   <i type="logical" name="LGAUGE"> T  </i>
   <i type="int" name="MAGATOM">     0</i>
   <v name="MAGDIPOL">      0.00000000      0.00000000      0.00000000</v>
   <v name="AVECCONST">      0.00000000      0.00000000      0.00000000</v>
  </separator>
  <separator name="response functions" >
   <i type="logical" name="LADDER"> F  </i>
   <i type="logical" name="LFXC"> F  </i>
   <i type="logical" name="LHARTREE"> T  </i>
   <i type="int" name="IBSE">     0</i>
   <v type="int" name="KPOINT">    -1     0     0     0</v>
   <i type="logical" name="LTCTE"> F  </i>
   <i type="logical" name="LTETE"> F  </i>
   <i type="logical" name="LTRIPLET"> F  </i>
   <i type="logical" name="LFXCEPS"> F  </i>
   <i type="logical" name="LFXHEG"> F  </i>
   <i type="int" name="NATURALO">     0</i>
   <i type="logical" name="L2ORDER"> F  </i>
   <i type="logical" name="LUSEW"> F  </i>
   <i name="ENCUTGW">     -2.00000000</i>
   <i name="ENCUTGWSOFT">     -2.00000000</i>
   <i name="ENCUTLF">     -1.00000000</i>
   <i type="int" name="LMAXMP2">    -1</i>
   <i name="SCISSOR">      0.00000000</i>
   <i type="int" name="NOMEGA">     0</i>
   <i type="int" name="NOMEGAR">     0</i>
   <i type="int" name="NBANDSGW">    -1</i>
   <i type="int" name="NBANDSO">    -1</i>
   <i type="int" name="NBANDSV">    -1</i>
   <i type="int" name="NELM">     1</i>
   <i type="int" name="NELMHF">     1</i>
   <i type="int" name="DIM">     3</i>
   <i type="int" name="ANTIRES">     0</i>
   <i name="OMEGAMAX">    -30.00000000</i>
   <i name="OMEGAMIN">    -30.00000000</i>
   <i name="OMEGATL">   -200.00000000</i>
   <i type="int" name="OMEGAGRID">     0</i>
   <i name="CSHIFT">     -0.10000000</i>
   <i type="logical" name="SELFENERGY"> F  </i>
   <i type="logical" name="LSPECTRAL"> F  </i>
   <i type="logical" name="LSPECTRALGW"> F  </i>
   <i type="logical" name="LSINGLES"> F  </i>
   <i type="logical" name="LFERMIGW"> F  </i>
   <i type="logical" name="ODDONLYGW"> F  </i>
   <i type="logical" name="EVENONLYGW"> F  </i>
   <i type="int" name="NKREDLFX">     1</i>
   <i type="int" name="NKREDLFY">     1</i>
   <i type="int" name="NKREDLFZ">     1</i>
   <i type="int" name="MAXMEM">  1800</i>
   <i type="int" name="TELESCOPE">     0</i>
   <i type="int" name="TAUPAR">     1</i>
   <i type="int" name="OMEGAPAR">    -1</i>
   <i name="LAMBDA">      1.00000000</i>
  </separator>
  <separator name="External order field" >
   <i name="OFIELD_KAPPA">      0.00000000</i>
   <v name="OFIELD_K">      0.00000000      0.00000000      0.00000000</v>
   <i name="OFIELD_Q6_NEAR">      0.00000000</i>
   <i name="OFIELD_Q6_FAR">      0.00000000</i>
   <i name="OFIELD_A">      0.00000000</i>
  </separator>
 </parameters>
 <atominfo>
  <atoms>      27 </atoms>
  <types>       4 </types>
  <array name="atoms" >
   <dimension dim="1">ion</dimension>
   <field type="string">element</field>
   <field type="int">atomtype</field>
   <set>
    <rc><c>V </c><c>   1</c></rc>
    <rc><c>V </c><c>   1</c></rc>
    <rc><c>V </c><c>   1</c></rc>
    <rc><c>Mo</c><c>   2</c></rc>
    <rc><c>Mo</c><c>   2</c></rc>
    <rc><c>Mo</c><c>   2</c></rc>
    <rc><c>W </c><c>   3</c></rc>
    <rc><c>W </c><c>   3</c></rc>
    <rc><c>W </c><c>   3</c></rc>
    <rc><c>S </c><c>   4</c></rc>
    <rc><c>S </c><c>   4</c></rc>
    <rc><c>S </c><c>   4</c></rc>
    <rc><c>S </c><c>   4</c></rc>
    <rc><c>S </c><c>   4</c></rc>
    <rc><c>S </c><c>   4</c></rc>
    <rc><c>S </c><c>   4</c></rc>
    <rc><c>S </c><c>   4</c></rc>
    <rc><c>S </c><c>   4</c></rc>
    <rc><c>S </c><c>   4</c></rc>
    <rc><c>S </c><c>   4</c></rc>
    <rc><c>S </c><c>   4</c></rc>
    <rc><c>S </c><c>   4</c></rc>
    <rc><c>S </c><c>   4</c></rc>
    <rc><c>S </c><c>   4</c></rc>
    <rc><c>S </c><c>   4</c></rc>
    <rc><c>S </c><c>   4</c></rc>
    <rc><c>S </c><c>   4</c></rc>
   </set>
  </array>
  <array name="atomtypes" >
   <dimension dim="1">type</dimension>
   <field type="int">atomspertype</field>
   <field type="string">element</field>
   <field>mass</field>
   <field>valence</field>
   <field type="string">pseudopotential</field>
   <set>
    <rc><c>   3</c><c>V </c><c>     50.94100000</c><c>      5.00000000</c><c> PAW_PBE V 08Apr2002                    </c></rc>
    <rc><c>   3</c><c>Mo</c><c>     95.94000000</c><c>      6.00000000</c><c> PAW_PBE Mo 08Apr2002                   </c></rc>
    <rc><c>   3</c><c>W </c><c>    183.85000000</c><c>      6.00000000</c><c> PAW_PBE W 08Apr2002                    </c></rc>
    <rc><c>  18</c><c>S </c><c>     32.06600000</c><c>      6.00000000</c><c>  PAW_PBE S 17Jan2003                   </c></rc>
   </set>
  </array>
 </atominfo>
 <structure name="initialpos" >
  <crystal>
   <varray name="basis" >
    <v>       8.66999996       5.03999989       0.00000000 </v>
    <v>      -8.66999982       5.04000013       0.00000000 </v>
    <v>       0.00000000       0.00000000      30.00000000 </v>
   </varray>
   <i name="volume">   2621.80797419 </i>
   <varray name="rec_basis" >
    <v>       0.05767013       0.09920635       0.00000000 </v>
    <v>      -0.05767013       0.09920635       0.00000000 </v>
    <v>       0.00000000       0.00000000       0.03333333 </v>
   </varray>
  </crystal>
  <varray name="positions" >
   <v>       0.66666669       0.33333334       0.00000000 </v>
   <v>       1.00000000       0.33333334       0.00000000 </v>
   <v>       0.33333334       0.33333334       0.00000000 </v>
   <v>       0.66666669       0.66666669       0.00000000 </v>
   <v>       0.33333334       0.66666669       0.00000000 </v>
   <v>       0.66666669       0.00000000       0.00000000 </v>
   <v>       0.00000000       0.00000000       0.00000000 </v>
   <v>       0.00000000       0.66666669       0.00000000 </v>
   <v>       0.33333334       0.00000000       0.00000000 </v>
   <v>       0.11068511       0.22244981       0.95539999 </v>
   <v>       0.22244981       0.11068511       0.04460000 </v>
   <v>       0.11068511       0.55578315       0.95539999 </v>
   <v>       0.22244981       0.44401845       0.04460000 </v>
   <v>       0.11068511       0.88911647       0.95539999 </v>
   <v>       0.22244981       0.77735180       0.04460000 </v>
   <v>       0.44401845       0.22244981       0.95539999 </v>
   <v>       0.55578315       0.11068511       0.04460000 </v>
   <v>       0.44401845       0.55578315       0.95539999 </v>
   <v>       0.55578315       0.44401845       0.04460000 </v>
   <v>       0.44401845       0.88911647       0.95539999 </v>
   <v>       0.55578315       0.77735180       0.04460000 </v>
   <v>       0.77735180       0.22244981       0.95539999 </v>
   <v>       0.88911647       0.11068511       0.04460000 </v>
   <v>       0.77735180       0.55578315       0.95539999 </v>
   <v>       0.88911647       0.44401845       0.04460000 </v>
   <v>       0.77735180       0.88911647       0.95539999 </v>
   <v>       0.88911647       0.77735180       0.04460000 </v>
  </varray>
 </structure>
 <calculation>
  <scstep>
   <time name="dav">   21.71   21.77</time>
   <time name="total">   21.76   21.82</time>
   <energy>
    <i name="alphaZ">     81.65567618 </i>
    <i name="ewald">  41891.19379415 </i>
    <i name="hartreedc"> -47723.83914480 </i>
    <i name="XCdc">   -242.92452215 </i>
    <i name="pawpsdc">   3467.42045192 </i>
    <i name="pawaedc">  -2871.19716117 </i>
    <i name="eentropy">     -0.52680391 </i>
    <i name="bandstr">   -239.81974969 </i>
    <i name="atom">   6761.44252427 </i>
    <i name="e_fr_energy">   1123.40506480 </i>
    <i name="e_wo_entrp">   1123.93186871 </i>
    <i name="e_0_energy">   1123.66846676 </i>
   </energy>
  </scstep>
  <scstep>
   <time name="dav">   28.09   28.16</time>
   <time name="total">   28.09   28.17</time>
   <energy>
    <i name="e_fr_energy">     -1.09943192 </i>
    <i name="e_wo_entrp">     -0.89887725 </i>
    <i name="e_0_energy">     -0.99915458 </i>
   </energy>
  </scstep>
  <scstep>
   <time name="dav">   27.49   27.56</time>
   <time name="total">   27.49   27.57</time>
   <energy>
    <i name="e_fr_energy">   -199.53009423 </i>
    <i name="e_wo_entrp">   -199.26526037 </i>
    <i name="e_0_energy">   -199.39767730 </i>
   </energy>
  </scstep>
  <scstep>
   <time name="dav">   30.04   30.11</time>
   <time name="total">   30.04   30.12</time>
   <energy>
    <i name="e_fr_energy">   -209.01819876 </i>
    <i name="e_wo_entrp">   -208.74019729 </i>
    <i name="e_0_energy">   -208.87919803 </i>
   </energy>
  </scstep>
  <scstep>
   <time name="dav">   28.75   28.82</time>
   <time name="total">   29.23   29.30</time>
   <energy>
    <i name="e_fr_energy">   -209.35522567 </i>
    <i name="e_wo_entrp">   -209.08029135 </i>
    <i name="e_0_energy">   -209.21775851 </i>
   </energy>
  </scstep>
  <scstep>
   <time name="dav">   30.93   31.01</time>
   <time name="total">   31.44   31.52</time>
   <energy>
    <i name="e_fr_energy">   -240.93937467 </i>
    <i name="e_wo_entrp">   -240.66460414 </i>
    <i name="e_0_energy">   -240.80198941 </i>
   </energy>
  </scstep>
  <scstep>
   <time name="dav">   32.25   32.33</time>
   <time name="total">   32.76   32.85</time>
   <energy>
    <i name="e_fr_energy">   -196.27496144 </i>
    <i name="e_wo_entrp">   -195.94413692 </i>
    <i name="e_0_energy">   -196.10954918 </i>
   </energy>
  </scstep>
  <scstep>
   <time name="dav">   29.76   29.83</time>
   <time name="total">   30.28   30.36</time>
   <energy>
    <i name="e_fr_energy">   -189.53121387 </i>
    <i name="e_wo_entrp">   -189.19426361 </i>
    <i name="e_0_energy">   -189.36273874 </i>
   </energy>
  </scstep>
  <scstep>
   <time name="dav">   31.16   31.23</time>
   <time name="total">   31.68   31.77</time>
   <energy>
    <i name="e_fr_energy">   -188.08289379 </i>
    <i name="e_wo_entrp">   -187.73731657 </i>
    <i name="e_0_energy">   -187.91010518 </i>
   </energy>
  </scstep>
  <scstep>
   <time name="dav">   32.51   32.59</time>
   <time name="total">   33.05   33.14</time>
   <energy>
    <i name="e_fr_energy">   -186.92917915 </i>
    <i name="e_wo_entrp">   -186.57535127 </i>
    <i name="e_0_energy">   -186.75226521 </i>
   </energy>
  </scstep>
  <scstep>
   <time name="dav">   32.45   32.53</time>
   <time name="total">   32.99   33.08</time>
   <energy>
    <i name="e_fr_energy">   -187.07759814 </i>
    <i name="e_wo_entrp">   -186.73855932 </i>
    <i name="e_0_energy">   -186.90807873 </i>
   </energy>
  </scstep>
  <scstep>
   <time name="dav">   31.18   31.25</time>
   <time name="total">   31.72   31.81</time>
   <energy>
    <i name="e_fr_energy">   -186.92427287 </i>
    <i name="e_wo_entrp">   -186.58358264 </i>
    <i name="e_0_energy">   -186.75392776 </i>
   </energy>
  </scstep>
  <scstep>
   <time name="dav">   32.05   32.13</time>
   <time name="total">   32.60   32.69</time>
   <energy>
    <i name="e_fr_energy">   -186.85514954 </i>
    <i name="e_wo_entrp">   -186.51076587 </i>
    <i name="e_0_energy">   -186.68295770 </i>
   </energy>
  </scstep>
  <scstep>
   <time name="dav">   31.14   31.22</time>
   <time name="total">   31.69   31.77</time>
   <energy>
    <i name="e_fr_energy">   -186.84298132 </i>
    <i name="e_wo_entrp">   -186.49679814 </i>
    <i name="e_0_energy">   -186.66988973 </i>
   </energy>
  </scstep>
  <scstep>
   <time name="dav">   32.08   32.16</time>
   <time name="total">   32.62   32.71</time>
   <energy>
    <i name="e_fr_energy">   -186.82967692 </i>
    <i name="e_wo_entrp">   -186.48258717 </i>
    <i name="e_0_energy">   -186.65613204 </i>
   </energy>
  </scstep>
  <scstep>
   <time name="dav">   30.37   30.44</time>
   <time name="total">   30.91   30.99</time>
   <energy>
    <i name="e_fr_energy">   -186.82744851 </i>
    <i name="e_wo_entrp">   -186.48081152 </i>
    <i name="e_0_energy">   -186.65413001 </i>
   </energy>
  </scstep>
  <scstep>
   <time name="dav">   30.99   31.07</time>
   <time name="total">   31.54   31.63</time>
   <energy>
    <i name="e_fr_energy">   -186.82612982 </i>
    <i name="e_wo_entrp">   -186.48031055 </i>
    <i name="e_0_energy">   -186.65322018 </i>
   </energy>
  </scstep>
  <scstep>
   <time name="dav">   31.09   31.17</time>
   <time name="total">   31.63   31.72</time>
   <energy>
    <i name="e_fr_energy">   -186.82563008 </i>
    <i name="e_wo_entrp">   -186.47939875 </i>
    <i name="e_0_energy">   -186.65251441 </i>
   </energy>
  </scstep>
  <scstep>
   <time name="dav">   26.46   26.53</time>
   <time name="total">   27.01   27.08</time>
   <energy>
    <i name="e_fr_energy">   -186.82627857 </i>
    <i name="e_wo_entrp">   -186.48045173 </i>
    <i name="e_0_energy">   -186.65336515 </i>
   </energy>
  </scstep>
  <scstep>
   <time name="dav">   20.47   20.52</time>
   <time name="total">   21.02   21.07</time>
   <energy>
    <i name="e_fr_energy">   -186.82674314 </i>
    <i name="e_wo_entrp">   -186.48098165 </i>
    <i name="e_0_energy">   -186.65386239 </i>
   </energy>
  </scstep>
  <scstep>
   <time name="dav">   20.18   20.23</time>
   <time name="total">   20.72   20.78</time>
   <energy>
    <i name="e_fr_energy">   -186.82780899 </i>
    <i name="e_wo_entrp">   -186.48199369 </i>
    <i name="e_0_energy">   -186.65490134 </i>
   </energy>
  </scstep>
  <scstep>
   <time name="dav">   21.66   21.71</time>
   <time name="total">   22.20   22.26</time>
   <energy>
    <i name="e_fr_energy">   -186.82889956 </i>
    <i name="e_wo_entrp">   -186.48306301 </i>
    <i name="e_0_energy">   -186.65598128 </i>
   </energy>
  </scstep>
  <scstep>
   <time name="dav">   17.62   17.67</time>
   <time name="total">   18.17   18.22</time>
   <energy>
    <i name="e_fr_energy">   -186.82936769 </i>
    <i name="e_wo_entrp">   -186.48353204 </i>
    <i name="e_0_energy">   -186.65644986 </i>
   </energy>
  </scstep>
  <scstep>
   <time name="dav">   19.70   19.75</time>
   <time name="total">   20.25   20.30</time>
   <energy>
    <i name="e_fr_energy">   -186.83001387 </i>
    <i name="e_wo_entrp">   -186.48417633 </i>
    <i name="e_0_energy">   -186.65709510 </i>
   </energy>
  </scstep>
  <scstep>
   <time name="dav">   18.18   18.23</time>
   <time name="total">   18.72   18.78</time>
   <energy>
    <i name="e_fr_energy">   -186.83036366 </i>
    <i name="e_wo_entrp">   -186.48451295 </i>
    <i name="e_0_energy">   -186.65743831 </i>
   </energy>
  </scstep>
  <scstep>
   <time name="dav">   18.99   19.04</time>
   <time name="total">   19.53   19.59</time>
   <energy>
    <i name="e_fr_energy">   -186.83060763 </i>
    <i name="e_wo_entrp">   -186.48476801 </i>
    <i name="e_0_energy">   -186.65768782 </i>
   </energy>
  </scstep>
  <scstep>
   <time name="dav">   20.70   20.75</time>
   <time name="total">   20.74   20.79</time>
   <energy>
    <i name="alphaZ">     81.65567618 </i>
    <i name="ewald">  41891.19379415 </i>
    <i name="hartreedc"> -47833.69802609 </i>
    <i name="XCdc">   -231.60754179 </i>
    <i name="pawpsdc">   4192.07309402 </i>
    <i name="pawaedc">  -3610.07343527 </i>
    <i name="eentropy">     -0.34583928 </i>
    <i name="bandstr">  -1437.47092323 </i>
    <i name="atom">   6761.44252427 </i>
    <i name="e_fr_energy">   -186.83067704 </i>
    <i name="e_wo_entrp">   -186.48483776 </i>
    <i name="e_0_energy">   -186.65775740 </i>
   </energy>
  </scstep>
  <structure>
   <crystal>
    <varray name="basis" >
     <v>       8.66999996       5.03999989       0.00000000 </v>
     <v>      -8.66999982       5.04000013       0.00000000 </v>
     <v>       0.00000000       0.00000000      30.00000000 </v>
    </varray>
    <i name="volume">   2621.80797419 </i>
    <varray name="rec_basis" >
     <v>       0.05767013       0.09920635       0.00000000 </v>
     <v>      -0.05767013       0.09920635       0.00000000 </v>
     <v>       0.00000000       0.00000000       0.03333333 </v>
    </varray>
   </crystal>
   <varray name="positions" >
    <v>       0.66666669       0.33333334       0.00000000 </v>
    <v>       1.00000000       0.33333334       0.00000000 </v>
    <v>       0.33333334       0.33333334       0.00000000 </v>
    <v>       0.66666669       0.66666669       0.00000000 </v>
    <v>       0.33333334       0.66666669       0.00000000 </v>
    <v>       0.66666669       0.00000000       0.00000000 </v>
    <v>       0.00000000       0.00000000       0.00000000 </v>
    <v>       0.00000000       0.66666669       0.00000000 </v>
    <v>       0.33333334       0.00000000       0.00000000 </v>
    <v>       0.11068511       0.22244981       0.95539999 </v>
    <v>       0.22244981       0.11068511       0.04460000 </v>
    <v>       0.11068511       0.55578315       0.95539999 </v>
    <v>       0.22244981       0.44401845       0.04460000 </v>
    <v>       0.11068511       0.88911647       0.95539999 </v>
    <v>       0.22244981       0.77735180       0.04460000 </v>
    <v>       0.44401845       0.22244981       0.95539999 </v>
    <v>       0.55578315       0.11068511       0.04460000 </v>
    <v>       0.44401845       0.55578315       0.95539999 </v>
    <v>       0.55578315       0.44401845       0.04460000 </v>
    <v>       0.44401845       0.88911647       0.95539999 </v>
    <v>       0.55578315       0.77735180       0.04460000 </v>
    <v>       0.77735180       0.22244981       0.95539999 </v>
    <v>       0.88911647       0.11068511       0.04460000 </v>
    <v>       0.77735180       0.55578315       0.95539999 </v>
    <v>       0.88911647       0.44401845       0.04460000 </v>
    <v>       0.77735180       0.88911647       0.95539999 </v>
    <v>       0.88911647       0.77735180       0.04460000 </v>
   </varray>
  </structure>
  <varray name="forces" >
   <v>       0.00952619      -0.01225441      -0.02782581 </v>
   <v>       0.00951649      -0.01353813      -0.02644729 </v>
   <v>      -0.22841749       0.37878546       0.05662957 </v>
   <v>      -0.49876473      -0.02929221       0.13697306 </v>
   <v>       0.27833231       0.39420707       0.13236885 </v>
   <v>       0.23618257      -0.39449163      -0.17382506 </v>
   <v>      -0.34375020      -0.39841774      -0.11422809 </v>
   <v>       0.05078016      -0.07558233       0.09176846 </v>
   <v>       0.51528215       0.07619556      -0.12012653 </v>
   <v>      -0.23827764       0.52152046      -1.41523544 </v>
   <v>      -0.46531204       0.56645720       2.09359095 </v>
   <v>       0.37047940      -0.69264991      -2.11339526 </v>
   <v>       0.32608601      -0.66059365       1.40909744 </v>
   <v>       0.10908966       0.04348555      -2.92648880 </v>
   <v>      -0.26060811      -0.03262578       2.91561334 </v>
   <v>      -0.23847072       0.52253515      -1.41199868 </v>
   <v>      -0.62458006       0.56078254       2.14827380 </v>
   <v>       0.53499935      -0.70533274      -2.16716886 </v>
   <v>       0.31606379      -0.66797383       1.40576549 </v>
   <v>      -0.06988384       0.03647675      -2.92929945 </v>
   <v>      -0.09609909      -0.03153881       2.94197456 </v>
   <v>      -0.32543212       0.66871298      -1.38126002 </v>
   <v>      -0.37352405       0.71133288       2.15650584 </v>
   <v>       0.61415904      -0.54732707      -2.10521308 </v>
   <v>       0.23319183      -0.51535179       1.43261447 </v>
   <v>       0.18810377       0.19026785      -2.92746669 </v>
   <v>      -0.02867263       0.10621060       2.91880323 </v>
  </varray>
  <varray name="stress" >
   <v>       7.27064054      -0.13421654      -1.56551685 </v>
   <v>      -0.13421654       4.50431878      -0.00062509 </v>
   <v>      -1.56551692      -0.00062511      30.31227749 </v>
  </varray>
  <energy>
   <i name="e_fr_energy">   -186.83067704 </i>
   <i name="e_wo_entrp">   -186.65775740 </i>
   <i name="e_0_energy">     -0.34583928 </i>
  </energy>
  <time name="totalsc">  782.24  784.34</time>
 </calculation>
 <calculation>
  <scstep>
   <time name="dav">   21.66   21.71</time>
   <time name="total">   22.21   22.27</time>
   <energy>
    <i name="alphaZ">     78.91661892 </i>
    <i name="ewald">  39376.57424079 </i>
    <i name="hartreedc"> -45333.83805425 </i>
    <i name="XCdc">   -239.07970319 </i>
    <i name="pawpsdc">   4192.05021666 </i>
    <i name="pawaedc">  -3610.05092174 </i>
    <i name="eentropy">     -0.28810306 </i>
    <i name="bandstr">  -1413.24923929 </i>
    <i name="atom">   6761.44252427 </i>
    <i name="e_fr_energy">   -187.52242088 </i>
    <i name="e_wo_entrp">   -187.23431783 </i>
    <i name="e_0_energy">   -187.37836936 </i>
   </energy>
  </scstep>
  <scstep>
   <time name="dav">   30.30   30.37</time>
   <time name="total">   30.84   30.92</time>
   <energy>
    <i name="e_fr_energy">   -189.50758453 </i>
    <i name="e_wo_entrp">   -189.18103583 </i>
    <i name="e_0_energy">   -189.34431018 </i>
   </energy>
  </scstep>
  <scstep>
   <time name="dav">   30.83   30.90</time>
   <time name="total">   31.39   31.48</time>
   <energy>
    <i name="e_fr_energy">   -189.34960473 </i>
    <i name="e_wo_entrp">   -189.07509751 </i>
    <i name="e_0_energy">   -189.21235112 </i>
   </energy>
  </scstep>
  <scstep>
   <time name="dav">   31.35   31.42</time>
   <time name="total">   31.90   31.98</time>
   <energy>
    <i name="e_fr_energy">   -188.77269915 </i>
    <i name="e_wo_entrp">   -188.48615300 </i>
    <i name="e_0_energy">   -188.62942607 </i>
   </energy>
  </scstep>
  <scstep>
   <time name="dav">   26.36   26.43</time>
   <time name="total">   26.91   26.99</time>
   <energy>
    <i name="e_fr_energy">   -188.73058522 </i>
    <i name="e_wo_entrp">   -188.44422217 </i>
    <i name="e_0_energy">   -188.58740369 </i>
   </energy>
  </scstep>
  <scstep>
   <time name="dav">   32.40   32.48</time>
   <time name="total">   32.95   33.03</time>
   <energy>
    <i name="e_fr_energy">   -188.77929813 </i>
    <i name="e_wo_entrp">   -188.49028736 </i>
    <i name="e_0_energy">   -188.63479275 </i>
   </energy>
  </scstep>
  <scstep>
   <time name="dav">   31.37   31.45</time>
   <time name="total">   31.92   32.00</time>
   <energy>
    <i name="e_fr_energy">   -188.71217893 </i>
    <i name="e_wo_entrp">   -188.42579493 </i>
    <i name="e_0_energy">   -188.56898693 </i>
   </energy>
  </scstep>
  <scstep>
   <time name="dav">   28.55   28.62</time>
   <time name="total">   29.10   29.18</time>
   <energy>
    <i name="e_fr_energy">   -188.68891002 </i>
    <i name="e_wo_entrp">   -188.40336170 </i>
    <i name="e_0_energy">   -188.54613586 </i>
   </energy>
  </scstep>
  <scstep>
   <time name="dav">   30.89   30.97</time>
   <time name="total">   31.44   31.52</time>
   <energy>
    <i name="e_fr_energy">   -188.68992682 </i>
    <i name="e_wo_entrp">   -188.40459897 </i>
    <i name="e_0_energy">   -188.54726290 </i>
   </energy>
  </scstep>
  <scstep>
   <time name="dav">   31.88   31.96</time>
   <time name="total">   32.43   32.52</time>
   <energy>
    <i name="e_fr_energy">   -188.68783114 </i>
    <i name="e_wo_entrp">   -188.40290510 </i>
    <i name="e_0_energy">   -188.54536812 </i>
   </energy>
  </scstep>
  <scstep>
   <time name="dav">   28.93   29.00</time>
   <time name="total">   29.48   29.56</time>
   <energy>
    <i name="e_fr_energy">   -188.68734727 </i>
    <i name="e_wo_entrp">   -188.40264157 </i>
    <i name="e_0_energy">   -188.54499442 </i>
   </energy>
  </scstep>
  <scstep>
   <time name="dav">   25.72   25.79</time>
   <time name="total">   25.76   25.83</time>
   <energy>
    <i name="alphaZ">     78.91661892 </i>
    <i name="ewald">  39376.57424079 </i>
    <i name="hartreedc"> -45344.81261905 </i>
    <i name="XCdc">   -237.98148230 </i>
    <i name="pawpsdc">   3950.91117938 </i>
    <i name="pawaedc">  -3365.42418413 </i>
    <i name="eentropy">     -0.28471253 </i>
    <i name="bandstr">  -1408.02899746 </i>
    <i name="atom">   6761.44252427 </i>
    <i name="e_fr_energy">   -188.68743210 </i>
    <i name="e_wo_entrp">   -188.40271958 </i>
    <i name="e_0_energy">   -188.54507584 </i>
   </energy>
  </scstep>
  <structure>
   <crystal>
    <varray name="basis" >
     <v>       8.85233236       5.10297448       0.00000000 </v>
     <v>      -8.85628793       5.10977948       0.00000000 </v>
     <v>       0.00000000       0.00000000      30.00000000 </v>
    </varray>
    <i name="volume">   2712.80632484 </i>
    <varray name="rec_basis" >
     <v>       0.05650731       0.09793867       0.00000000 </v>
     <v>      -0.05643205       0.09789492       0.00000000 </v>
     <v>       0.00000000       0.00000000       0.03333333 </v>
    </varray>
   </crystal>
   <varray name="positions" >
    <v>       0.66663454       0.33324819      -0.00004475 </v>
    <v>       0.99996168       0.33324207      -0.00004253 </v>
    <v>       0.33451071       0.33578170       0.00009107 </v>
    <v>       0.66513885       0.66791414       0.00022026 </v>
    <v>       0.33599437       0.66777899       0.00021286 </v>
    <v>       0.66543576      -0.00254513      -0.00027953 </v>
    <v>      -0.00286319      -0.00095045      -0.00018369 </v>
    <v>      -0.00022046       0.66616367       0.00014757 </v>
    <v>       0.33513161      -0.00106893      -0.00019317 </v>
    <v>       0.11251817       0.22560872       0.95312417 </v>
    <v>       0.22386629       0.11469073       0.04796668 </v>
    <v>       0.10840084       0.55143741       0.95200146 </v>
    <v>       0.22019545       0.43994964       0.04686595 </v>
    <v>       0.11119674       0.88902108       0.95069394 </v>
    <v>       0.22156861       0.77792070       0.04928856 </v>
    <v>       0.44585583       0.22561411       0.95312937 </v>
    <v>       0.55672936       0.11510668       0.04805461 </v>
    <v>       0.44213120       0.55091899       0.95191499 </v>
    <v>       0.55346558       0.43994221       0.04686059 </v>
    <v>       0.44399860       0.88948547       0.95068942 </v>
    <v>       0.55536485       0.77746822       0.04933095 </v>
    <v>       0.77964684       0.22655566       0.95317880 </v>
    <v>       0.89148169       0.11512874       0.04806785 </v>
    <v>       0.77644099       0.55145497       0.95201462 </v>
    <v>       0.88729878       0.44090321       0.04690377 </v>
    <v>       0.77878575       0.88950375       0.95069236 </v>
    <v>       0.88954502       0.77793989       0.04929369 </v>
   </varray>
  </structure>
  <varray name="forces" >
   <v>       0.00659870      -0.00076720      -0.08964023 </v>
   <v>      -0.00257840      -0.00460403      -0.08909368 </v>
   <v>      -0.18195649       0.32015080       0.11078105 </v>
   <v>      -0.55602890       0.20861343       0.03715574 </v>
   <v>       0.09221057       0.58679540       0.03320245 </v>
   <v>       0.32258774      -0.55889142      -0.02204975 </v>
   <v>      -0.17843308      -0.51727701       0.07829536 </v>
   <v>      -0.07171884       0.13696668      -0.08886812 </v>
   <v>       0.53117577      -0.10733517       0.07237692 </v>
   <v>       0.04959742      -0.07170228       0.13551035 </v>
   <v>       0.06336509      -0.08055955      -0.38506349 </v>
   <v>      -0.09678635      -0.03849476       0.17123470 </v>
   <v>       0.01497291      -0.03419196      -0.05440489 </v>
   <v>      -0.01970123       0.00930636       0.11422491 </v>
   <v>      -0.09555501       0.00535439       0.04081442 </v>
   <v>       0.06083501      -0.06802703       0.14139880 </v>
   <v>      -0.06438876      -0.05004773      -0.07232459 </v>
   <v>       0.02979878      -0.07108670      -0.11747875 </v>
   <v>      -0.00243568      -0.04304210      -0.05921017 </v>
   <v>      -0.11311597      -0.00526450      -0.28545013 </v>
   <v>      -0.00076333       0.00919375       0.40040469 </v>
   <v>      -0.00611600       0.03743598       0.13759302 </v>
   <v>       0.09635560       0.04139505      -0.07190975 </v>
   <v>       0.06407275       0.05204131       0.17060069 </v>
   <v>      -0.05127155       0.06161220      -0.04818543 </v>
   <v>       0.04853457       0.08755074      -0.29324428 </v>
   <v>       0.06074467       0.09487535       0.03333016 </v>
  </varray>
  <varray name="stress" >
   <v>     -19.94410283       0.04593936      -0.00215978 </v>
   <v>       0.04593938     -19.56041715       0.07980315 </v>
   <v>      -0.00215972       0.07980317      -1.85182317 </v>
  </varray>
  <energy>
   <i name="e_fr_energy">   -188.68743210 </i>
   <i name="e_wo_entrp">   -188.54507584 </i>
   <i name="e_0_energy">     -0.28471253 </i>
  </energy>
  <time name="totalsc">  398.94  400.00</time>
 </calculation>
 <calculation>
  <scstep>
   <time name="dav">   23.74   23.79</time>
   <time name="total">   24.27   24.33</time>
   <energy>
    <i name="alphaZ">     82.34696408 </i>
    <i name="ewald">  41303.45960060 </i>
    <i name="hartreedc"> -47302.34740831 </i>
    <i name="XCdc">   -233.85078120 </i>
    <i name="pawpsdc">   3950.28897560 </i>
    <i name="pawaedc">  -3364.79475353 </i>
    <i name="eentropy">     -0.24031444 </i>
    <i name="bandstr">  -1386.93260686 </i>
    <i name="atom">   6761.44252427 </i>
    <i name="e_fr_energy">   -190.62779979 </i>
    <i name="e_wo_entrp">   -190.38748534 </i>
    <i name="e_0_energy">   -190.50764257 </i>
   </energy>
  </scstep>
  <scstep>
   <time name="dav">   28.92   28.99</time>
   <time name="total">   29.46   29.53</time>
   <energy>
    <i name="e_fr_energy">   -190.54653668 </i>
    <i name="e_wo_entrp">   -190.30880470 </i>
    <i name="e_0_energy">   -190.42767069 </i>
   </energy>
  </scstep>
  <scstep>
   <time name="dav">   30.56   30.63</time>
   <time name="total">   31.08   31.17</time>
   <energy>
    <i name="e_fr_energy">   -190.12353228 </i>
    <i name="e_wo_entrp">   -189.87114493 </i>
    <i name="e_0_energy">   -189.99733860 </i>
   </energy>
  </scstep>
  <scstep>
   <time name="dav">   31.14   31.21</time>
   <time name="total">   31.68   31.76</time>
   <energy>
    <i name="e_fr_energy">   -189.89568491 </i>
    <i name="e_wo_entrp">   -189.65650257 </i>
    <i name="e_0_energy">   -189.77609374 </i>
   </energy>
  </scstep>
  <scstep>
   <time name="dav">   29.35   29.42</time>
   <time name="total">   29.89   29.97</time>
   <energy>
    <i name="e_fr_energy">   -189.81230981 </i>
    <i name="e_wo_entrp">   -189.56908515 </i>
    <i name="e_0_energy">   -189.69069748 </i>
   </energy>
  </scstep>
  <scstep>
   <time name="dav">   29.53   29.60</time>
   <time name="total">   30.07   30.15</time>
   <energy>
    <i name="e_fr_energy">   -189.80028761 </i>
    <i name="e_wo_entrp">   -189.55698394 </i>
    <i name="e_0_energy">   -189.67863578 </i>
   </energy>
  </scstep>
  <scstep>
   <time name="dav">   28.91   28.98</time>
   <time name="total">   29.45   29.53</time>
   <energy>
    <i name="e_fr_energy">   -189.79399442 </i>
    <i name="e_wo_entrp">   -189.55090330 </i>
    <i name="e_0_energy">   -189.67244886 </i>
   </energy>
  </scstep>
  <scstep>
   <time name="dav">   28.75   28.82</time>
   <time name="total">   29.29   29.37</time>
   <energy>
    <i name="e_fr_energy">   -189.79366643 </i>
    <i name="e_wo_entrp">   -189.55052665 </i>
    <i name="e_0_energy">   -189.67209654 </i>
   </energy>
  </scstep>
  <scstep>
   <time name="dav">   27.02   27.09</time>
   <time name="total">   27.56   27.63</time>
   <energy>
    <i name="e_fr_energy">   -189.79417993 </i>
    <i name="e_wo_entrp">   -189.55095479 </i>
    <i name="e_0_energy">   -189.67256736 </i>
   </energy>
  </scstep>
  <scstep>
   <time name="dav">   27.03   27.09</time>
   <time name="total">   27.57   27.64</time>
   <energy>
    <i name="e_fr_energy">   -189.79399959 </i>
    <i name="e_wo_entrp">   -189.55065988 </i>
    <i name="e_0_energy">   -189.67232974 </i>
   </energy>
  </scstep>
  <scstep>
   <time name="dav">   23.35   23.40</time>
   <time name="total">   23.89   23.95</time>
   <energy>
    <i name="e_fr_energy">   -189.79382037 </i>
    <i name="e_wo_entrp">   -189.55048247 </i>
    <i name="e_0_energy">   -189.67215142 </i>
   </energy>
  </scstep>
  <scstep>
   <time name="dav">   17.32   17.36</time>
   <time name="total">   17.35   17.40</time>
   <energy>
    <i name="alphaZ">     82.34696408 </i>
    <i name="ewald">  41303.45960060 </i>
    <i name="hartreedc"> -47275.59000963 </i>
    <i name="XCdc">   -235.24710352 </i>
    <i name="pawpsdc">   4038.89384090 </i>
    <i name="pawaedc">  -3454.59962658 </i>
    <i name="eentropy">     -0.24332519 </i>
    <i name="bandstr">  -1410.25668871 </i>
    <i name="atom">   6761.44252427 </i>
    <i name="e_fr_energy">   -189.79382377 </i>
    <i name="e_wo_entrp">   -189.55049858 </i>
    <i name="e_0_energy">   -189.67216117 </i>
   </energy>
  </scstep>
  <structure>
   <crystal>
    <varray name="basis" >
     <v>       8.66442951       4.99703284       0.00000000 </v>
     <v>      -8.66780101       5.00282901       0.00000000 </v>
     <v>       0.00000000       0.00000000      30.00000000 </v>
    </varray>
    <i name="volume">   2599.79836921 </i>
    <varray name="rec_basis" >
     <v>       0.05772943       0.10002085       0.00000000 </v>
     <v>      -0.05766254       0.09998194       0.00000000 </v>
     <v>       0.00000000       0.00000000       0.03333333 </v>
    </varray>
   </crystal>
   <varray name="positions" >
    <v>       0.66663960       0.33324059      -0.00009552 </v>
    <v>       0.99995154       0.33323689      -0.00009300 </v>
    <v>       0.33486883       0.33648880       0.00015382 </v>
    <v>       0.66495212       0.66879442       0.00024131 </v>
    <v>       0.33705956       0.66866676       0.00023167 </v>
    <v>       0.66481533      -0.00378427      -0.00029202 </v>
    <v>      -0.00389547      -0.00163988      -0.00013934 </v>
    <v>      -0.00006136       0.66646031       0.00009723 </v>
    <v>       0.33546304      -0.00175689      -0.00015218 </v>
    <v>       0.11244646       0.22544187       0.95320093 </v>
    <v>       0.22379306       0.11449595       0.04774855 </v>
    <v>       0.10824382       0.55146619       0.95209846 </v>
    <v>       0.22015292       0.43987840       0.04683513 </v>
    <v>       0.11119331       0.88905546       0.95075864 </v>
    <v>       0.22148576       0.77802125       0.04931168 </v>
    <v>       0.44580103       0.22544260       0.95320947 </v>
    <v>       0.55658423       0.11508517       0.04801364 </v>
    <v>       0.44204150       0.55077215       0.95184844 </v>
    <v>       0.55339161       0.43987294       0.04682705 </v>
    <v>       0.44388122       0.88958519       0.95052772 </v>
    <v>       0.55537941       0.77748424       0.04955777 </v>
    <v>       0.77970327       0.22662380       0.95325674 </v>
    <v>       0.89164311       0.11510520       0.04802712 </v>
    <v>       0.77658913       0.55148010       0.95211126 </v>
    <v>       0.88735209       0.44105488       0.04687647 </v>
    <v>       0.77897807       0.88960286       0.95052625 </v>
    <v>       0.88976125       0.77803947       0.04931257 </v>
   </varray>
  </structure>
  <varray name="forces" >
   <v>       0.00583953       0.00236410      -0.08540104 </v>
   <v>      -0.00641105      -0.00508286      -0.08521415 </v>
   <v>      -0.17292759       0.30572977       0.09710953 </v>
   <v>      -0.56598993       0.29527976       0.00020934 </v>
   <v>       0.02498980       0.63922410      -0.00010716 </v>
   <v>       0.35667297      -0.61621843       0.01324596 </v>
   <v>      -0.12071204      -0.57125705       0.10036726 </v>
   <v>      -0.11603809       0.20923027      -0.10753687 </v>
   <v>       0.54371688      -0.18300220       0.09852525 </v>
   <v>      -0.01454450       0.05927568      -0.31312403 </v>
   <v>      -0.00354772       0.03364528       0.07543859 </v>
   <v>       0.03589943      -0.07595356      -0.30572175 </v>
   <v>       0.03411730      -0.08462869       0.38704582 </v>
   <v>      -0.02580749       0.02151749      -0.44167282 </v>
   <v>      -0.00712601      -0.00121633       0.60582444 </v>
   <v>      -0.02131927       0.05289725      -0.31001289 </v>
   <v>      -0.03669030       0.08970369       0.42052115 </v>
   <v>       0.06336390      -0.12162247      -0.60048262 </v>
   <v>       0.03025555      -0.08367860       0.38328026 </v>
   <v>      -0.01184760      -0.01079721      -0.86885731 </v>
   <v>      -0.00649566       0.01893690       0.97437951 </v>
   <v>      -0.02809146       0.07806054      -0.29246758 </v>
   <v>      -0.04145983       0.08686747       0.42037493 </v>
   <v>       0.03017805      -0.07873203      -0.30507070 </v>
   <v>       0.02715609      -0.07166939       0.41561155 </v>
   <v>       0.00679092      -0.00190394      -0.87477693 </v>
   <v>       0.02002809       0.01303045       0.59851225 </v>
  </varray>
  <varray name="stress" >
   <v>     -10.16421585       0.01641842      -0.02839107 </v>
   <v>       0.01641854      -9.84532601       0.09556168 </v>
   <v>      -0.02839119       0.09556159       6.48186159 </v>
  </varray>
  <energy>
   <i name="e_fr_energy">   -189.79382377 </i>
   <i name="e_wo_entrp">   -189.67216117 </i>
   <i name="e_0_energy">     -0.24332519 </i>
  </energy>
  <time name="totalsc">  373.75  374.74</time>
 </calculation>
 <calculation>
  <scstep>
   <time name="dav">   21.69   21.74</time>
   <time name="total">   22.21   22.26</time>
   <energy>
    <i name="alphaZ">     85.82043961 </i>
    <i name="ewald">  42834.33748961 </i>
    <i name="hartreedc"> -48850.80099258 </i>
    <i name="XCdc">   -232.96124112 </i>
    <i name="pawpsdc">   4038.91607179 </i>
    <i name="pawaedc">  -3454.61944894 </i>
    <i name="eentropy">     -0.20905841 </i>
    <i name="bandstr">  -1373.33364628 </i>
    <i name="atom">   6761.44252427 </i>
    <i name="e_fr_energy">   -191.40786205 </i>
    <i name="e_wo_entrp">   -191.19880364 </i>
    <i name="e_0_energy">   -191.30333284 </i>
   </energy>
  </scstep>
  <scstep>
   <time name="dav">   31.51   31.58</time>
   <time name="total">   32.03   32.11</time>
   <energy>
    <i name="e_fr_energy">   -191.15924353 </i>
    <i name="e_wo_entrp">   -190.95028577 </i>
    <i name="e_0_energy">   -191.05476465 </i>
   </energy>
  </scstep>
  <scstep>
   <time name="dav">   30.15   30.22</time>
   <time name="total">   30.66   30.75</time>
   <energy>
    <i name="e_fr_energy">   -191.37526547 </i>
    <i name="e_wo_entrp">   -191.14764180 </i>
    <i name="e_0_energy">   -191.26145364 </i>
   </energy>
  </scstep>
  <scstep>
   <time name="dav">   30.10   30.18</time>
   <time name="total">   30.63   30.72</time>
   <energy>
    <i name="e_fr_energy">   -190.98464422 </i>
    <i name="e_wo_entrp">   -190.77658345 </i>
    <i name="e_0_energy">   -190.88061384 </i>
   </energy>
  </scstep>
  <scstep>
   <time name="dav">   30.08   30.15</time>
   <time name="total">   30.59   30.68</time>
   <energy>
    <i name="e_fr_energy">   -190.85867200 </i>
    <i name="e_wo_entrp">   -190.64461204 </i>
    <i name="e_0_energy">   -190.75164202 </i>
   </energy>
  </scstep>
  <scstep>
   <time name="dav">   30.01   30.08</time>
   <time name="total">   30.53   30.61</time>
   <energy>
    <i name="e_fr_energy">   -190.85998630 </i>
    <i name="e_wo_entrp">   -190.64396631 </i>
    <i name="e_0_energy">   -190.75197630 </i>
   </energy>
  </scstep>
  <scstep>
   <time name="dav">   29.08   29.15</time>
   <time name="total">   29.60   29.68</time>
   <energy>
    <i name="e_fr_energy">   -190.83854313 </i>
    <i name="e_wo_entrp">   -190.62262798 </i>
    <i name="e_0_energy">   -190.73058555 </i>
   </energy>
  </scstep>
  <scstep>
   <time name="dav">   28.80   28.87</time>
   <time name="total">   29.32   29.40</time>
   <energy>
    <i name="e_fr_energy">   -190.83470966 </i>
    <i name="e_wo_entrp">   -190.61927079 </i>
    <i name="e_0_energy">   -190.72699023 </i>
   </energy>
  </scstep>
  <scstep>
   <time name="dav">   31.30   31.37</time>
   <time name="total">   31.82   31.90</time>
   <energy>
    <i name="e_fr_energy">   -190.83466889 </i>
    <i name="e_wo_entrp">   -190.61917239 </i>
    <i name="e_0_energy">   -190.72692064 </i>
   </energy>
  </scstep>
  <scstep>
   <time name="dav">   27.71   27.78</time>
   <time name="total">   28.23   28.31</time>
   <energy>
    <i name="e_fr_energy">   -190.83446366 </i>
    <i name="e_wo_entrp">   -190.61886250 </i>
    <i name="e_0_energy">   -190.72666308 </i>
   </energy>
  </scstep>
  <scstep>
   <time name="dav">   19.82   19.87</time>
   <time name="total">   19.86   19.92</time>
   <energy>
    <i name="alphaZ">     85.82043961 </i>
    <i name="ewald">  42834.33748961 </i>
    <i name="hartreedc"> -48822.01114585 </i>
    <i name="XCdc">   -234.28616753 </i>
    <i name="pawpsdc">   4064.52239369 </i>
    <i name="pawaedc">  -3480.42314560 </i>
    <i name="eentropy">     -0.21569657 </i>
    <i name="bandstr">  -1400.02115340 </i>
    <i name="atom">   6761.44252427 </i>
    <i name="e_fr_energy">   -190.83446178 </i>
    <i name="e_wo_entrp">   -190.61876521 </i>
    <i name="e_0_energy">   -190.72661350 </i>
   </energy>
  </scstep>
  <structure>
   <crystal>
    <varray name="basis" >
     <v>       8.48282997       4.89754519       0.00000000 </v>
     <v>      -8.48603139       4.90305359       0.00000000 </v>
     <v>       0.00000000       0.00000000      30.00000000 </v>
    </varray>
    <i name="volume">   2494.57476461 </i>
    <varray name="rec_basis" >
     <v>       0.05896460       0.10205384       0.00000000 </v>
     <v>      -0.05889836       0.10201534       0.00000000 </v>
     <v>       0.00000000       0.00000000       0.03333333 </v>
    </varray>
   </crystal>
   <varray name="positions" >
    <v>       0.66668220       0.33324318      -0.00026859 </v>
    <v>       0.99988987       0.33323253      -0.00026598 </v>
    <v>       0.33613483       0.33897729       0.00034312 </v>
    <v>       0.66495660       0.67291487       0.00021046 </v>
    <v>       0.34118520       0.67280320       0.00020325 </v>
    <v>       0.66215310      -0.00911907      -0.00023473 </v>
    <v>      -0.00795903      -0.00499575       0.00008696 </v>
    <v>       0.00094522       0.66843162      -0.00014102 </v>
    <v>       0.33611198      -0.00507072       0.00007377 </v>
    <v>       0.11299872       0.22628291       0.95217338 </v>
    <v>       0.22417891       0.11509917       0.04829449 </v>
    <v>       0.10799535       0.55057800       0.95106225 </v>
    <v>       0.21964845       0.43907284       0.04800951 </v>
    <v>       0.11125636       0.88932237       0.94937437 </v>
    <v>       0.22156297       0.77789627       0.05104322 </v>
    <v>       0.44623802       0.22626900       0.95218600 </v>
    <v>       0.55740058       0.11608672       0.04930078 </v>
    <v>       0.44143160       0.54960862       0.95019739 </v>
    <v>       0.55292296       0.43909221       0.04799452 </v>
    <v>       0.44390240       0.88940148       0.94823652 </v>
    <v>       0.55549049       0.77765863       0.05205926 </v>
    <v>       0.78015992       0.22734618       0.95228765 </v>
    <v>       0.89195238       0.11610903       0.04931347 </v>
    <v>       0.77583137       0.55060192       0.95107748 </v>
    <v>       0.88678260       0.44006457       0.04812886 </v>
    <v>       0.77870825       0.88940383       0.94822439 </v>
    <v>       0.88965315       0.77790357       0.05102913 </v>
   </varray>
  </structure>
  <varray name="forces" >
   <v>      -0.00032438      -0.00433916      -0.05336389 </v>
   <v>       0.00137837      -0.00172303      -0.05362125 </v>
   <v>      -0.19114666       0.33343058       0.05824875 </v>
   <v>      -0.51750225       0.35166053      -0.02967679 </v>
   <v>      -0.05160884       0.62244659      -0.02488722 </v>
   <v>       0.34721721      -0.59851084       0.04017255 </v>
   <v>      -0.14005193      -0.64054141       0.05609230 </v>
   <v>      -0.14350361       0.25987248      -0.07447776 </v>
   <v>       0.61944328      -0.20150236       0.06268942 </v>
   <v>       0.02636828      -0.01882042      -0.19048251 </v>
   <v>       0.02058789      -0.03643264      -0.07516153 </v>
   <v>       0.05913983       0.05604355      -0.16366776 </v>
   <v>      -0.04316411       0.05053825       0.29341009 </v>
   <v>      -0.03814993       0.06561226      -0.29241522 </v>
   <v>       0.08622338      -0.03752184       0.46130437 </v>
   <v>       0.01939478      -0.02215566      -0.19214204 </v>
   <v>       0.07461288       0.02167045       0.25468611 </v>
   <v>      -0.00982617       0.01930514      -0.40598611 </v>
   <v>      -0.03853159       0.05309858       0.29550105 </v>
   <v>       0.05809134       0.01750025      -0.67189007 </v>
   <v>       0.00016891      -0.00544011       0.76478634 </v>
   <v>       0.05290507      -0.07150767      -0.21202416 </v>
   <v>      -0.05732578      -0.05331067       0.25893935 </v>
   <v>      -0.07590993      -0.02121620      -0.16124663 </v>
   <v>      -0.00712833      -0.00561268       0.26751358 </v>
   <v>      -0.04052071      -0.03911558      -0.67367967 </v>
   <v>      -0.01083700      -0.09342841       0.46137870 </v>
  </varray>
  <varray name="stress" >
   <v>      -5.85910057      -0.17815832      -0.02057398 </v>
   <v>      -0.17815850      -5.67940947      -0.09685021 </v>
   <v>      -0.02057396      -0.09685014       4.56144207 </v>
  </varray>
  <energy>
   <i name="e_fr_energy">   -190.83446178 </i>
   <i name="e_wo_entrp">   -190.72661350 </i>
   <i name="e_0_energy">     -0.21569657 </i>
  </energy>
  <time name="totalsc">  358.22  359.17</time>
 </calculation>
 <calculation>
  <scstep>
   <time name="dav">   21.72   21.77</time>
   <time name="total">   22.23   22.29</time>
   <energy>
    <i name="alphaZ">     90.20615203 </i>
    <i name="ewald">  44679.26601780 </i>
    <i name="hartreedc"> -50722.41818614 </i>
    <i name="XCdc">   -231.82899303 </i>
    <i name="pawpsdc">   4064.61744901 </i>
    <i name="pawaedc">  -3480.51478794 </i>
    <i name="eentropy">     -0.20452332 </i>
    <i name="bandstr">  -1352.83033016 </i>
    <i name="atom">   6761.44252427 </i>
    <i name="e_fr_energy">   -192.26467748 </i>
    <i name="e_wo_entrp">   -192.06015416 </i>
    <i name="e_0_energy">   -192.16241582 </i>
   </energy>
  </scstep>
  <scstep>
   <time name="dav">   25.41   25.47</time>
   <time name="total">   25.93   26.00</time>
   <energy>
    <i name="e_fr_energy">   -191.97281914 </i>
    <i name="e_wo_entrp">   -191.75217702 </i>
    <i name="e_0_energy">   -191.86249808 </i>
   </energy>
  </scstep>
  <scstep>
   <time name="dav">   27.32   27.38</time>
   <time name="total">   27.83   27.91</time>
   <energy>
    <i name="e_fr_energy">   -191.84796167 </i>
    <i name="e_wo_entrp">   -191.64979067 </i>
    <i name="e_0_energy">   -191.74887617 </i>
   </energy>
  </scstep>
  <scstep>
   <time name="dav">   29.95   30.02</time>
   <time name="total">   30.46   30.54</time>
   <energy>
    <i name="e_fr_energy">   -191.86402169 </i>
    <i name="e_wo_entrp">   -191.64081645 </i>
    <i name="e_0_energy">   -191.75241907 </i>
   </energy>
  </scstep>
  <scstep>
   <time name="dav">   30.28   30.36</time>
   <time name="total">   30.80   30.88</time>
   <energy>
    <i name="e_fr_energy">   -191.61255392 </i>
    <i name="e_wo_entrp">   -191.40193556 </i>
    <i name="e_0_energy">   -191.50724474 </i>
   </energy>
  </scstep>
  <scstep>
   <time name="dav">   30.10   30.17</time>
   <time name="total">   30.61   30.70</time>
   <energy>
    <i name="e_fr_energy">   -191.61098673 </i>
    <i name="e_wo_entrp">   -191.39580822 </i>
    <i name="e_0_energy">   -191.50339747 </i>
   </energy>
  </scstep>
  <scstep>
   <time name="dav">   30.22   30.30</time>
   <time name="total">   30.74   30.82</time>
   <energy>
    <i name="e_fr_energy">   -191.57550813 </i>
    <i name="e_wo_entrp">   -191.35815829 </i>
    <i name="e_0_energy">   -191.46683321 </i>
   </energy>
  </scstep>
  <scstep>
   <time name="dav">   28.70   28.77</time>
   <time name="total">   29.22   29.30</time>
   <energy>
    <i name="e_fr_energy">   -191.57170721 </i>
    <i name="e_wo_entrp">   -191.35593069 </i>
    <i name="e_0_energy">   -191.46381895 </i>
   </energy>
  </scstep>
  <scstep>
   <time name="dav">   29.53   29.60</time>
   <time name="total">   30.05   30.13</time>
   <energy>
    <i name="e_fr_energy">   -191.57022715 </i>
    <i name="e_wo_entrp">   -191.35449114 </i>
    <i name="e_0_energy">   -191.46235914 </i>
   </energy>
  </scstep>
  <scstep>
   <time name="dav">   28.81   28.88</time>
   <time name="total">   29.32   29.40</time>
   <energy>
    <i name="e_fr_energy">   -191.57006638 </i>
    <i name="e_wo_entrp">   -191.35425865 </i>
    <i name="e_0_energy">   -191.46216251 </i>
   </energy>
  </scstep>
  <scstep>
   <time name="dav">   24.86   24.92</time>
   <time name="total">   24.89   24.96</time>
   <energy>
    <i name="alphaZ">     90.20615203 </i>
    <i name="ewald">  44679.26601780 </i>
    <i name="hartreedc"> -50688.55075210 </i>
    <i name="XCdc">   -233.33937522 </i>
    <i name="pawpsdc">   4089.02919437 </i>
    <i name="pawaedc">  -3505.07532278 </i>
    <i name="eentropy">     -0.21597496 </i>
    <i name="bandstr">  -1384.33248335 </i>
    <i name="atom">   6761.44252427 </i>
    <i name="e_fr_energy">   -191.57001994 </i>
    <i name="e_wo_entrp">   -191.35404498 </i>
    <i name="e_0_energy">   -191.46203246 </i>
   </energy>
  </scstep>
  <structure>
   <crystal>
    <varray name="basis" >
     <v>       8.26342946       4.77046237       0.00000000 </v>
     <v>      -8.27753891       4.79486542       0.00000000 </v>
     <v>       0.00000000       0.00000000      30.00000000 </v>
    </varray>
    <i name="volume">   2373.29160070 </i>
    <varray name="rec_basis" >
     <v>       0.06061032       0.10463365       0.00000000 </v>
     <v>      -0.06030185       0.10445530       0.00000000 </v>
     <v>       0.00000000       0.00000000       0.03333333 </v>
    </varray>
   </crystal>
   <varray name="positions" >
    <v>       0.66665130       0.33320751      -0.00049676 </v>
    <v>       0.99985736       0.33320833      -0.00049531 </v>
    <v>       0.33883754       0.34434343       0.00058530 </v>
    <v>       0.66570217       0.68117899       0.00007032 </v>
    <v>       0.34865813       0.68108776       0.00008326 </v>
    <v>       0.65710079      -0.01926157      -0.00005233 </v>
    <v>      -0.01680831      -0.01207286       0.00035882 </v>
    <v>       0.00321182       0.67284260      -0.00047756 </v>
    <v>       0.33780456      -0.01212134       0.00037171 </v>
    <v>       0.11331965       0.22652190       0.95089458 </v>
    <v>       0.22418996       0.11508773       0.04852939 </v>
    <v>       0.10898083       0.55031779       0.94985297 </v>
    <v>       0.21969825       0.43952492       0.04968042 </v>
    <v>       0.11175853       0.89036581       0.94756398 </v>
    <v>       0.22181496       0.77680067       0.05354084 </v>
    <v>       0.44640337       0.22651219       0.95090033 </v>
    <v>       0.55866190       0.11640470       0.05090551 </v>
    <v>       0.44134361       0.54940630       0.94797711 </v>
    <v>       0.55307791       0.43955421       0.04967174 </v>
    <v>       0.44457274       0.88903733       0.94484354 </v>
    <v>       0.55547765       0.77767556       0.05582413 </v>
    <v>       0.77990760       0.22656923       0.95096319 </v>
    <v>       0.89103498       0.11644292       0.05093242 </v>
    <v>       0.77459476       0.55035809       0.94987829 </v>
    <v>       0.88632803       0.43938206       0.04974692 </v>
    <v>       0.77771244       0.88903563       0.94482384 </v>
    <v>       0.88832193       0.77680456       0.05352324 </v>
   </varray>
  </structure>
  <varray name="forces" >
   <v>      -0.01657209      -0.03797388      -0.06006213 </v>
   <v>       0.03776351      -0.00584061      -0.05687209 </v>
   <v>      -0.25644882       0.44332795       0.07439137 </v>
   <v>       0.01015147       0.09376396       0.11308985 </v>
   <v>      -0.09867992       0.03529512       0.10421410 </v>
   <v>      -0.00454645       0.00872822      -0.06019232 </v>
   <v>      -0.13612450      -0.46331427      -0.08054974 </v>
   <v>      -0.13267982       0.23855400       0.04152346 </v>
   <v>       0.47807845      -0.11356147      -0.09265839 </v>
   <v>       0.09711149      -0.11964880       0.12196108 </v>
   <v>       0.09749092      -0.17724001      -0.42357955 </v>
   <v>       0.00699020       0.20638456       0.10211644 </v>
   <v>      -0.11519132       0.18187184       0.00667371 </v>
   <v>      -0.07439709       0.13475156      -0.02029632 </v>
   <v>       0.15573328      -0.07731931       0.19007542 </v>
   <v>       0.05627387      -0.14295929       0.12160286 </v>
   <v>       0.22241056      -0.10635840       0.00269458 </v>
   <v>      -0.10167267       0.17387517      -0.09513579 </v>
   <v>      -0.09845622       0.19310519       0.00850761 </v>
   <v>       0.07611377       0.08395826      -0.26030345 </v>
   <v>       0.04430756      -0.07583077       0.23829159 </v>
   <v>       0.12049320      -0.20972468       0.05857262 </v>
   <v>      -0.01772975      -0.24673026      -0.00094707 </v>
   <v>      -0.17778294       0.10022427       0.10473420 </v>
   <v>      -0.04735516       0.08264836      -0.05138734 </v>
   <v>      -0.11129588      -0.02558994      -0.26664217 </v>
   <v>      -0.01398565      -0.17439676       0.18017747 </v>
  </varray>
  <varray name="stress" >
   <v>       0.13807901      -0.60257763       0.37912023 </v>
   <v>      -0.60257740       0.87904914      -0.67949360 </v>
   <v>       0.37912031      -0.67949365      -0.73773559 </v>
  </varray>
  <energy>
   <i name="e_fr_energy">   -191.57001994 </i>
   <i name="e_wo_entrp">   -191.46203246 </i>
   <i name="e_0_energy">     -0.21597496 </i>
  </energy>
  <time name="totalsc">  354.49  355.43</time>
 </calculation>
 <calculation>
  <scstep>
   <time name="dav">   21.65   21.71</time>
   <time name="total">   22.17   22.22</time>
   <energy>
    <i name="alphaZ">     89.88586605 </i>
    <i name="ewald">  44519.42163099 </i>
    <i name="hartreedc"> -50525.83358095 </i>
    <i name="XCdc">   -233.62646047 </i>
    <i name="pawpsdc">   4089.27889299 </i>
    <i name="pawaedc">  -3505.32133681 </i>
    <i name="eentropy">     -0.21670259 </i>
    <i name="bandstr">  -1386.67624372 </i>
    <i name="atom">   6761.44252427 </i>
    <i name="e_fr_energy">   -191.64541024 </i>
    <i name="e_wo_entrp">   -191.42870765 </i>
    <i name="e_0_energy">   -191.53705895 </i>
   </energy>
  </scstep>
  <scstep>
   <time name="dav">   30.64   30.71</time>
   <time name="total">   31.15   31.23</time>
   <energy>
    <i name="e_fr_energy">   -191.72287798 </i>
    <i name="e_wo_entrp">   -191.49530834 </i>
    <i name="e_0_energy">   -191.60909316 </i>
   </energy>
  </scstep>
  <scstep>
   <time name="dav">   30.65   30.72</time>
   <time name="total">   31.16   31.24</time>
   <energy>
    <i name="e_fr_energy">   -191.65650905 </i>
    <i name="e_wo_entrp">   -191.43901118 </i>
    <i name="e_0_energy">   -191.54776011 </i>
   </energy>
  </scstep>
  <scstep>
   <time name="dav">   26.90   26.97</time>
   <time name="total">   27.42   27.49</time>
   <energy>
    <i name="e_fr_energy">   -191.66120094 </i>
    <i name="e_wo_entrp">   -191.44248509 </i>
    <i name="e_0_energy">   -191.55184301 </i>
   </energy>
  </scstep>
  <scstep>
   <time name="dav">   27.24   27.30</time>
   <time name="total">   27.75   27.83</time>
   <energy>
    <i name="e_fr_energy">   -191.65218961 </i>
    <i name="e_wo_entrp">   -191.43233715 </i>
    <i name="e_0_energy">   -191.54226338 </i>
   </energy>
  </scstep>
  <scstep>
   <time name="dav">   28.26   28.33</time>
   <time name="total">   28.77   28.85</time>
   <energy>
    <i name="e_fr_energy">   -191.65176765 </i>
    <i name="e_wo_entrp">   -191.43334028 </i>
    <i name="e_0_energy">   -191.54255397 </i>
   </energy>
  </scstep>
  <scstep>
   <time name="dav">   27.56   27.62</time>
   <time name="total">   28.07   28.14</time>
   <energy>
    <i name="e_fr_energy">   -191.65155572 </i>
    <i name="e_wo_entrp">   -191.43266617 </i>
    <i name="e_0_energy">   -191.54211095 </i>
   </energy>
  </scstep>
  <scstep>
   <time name="dav">   22.71   22.76</time>
   <time name="total">   23.22   23.29</time>
   <energy>
    <i name="e_fr_energy">   -191.65145323 </i>
    <i name="e_wo_entrp">   -191.43253027 </i>
    <i name="e_0_energy">   -191.54199175 </i>
   </energy>
  </scstep>
  <scstep>
   <time name="dav">   17.40   17.45</time>
   <time name="total">   17.44   17.49</time>
   <energy>
    <i name="alphaZ">     89.88586605 </i>
    <i name="ewald">  44519.42163099 </i>
    <i name="hartreedc"> -50529.46402064 </i>
    <i name="XCdc">   -233.50115550 </i>
    <i name="pawpsdc">   4084.29889373 </i>
    <i name="pawaedc">  -3500.27442092 </i>
    <i name="eentropy">     -0.21892024 </i>
    <i name="bandstr">  -1383.24181705 </i>
    <i name="atom">   6761.44252427 </i>
    <i name="e_fr_energy">   -191.65141931 </i>
    <i name="e_wo_entrp">   -191.43249907 </i>
    <i name="e_0_energy">   -191.54195919 </i>
   </energy>
  </scstep>
  <structure>
   <crystal>
    <varray name="basis" >
     <v>       8.26372151       4.77117003       0.00000000 </v>
     <v>      -8.29183969       4.81984186       0.00000000 </v>
     <v>       0.00000000       0.00000000      30.00000000 </v>
    </varray>
    <i name="volume">   2381.74823625 </i>
    <varray name="rec_basis" >
     <v>       0.06070971       0.10444227       0.00000000 </v>
     <v>      -0.06009665       0.10408810       0.00000000 </v>
     <v>       0.00000000       0.00000000       0.03333333 </v>
    </varray>
   </crystal>
   <varray name="positions" >
    <v>       0.66642573       0.33307365      -0.00057935 </v>
    <v>       0.99993520       0.33307789      -0.00057302 </v>
    <v>       0.34014430       0.34696244       0.00068922 </v>
    <v>       0.66614719       0.68129935       0.00024694 </v>
    <v>       0.34828732       0.68122812       0.00024571 </v>
    <v>       0.65731100      -0.01884383      -0.00015035 </v>
    <v>      -0.01907432      -0.01364472       0.00022624 </v>
    <v>       0.00389846       0.67417803      -0.00040200 </v>
    <v>       0.33852685      -0.01371748       0.00021988 </v>
    <v>       0.11299855       0.22566452       0.95113619 </v>
    <v>       0.22360834       0.11396665       0.04786730 </v>
    <v>       0.10994911       0.55129929       0.95006300 </v>
    <v>       0.22024989       0.44069845       0.04962027 </v>
    <v>       0.11217723       0.89117295       0.94761178 </v>
    <v>       0.22186500       0.77604639       0.05372572 </v>
    <v>       0.44586608       0.22565602       0.95114165 </v>
    <v>       0.55871349       0.11526623       0.05083956 </v>
    <v>       0.44189908       0.55052866       0.94792492 </v>
    <v>       0.55372435       0.44073458       0.04961419 </v>
    <v>       0.44515668       0.88924388       0.94458497 </v>
    <v>       0.55523847       0.77719189       0.05603634 </v>
    <v>       0.77924563       0.22526041       0.95110949 </v>
    <v>       0.88984253       0.11529561       0.05086052 </v>
    <v>       0.77463533       0.55134124       0.95009191 </v>
    <v>       0.88661425       0.43994338       0.04959953 </v>
    <v>       0.77732478       0.88923607       0.94455595 </v>
    <v>       0.88750393       0.77605479       0.05369334 </v>
   </varray>
  </structure>
  <varray name="forces" >
   <v>       0.00073840      -0.07342804      -0.07189900 </v>
   <v>       0.06048661      -0.03717495      -0.07030661 </v>
   <v>      -0.29387502       0.50683077       0.03681846 </v>
   <v>      -0.11327663       0.14280772      -0.00653439 </v>
   <v>      -0.07659673       0.16397223      -0.00194662 </v>
   <v>       0.08064227      -0.13904634       0.04844993 </v>
   <v>      -0.16864000      -0.51779280       0.00607869 </v>
   <v>      -0.14402351       0.26678849      -0.00101159 </v>
   <v>       0.53590924      -0.11440300       0.01091804 </v>
   <v>       0.08089717      -0.07816454       0.14510778 </v>
   <v>       0.06090240      -0.10806128      -0.47996969 </v>
   <v>      -0.01488479       0.09424572       0.11982689 </v>
   <v>      -0.08353380       0.09925450       0.04235441 </v>
   <v>      -0.04060406       0.07383307       0.00963670 </v>
   <v>       0.06394756      -0.02908667       0.15516050 </v>
   <v>       0.02936587      -0.10816841       0.14402930 </v>
   <v>       0.12293518      -0.07497803      -0.00277266 </v>
   <v>      -0.05563090       0.09615921      -0.05754751 </v>
   <v>      -0.04421596       0.12255836       0.04369048 </v>
   <v>       0.09377783       0.00268250      -0.21783213 </v>
   <v>       0.00424804      -0.01209178       0.12749655 </v>
   <v>       0.05862648      -0.09953554       0.04022873 </v>
   <v>       0.00160034      -0.14520050      -0.00264690 </v>
   <v>      -0.07153548       0.06302768       0.12538495 </v>
   <v>      -0.03431071       0.05817197      -0.08249362 </v>
   <v>      -0.04573676      -0.07958828      -0.21211708 </v>
   <v>      -0.00721302      -0.07361205       0.15189635 </v>
  </varray>
  <varray name="stress" >
   <v>      -0.14938590       0.01026817       0.05802853 </v>
   <v>       0.01026831      -0.16470450      -0.14364050 </v>
   <v>       0.05802871      -0.14364059      -1.38232038 </v>
  </varray>
  <energy>
   <i name="e_fr_energy">   -191.65141931 </i>
   <i name="e_wo_entrp">   -191.54195919 </i>
   <i name="e_0_energy">     -0.21892024 </i>
  </energy>
  <time name="totalsc">  279.39  280.13</time>
 </calculation>
 <calculation>
  <scstep>
   <time name="dav">   21.72   21.77</time>
   <time name="total">   22.23   22.29</time>
   <energy>
    <i name="alphaZ">     89.98628342 </i>
    <i name="ewald">  44567.44118110 </i>
    <i name="hartreedc"> -50578.36089952 </i>
    <i name="XCdc">   -233.42610865 </i>
    <i name="pawpsdc">   4083.85780502 </i>
    <i name="pawaedc">  -3499.82936556 </i>
    <i name="eentropy">     -0.21747295 </i>
    <i name="bandstr">  -1382.62287443 </i>
    <i name="atom">   6761.44252427 </i>
    <i name="e_fr_energy">   -191.72892731 </i>
    <i name="e_wo_entrp">   -191.51145436 </i>
    <i name="e_0_energy">   -191.62019083 </i>
   </energy>
  </scstep>
  <scstep>
   <time name="dav">   32.17   32.25</time>
   <time name="total">   32.68   32.77</time>
   <energy>
    <i name="e_fr_energy">   -191.78506322 </i>
    <i name="e_wo_entrp">   -191.55552290 </i>
    <i name="e_0_energy">   -191.67029306 </i>
   </energy>
  </scstep>
  <scstep>
   <time name="dav">   30.64   30.72</time>
   <time name="total">   31.16   31.24</time>
   <energy>
    <i name="e_fr_energy">   -191.73714487 </i>
    <i name="e_wo_entrp">   -191.51907661 </i>
    <i name="e_0_energy">   -191.62811074 </i>
   </energy>
  </scstep>
  <scstep>
   <time name="dav">   26.48   26.55</time>
   <time name="total">   27.00   27.07</time>
   <energy>
    <i name="e_fr_energy">   -191.73871197 </i>
    <i name="e_wo_entrp">   -191.52014675 </i>
    <i name="e_0_energy">   -191.62942936 </i>
   </energy>
  </scstep>
  <scstep>
   <time name="dav">   27.71   27.78</time>
   <time name="total">   28.23   28.30</time>
   <energy>
    <i name="e_fr_energy">   -191.73389916 </i>
    <i name="e_wo_entrp">   -191.51383113 </i>
    <i name="e_0_energy">   -191.62386515 </i>
   </energy>
  </scstep>
  <scstep>
   <time name="dav">   26.60   26.66</time>
   <time name="total">   27.11   27.18</time>
   <energy>
    <i name="e_fr_energy">   -191.73367843 </i>
    <i name="e_wo_entrp">   -191.51415677 </i>
    <i name="e_0_energy">   -191.62391760 </i>
   </energy>
  </scstep>
  <scstep>
   <time name="dav">   27.53   27.60</time>
   <time name="total">   28.05   28.12</time>
   <energy>
    <i name="e_fr_energy">   -191.73356570 </i>
    <i name="e_wo_entrp">   -191.51357864 </i>
    <i name="e_0_energy">   -191.62357217 </i>
   </energy>
  </scstep>
  <scstep>
   <time name="dav">   22.43   22.49</time>
   <time name="total">   22.47   22.53</time>
   <energy>
    <i name="alphaZ">     89.98628342 </i>
    <i name="ewald">  44567.44118110 </i>
    <i name="hartreedc"> -50578.21317062 </i>
    <i name="XCdc">   -233.44326528 </i>
    <i name="pawpsdc">   4087.07175783 </i>
    <i name="pawaedc">  -3503.08281898 </i>
    <i name="eentropy">     -0.21996557 </i>
    <i name="bandstr">  -1382.71599992 </i>
    <i name="atom">   6761.44252427 </i>
    <i name="e_fr_energy">   -191.73347374 </i>
    <i name="e_wo_entrp">   -191.51350817 </i>
    <i name="e_0_energy">   -191.62349096 </i>
   </energy>
  </scstep>
  <structure>
   <crystal>
    <varray name="basis" >
     <v>       8.25885879       4.76833460       0.00000000 </v>
     <v>      -8.28723704       4.81745665       0.00000000 </v>
[...]
      <set comment="kpoint 31">
       <r>  -17.5245    1.0000 </r>
       <r>  -17.2328    1.0000 </r>
       <r>  -16.9274    1.0000 </r>
       <r>  -16.6451    1.0000 </r>
       <r>  -16.4996    1.0000 </r>
       <r>  -16.4228    1.0000 </r>
       <r>  -16.3027    1.0000 </r>
       <r>  -16.1850    1.0000 </r>
       <r>  -16.1013    1.0000 </r>
       <r>  -16.0429    1.0000 </r>
       <r>  -15.9426    1.0000 </r>
       <r>  -15.8304    1.0000 </r>
       <r>  -15.7689    1.0000 </r>
       <r>  -15.6873    1.0000 </r>
       <r>  -15.6264    1.0000 </r>
       <r>  -15.5620    1.0000 </r>
       <r>  -15.4597    1.0000 </r>
       <r>  -15.2914    1.0000 </r>
       <r>   -9.6982    1.0000 </r>
       <r>   -9.4109    1.0000 </r>
       <r>   -9.3325    1.0000 </r>
       <r>   -8.9933    1.0000 </r>
       <r>   -8.9122    1.0000 </r>
       <r>   -8.7621    1.0000 </r>
       <r>   -8.5673    1.0000 </r>
       <r>   -8.4464    1.0000 </r>
       <r>   -8.3774    1.0000 </r>
       <r>   -8.2754    1.0000 </r>
       <r>   -8.2334    1.0000 </r>
       <r>   -8.1983    1.0000 </r>
       <r>   -8.1536    1.0000 </r>
       <r>   -8.0708    1.0000 </r>
       <r>   -8.0171    1.0000 </r>
       <r>   -7.9037    1.0000 </r>
       <r>   -7.7850    1.0000 </r>
       <r>   -7.6716    1.0000 </r>
       <r>   -7.5786    1.0000 </r>
       <r>   -7.4434    1.0000 </r>
       <r>   -7.3221    1.0000 </r>
       <r>   -7.2478    1.0000 </r>
       <r>   -7.1641    1.0000 </r>
       <r>   -7.0906    1.0000 </r>
       <r>   -7.0114    1.0000 </r>
       <r>   -6.9605    1.0000 </r>
       <r>   -6.8750    1.0000 </r>
       <r>   -6.7590    1.0000 </r>
       <r>   -6.6800    1.0000 </r>
       <r>   -6.5851    1.0000 </r>
       <r>   -6.5315    1.0000 </r>
       <r>   -6.4638    1.0000 </r>
       <r>   -6.4012    1.0000 </r>
       <r>   -6.3642    1.0000 </r>
       <r>   -6.2414    1.0000 </r>
       <r>   -6.1971    1.0000 </r>
       <r>   -6.1664    1.0000 </r>
       <r>   -6.1094    1.0000 </r>
       <r>   -6.0285    1.0000 </r>
       <r>   -5.9961    1.0000 </r>
       <r>   -5.8966    1.0000 </r>
       <r>   -5.8073    1.0000 </r>
       <r>   -5.7428    1.0000 </r>
       <r>   -5.6311    1.0000 </r>
       <r>   -5.6016    1.0000 </r>
       <r>   -5.3716    1.0000 </r>
       <r>   -5.2868    1.0000 </r>
       <r>   -5.1890    1.0000 </r>
       <r>   -5.0998    1.0000 </r>
       <r>   -4.9712    1.0000 </r>
       <r>   -4.8661    1.0000 </r>
       <r>   -4.7134    1.0000 </r>
       <r>   -4.4688    1.0000 </r>
       <r>   -4.4365    1.0000 </r>
       <r>   -4.3196    1.0000 </r>
       <r>   -4.2790    1.0000 </r>
       <r>   -4.1823    1.0000 </r>
       <r>   -4.1148    1.0000 </r>
       <r>   -3.7726    0.9999 </r>
       <r>   -3.6391    0.9968 </r>
       <r>   -3.3951    0.8405 </r>
       <r>   -3.2126    0.3846 </r>
       <r>   -3.0750    0.1027 </r>
       <r>   -2.7973    0.0006 </r>
       <r>   -2.7162    0.0001 </r>
       <r>   -2.5960    0.0000 </r>
       <r>   -2.5579    0.0000 </r>
       <r>   -2.4645    0.0000 </r>
       <r>   -2.3323    0.0000 </r>
       <r>   -2.1030    0.0000 </r>
       <r>   -1.9757    0.0000 </r>
       <r>   -1.8480    0.0000 </r>
       <r>   -1.7844    0.0000 </r>
       <r>   -1.7139    0.0000 </r>
       <r>   -1.5282    0.0000 </r>
       <r>   -1.3764    0.0000 </r>
       <r>   -1.2908    0.0000 </r>
       <r>   -1.1791    0.0000 </r>
       <r>   -1.0952    0.0000 </r>
       <r>   -1.0834    0.0000 </r>
       <r>   -0.9698    0.0000 </r>
       <r>   -0.9531    0.0000 </r>
       <r>   -0.7980    0.0000 </r>
       <r>   -0.7814    0.0000 </r>
       <r>   -0.6604    0.0000 </r>
       <r>   -0.6043    0.0000 </r>
       <r>   -0.5373    0.0000 </r>
       <r>   -0.3915    0.0000 </r>
       <r>   -0.2628    0.0000 </r>
       <r>   -0.0914    0.0000 </r>
       <r>   -0.0108    0.0000 </r>
       <r>    0.1432    0.0000 </r>
       <r>    0.2974    0.0000 </r>
       <r>    0.4756    0.0000 </r>
       <r>    0.7229    0.0000 </r>
       <r>    0.8967    0.0000 </r>
       <r>    1.1152    0.0000 </r>
       <r>    1.3343    0.0000 </r>
       <r>    1.4929    0.0000 </r>
       <r>    2.1187    0.0000 </r>
       <r>    2.2731    0.0000 </r>
       <r>    2.3764    0.0000 </r>
      </set>
      <set comment="kpoint 32">
       <r>  -17.5319    1.0000 </r>
       <r>  -17.1348    1.0000 </r>
       <r>  -17.0747    1.0000 </r>
       <r>  -16.6419    1.0000 </r>
       <r>  -16.4273    1.0000 </r>
       <r>  -16.3268    1.0000 </r>
       <r>  -16.3042    1.0000 </r>
       <r>  -16.2373    1.0000 </r>
       <r>  -16.1595    1.0000 </r>
       <r>  -16.0545    1.0000 </r>
       <r>  -15.9720    1.0000 </r>
       <r>  -15.8086    1.0000 </r>
       <r>  -15.7519    1.0000 </r>
       <r>  -15.7203    1.0000 </r>
       <r>  -15.6172    1.0000 </r>
       <r>  -15.5521    1.0000 </r>
       <r>  -15.4310    1.0000 </r>
       <r>  -15.3059    1.0000 </r>
       <r>   -9.6272    1.0000 </r>
       <r>   -9.5567    1.0000 </r>
       <r>   -9.4002    1.0000 </r>
       <r>   -8.9313    1.0000 </r>
       <r>   -8.7590    1.0000 </r>
       <r>   -8.6478    1.0000 </r>
       <r>   -8.5299    1.0000 </r>
       <r>   -8.4388    1.0000 </r>
       <r>   -8.4107    1.0000 </r>
       <r>   -8.3186    1.0000 </r>
       <r>   -8.2857    1.0000 </r>
       <r>   -8.2469    1.0000 </r>
       <r>   -8.1895    1.0000 </r>
       <r>   -8.0885    1.0000 </r>
       <r>   -8.0361    1.0000 </r>
       <r>   -7.9209    1.0000 </r>
       <r>   -7.7706    1.0000 </r>
       <r>   -7.6886    1.0000 </r>
       <r>   -7.5528    1.0000 </r>
       <r>   -7.4660    1.0000 </r>
       <r>   -7.3748    1.0000 </r>
       <r>   -7.2409    1.0000 </r>
       <r>   -7.1943    1.0000 </r>
       <r>   -7.0795    1.0000 </r>
       <r>   -6.9857    1.0000 </r>
       <r>   -6.9018    1.0000 </r>
       <r>   -6.8573    1.0000 </r>
       <r>   -6.7593    1.0000 </r>
       <r>   -6.7098    1.0000 </r>
       <r>   -6.6532    1.0000 </r>
       <r>   -6.5263    1.0000 </r>
       <r>   -6.4603    1.0000 </r>
       <r>   -6.4474    1.0000 </r>
       <r>   -6.3617    1.0000 </r>
       <r>   -6.2844    1.0000 </r>
       <r>   -6.1754    1.0000 </r>
       <r>   -6.1362    1.0000 </r>
       <r>   -6.0856    1.0000 </r>
       <r>   -6.0526    1.0000 </r>
       <r>   -5.9341    1.0000 </r>
       <r>   -5.8556    1.0000 </r>
       <r>   -5.7657    1.0000 </r>
       <r>   -5.6596    1.0000 </r>
       <r>   -5.6353    1.0000 </r>
       <r>   -5.4877    1.0000 </r>
       <r>   -5.4562    1.0000 </r>
       <r>   -5.3087    1.0000 </r>
       <r>   -5.2223    1.0000 </r>
       <r>   -5.0546    1.0000 </r>
       <r>   -4.9954    1.0000 </r>
       <r>   -4.9189    1.0000 </r>
       <r>   -4.6752    1.0000 </r>
       <r>   -4.5118    1.0000 </r>
       <r>   -4.4721    1.0000 </r>
       <r>   -4.3473    1.0000 </r>
       <r>   -4.2846    1.0000 </r>
       <r>   -4.1773    1.0000 </r>
       <r>   -4.1336    1.0000 </r>
       <r>   -3.8045    1.0000 </r>
       <r>   -3.6332    0.9963 </r>
       <r>   -3.3786    0.8107 </r>
       <r>   -3.2403    0.4610 </r>
       <r>   -3.1033    0.1431 </r>
       <r>   -2.8109    0.0009 </r>
       <r>   -2.7197    0.0001 </r>
       <r>   -2.5904    0.0000 </r>
       <r>   -2.5146    0.0000 </r>
       <r>   -2.3761    0.0000 </r>
       <r>   -2.3146    0.0000 </r>
       <r>   -2.0988    0.0000 </r>
       <r>   -1.9579    0.0000 </r>
       <r>   -1.8961    0.0000 </r>
       <r>   -1.8008    0.0000 </r>
       <r>   -1.7042    0.0000 </r>
       <r>   -1.5591    0.0000 </r>
       <r>   -1.3579    0.0000 </r>
       <r>   -1.2784    0.0000 </r>
       <r>   -1.1316    0.0000 </r>
       <r>   -1.0860    0.0000 </r>
       <r>   -1.0734    0.0000 </r>
       <r>   -0.9844    0.0000 </r>
       <r>   -0.9374    0.0000 </r>
       <r>   -0.8451    0.0000 </r>
       <r>   -0.8160    0.0000 </r>
       <r>   -0.6405    0.0000 </r>
       <r>   -0.5833    0.0000 </r>
       <r>   -0.5260    0.0000 </r>
       <r>   -0.3362    0.0000 </r>
       <r>   -0.2724    0.0000 </r>
       <r>   -0.1081    0.0000 </r>
       <r>    0.0616    0.0000 </r>
       <r>    0.1342    0.0000 </r>
       <r>    0.3032    0.0000 </r>
       <r>    0.5202    0.0000 </r>
       <r>    0.7004    0.0000 </r>
       <r>    0.9071    0.0000 </r>
       <r>    1.0583    0.0000 </r>
       <r>    1.2494    0.0000 </r>
       <r>    1.4674    0.0000 </r>
       <r>    2.0905    0.0000 </r>
       <r>    2.2483    0.0000 </r>
       <r>    2.5488    0.0000 </r>
      </set>
      <set comment="kpoint 33">
       <r>  -17.5128    1.0000 </r>
       <r>  -17.2560    1.0000 </r>
       <r>  -16.9188    1.0000 </r>
       <r>  -16.6415    1.0000 </r>
       <r>  -16.4974    1.0000 </r>
       <r>  -16.4193    1.0000 </r>
       <r>  -16.2696    1.0000 </r>
       <r>  -16.1952    1.0000 </r>
       <r>  -16.1373    1.0000 </r>
       <r>  -16.0336    1.0000 </r>
       <r>  -15.9817    1.0000 </r>
       <r>  -15.8043    1.0000 </r>
       <r>  -15.7680    1.0000 </r>
       <r>  -15.7152    1.0000 </r>
       <r>  -15.6089    1.0000 </r>
       <r>  -15.5395    1.0000 </r>
       <r>  -15.4165    1.0000 </r>
       <r>  -15.3357    1.0000 </r>
       <r>   -9.7274    1.0000 </r>
       <r>   -9.4626    1.0000 </r>
       <r>   -9.3094    1.0000 </r>
       <r>   -8.8913    1.0000 </r>
       <r>   -8.8578    1.0000 </r>
       <r>   -8.6917    1.0000 </r>
       <r>   -8.5944    1.0000 </r>
       <r>   -8.5201    1.0000 </r>
       <r>   -8.4324    1.0000 </r>
       <r>   -8.3345    1.0000 </r>
       <r>   -8.3032    1.0000 </r>
       <r>   -8.2253    1.0000 </r>
       <r>   -8.0763    1.0000 </r>
       <r>   -8.0138    1.0000 </r>
       <r>   -7.9552    1.0000 </r>
       <r>   -7.8481    1.0000 </r>
       <r>   -7.7912    1.0000 </r>
       <r>   -7.7405    1.0000 </r>
       <r>   -7.5888    1.0000 </r>
       <r>   -7.4894    1.0000 </r>
       <r>   -7.4480    1.0000 </r>
       <r>   -7.2114    1.0000 </r>
       <r>   -7.1395    1.0000 </r>
       <r>   -7.0605    1.0000 </r>
       <r>   -6.9857    1.0000 </r>
       <r>   -6.9495    1.0000 </r>
       <r>   -6.8168    1.0000 </r>
       <r>   -6.7808    1.0000 </r>
       <r>   -6.7081    1.0000 </r>
       <r>   -6.5876    1.0000 </r>
       <r>   -6.5543    1.0000 </r>
       <r>   -6.5056    1.0000 </r>
       <r>   -6.4506    1.0000 </r>
       <r>   -6.3887    1.0000 </r>
       <r>   -6.2764    1.0000 </r>
       <r>   -6.2106    1.0000 </r>
       <r>   -6.1217    1.0000 </r>
       <r>   -6.0789    1.0000 </r>
       <r>   -6.0055    1.0000 </r>
       <r>   -5.9329    1.0000 </r>
       <r>   -5.8704    1.0000 </r>
       <r>   -5.7962    1.0000 </r>
       <r>   -5.7280    1.0000 </r>
       <r>   -5.6557    1.0000 </r>
       <r>   -5.5670    1.0000 </r>
       <r>   -5.4184    1.0000 </r>
       <r>   -5.2299    1.0000 </r>
       <r>   -5.1738    1.0000 </r>
       <r>   -5.0841    1.0000 </r>
       <r>   -4.8820    1.0000 </r>
       <r>   -4.8061    1.0000 </r>
       <r>   -4.7064    1.0000 </r>
       <r>   -4.5981    1.0000 </r>
       <r>   -4.4137    1.0000 </r>
       <r>   -4.3808    1.0000 </r>
       <r>   -4.2829    1.0000 </r>
       <r>   -4.1920    1.0000 </r>
       <r>   -4.1596    1.0000 </r>
       <r>   -3.8239    1.0000 </r>
       <r>   -3.6619    0.9980 </r>
       <r>   -3.5283    0.9737 </r>
       <r>   -3.1989    0.3480 </r>
       <r>   -3.0628    0.0881 </r>
       <r>   -2.8301    0.0014 </r>
       <r>   -2.7283    0.0001 </r>
       <r>   -2.5847    0.0000 </r>
       <r>   -2.4677    0.0000 </r>
       <r>   -2.3891    0.0000 </r>
       <r>   -2.2232    0.0000 </r>
       <r>   -2.0853    0.0000 </r>
       <r>   -1.9906    0.0000 </r>
       <r>   -1.8903    0.0000 </r>
       <r>   -1.8168    0.0000 </r>
       <r>   -1.6852    0.0000 </r>
       <r>   -1.5642    0.0000 </r>
       <r>   -1.3378    0.0000 </r>
       <r>   -1.2607    0.0000 </r>
       <r>   -1.1214    0.0000 </r>
       <r>   -1.1091    0.0000 </r>
       <r>   -1.0295    0.0000 </r>
       <r>   -0.9804    0.0000 </r>
       <r>   -0.9273    0.0000 </r>
       <r>   -0.8571    0.0000 </r>
       <r>   -0.8089    0.0000 </r>
       <r>   -0.6840    0.0000 </r>
       <r>   -0.6236    0.0000 </r>
       <r>   -0.4903    0.0000 </r>
       <r>   -0.4062    0.0000 </r>
       <r>   -0.2361    0.0000 </r>
       <r>   -0.0237    0.0000 </r>
       <r>    0.0860    0.0000 </r>
       <r>    0.1650    0.0000 </r>
       <r>    0.2680    0.0000 </r>
       <r>    0.5038    0.0000 </r>
       <r>    0.7103    0.0000 </r>
       <r>    0.9348    0.0000 </r>
       <r>    1.0716    0.0000 </r>
       <r>    1.1766    0.0000 </r>
       <r>    1.4564    0.0000 </r>
       <r>    2.1237    0.0000 </r>
       <r>    2.2827    0.0000 </r>
       <r>    2.3865    0.0000 </r>
      </set>
      <set comment="kpoint 34">
       <r>  -17.4907    1.0000 </r>
       <r>  -17.3193    1.0000 </r>
       <r>  -16.7309    1.0000 </r>
       <r>  -16.7173    1.0000 </r>
       <r>  -16.6111    1.0000 </r>
       <r>  -16.4276    1.0000 </r>
       <r>  -16.2561    1.0000 </r>
       <r>  -16.2117    1.0000 </r>
       <r>  -16.0961    1.0000 </r>
       <r>  -16.0256    1.0000 </r>
       <r>  -15.9571    1.0000 </r>
       <r>  -15.8309    1.0000 </r>
       <r>  -15.7629    1.0000 </r>
       <r>  -15.7088    1.0000 </r>
       <r>  -15.6063    1.0000 </r>
       <r>  -15.5287    1.0000 </r>
       <r>  -15.4169    1.0000 </r>
       <r>  -15.3534    1.0000 </r>
       <r>   -9.7698    1.0000 </r>
       <r>   -9.4022    1.0000 </r>
       <r>   -9.1588    1.0000 </r>
       <r>   -9.0247    1.0000 </r>
       <r>   -8.9049    1.0000 </r>
       <r>   -8.7309    1.0000 </r>
       <r>   -8.6336    1.0000 </r>
       <r>   -8.5576    1.0000 </r>
       <r>   -8.4693    1.0000 </r>
       <r>   -8.3378    1.0000 </r>
       <r>   -8.2513    1.0000 </r>
       <r>   -8.2197    1.0000 </r>
       <r>   -8.0411    1.0000 </r>
       <r>   -7.9215    1.0000 </r>
       <r>   -7.9053    1.0000 </r>
       <r>   -7.8040    1.0000 </r>
       <r>   -7.7908    1.0000 </r>
       <r>   -7.7410    1.0000 </r>
       <r>   -7.6475    1.0000 </r>
       <r>   -7.5260    1.0000 </r>
       <r>   -7.4496    1.0000 </r>
       <r>   -7.2444    1.0000 </r>
       <r>   -7.1065    1.0000 </r>
       <r>   -7.0843    1.0000 </r>
       <r>   -6.9830    1.0000 </r>
       <r>   -6.9253    1.0000 </r>
       <r>   -6.8120    1.0000 </r>
       <r>   -6.7237    1.0000 </r>
       <r>   -6.6878    1.0000 </r>
       <r>   -6.6372    1.0000 </r>
       <r>   -6.5592    1.0000 </r>
       <r>   -6.5124    1.0000 </r>
       <r>   -6.4526    1.0000 </r>
       <r>   -6.3686    1.0000 </r>
       <r>   -6.2876    1.0000 </r>
       <r>   -6.2506    1.0000 </r>
       <r>   -6.1150    1.0000 </r>
       <r>   -6.0729    1.0000 </r>
       <r>   -5.9859    1.0000 </r>
       <r>   -5.9427    1.0000 </r>
       <r>   -5.9235    1.0000 </r>
       <r>   -5.8311    1.0000 </r>
       <r>   -5.7347    1.0000 </r>
       <r>   -5.6807    1.0000 </r>
       <r>   -5.5751    1.0000 </r>
       <r>   -5.4576    1.0000 </r>
       <r>   -5.2379    1.0000 </r>
       <r>   -5.0872    1.0000 </r>
       <r>   -4.9913    1.0000 </r>
       <r>   -4.8990    1.0000 </r>
       <r>   -4.7553    1.0000 </r>
       <r>   -4.7019    1.0000 </r>
       <r>   -4.6081    1.0000 </r>
       <r>   -4.4429    1.0000 </r>
       <r>   -4.3225    1.0000 </r>
       <r>   -4.2962    1.0000 </r>
       <r>   -4.2215    1.0000 </r>
       <r>   -4.1587    1.0000 </r>
       <r>   -3.8251    1.0000 </r>
       <r>   -3.6772    0.9986 </r>
       <r>   -3.6314    0.9962 </r>
       <r>   -3.1805    0.3014 </r>
       <r>   -3.0333    0.0592 </r>
       <r>   -2.8412    0.0018 </r>
       <r>   -2.7331    0.0001 </r>
       <r>   -2.5839    0.0000 </r>
       <r>   -2.4387    0.0000 </r>
       <r>   -2.4103    0.0000 </r>
       <r>   -2.1773    0.0000 </r>
       <r>   -2.0863    0.0000 </r>
       <r>   -2.0110    0.0000 </r>
       <r>   -1.8835    0.0000 </r>
       <r>   -1.8216    0.0000 </r>
       <r>   -1.6732    0.0000 </r>
       <r>   -1.5460    0.0000 </r>
       <r>   -1.3594    0.0000 </r>
       <r>   -1.2228    0.0000 </r>
       <r>   -1.1354    0.0000 </r>
       <r>   -1.1271    0.0000 </r>
       <r>   -1.0149    0.0000 </r>
       <r>   -0.9532    0.0000 </r>
       <r>   -0.9192    0.0000 </r>
       <r>   -0.8474    0.0000 </r>
       <r>   -0.7838    0.0000 </r>
       <r>   -0.7338    0.0000 </r>
       <r>   -0.6788    0.0000 </r>
       <r>   -0.4861    0.0000 </r>
       <r>   -0.4134    0.0000 </r>
       <r>   -0.2223    0.0000 </r>
       <r>    0.0163    0.0000 </r>
       <r>    0.0624    0.0000 </r>
       <r>    0.2221    0.0000 </r>
       <r>    0.2367    0.0000 </r>
       <r>    0.4782    0.0000 </r>
       <r>    0.7252    0.0000 </r>
       <r>    0.9390    0.0000 </r>
       <r>    1.1121    0.0000 </r>
       <r>    1.1424    0.0000 </r>
       <r>    1.4565    0.0000 </r>
       <r>    2.2021    0.0000 </r>
       <r>    2.2416    0.0000 </r>
       <r>    2.3742    0.0000 </r>
      </set>
     </set>
    </set>
   </array>
  </eigenvalues>
  <separator name="orbital magnetization" >
   <v name="MAGDIPOLOUT">      0.00000000      0.00000000      0.00000000</v>
  </separator>
 </calculation>
 <structure name="finalpos" >
  <crystal>
   <varray name="basis" >
    <v>       8.38019543       4.83231851       0.00000000 </v>
    <v>      -8.38120271       4.83382991       0.00000000 </v>
    <v>       0.00000000       0.00000000      30.00000000 </v>
   </varray>
   <i name="volume">   2430.27241052 </i>
   <varray name="rec_basis" >
    <v>       0.05967022       0.10346004       0.00000000 </v>
    <v>      -0.05965157       0.10344761       0.00000000 </v>
    <v>       0.00000000       0.00000000       0.03333333 </v>
   </varray>
  </crystal>
  <varray name="positions" >
   <v>       0.66276430       0.34769237      -0.00028308 </v>
   <v>       1.02424182       0.33565695      -0.00202581 </v>
   <v>       0.35254153       0.36447237       0.00027334 </v>
   <v>       0.67045334       0.67481030       0.00014560 </v>
   <v>       0.36173265       0.67648731      -0.00020625 </v>
   <v>       0.65050152      -0.02856114       0.00010687 </v>
   <v>      -0.03651162      -0.01865551       0.00078894 </v>
   <v>      -0.03034588       0.67430198       0.00021267 </v>
   <v>       0.35859726      -0.01487539       0.00034444 </v>
   <v>       0.11746366       0.22368757       0.95156489 </v>
   <v>       0.22381143       0.10984907       0.04008600 </v>
   <v>       0.10725201       0.56059752       0.95543363 </v>
   <v>       0.22583009       0.44153302       0.05095637 </v>
   <v>       0.10904935       0.89278582       0.95092897 </v>
   <v>       0.21597982       0.76841809       0.04860806 </v>
   <v>       0.44500466       0.22252828       0.95246750 </v>
   <v>       0.56284858       0.11402167       0.05080536 </v>
   <v>       0.44521054       0.55166366       0.94552540 </v>
   <v>       0.55234166       0.44146431       0.05182925 </v>
   <v>       0.44695804       0.88302911       0.94302830 </v>
   <v>       0.55654537       0.77347481       0.05698753 </v>
   <v>       0.78150322       0.22476936       0.95717175 </v>
   <v>       0.88776949       0.11923763       0.05032400 </v>
   <v>       0.76849642       0.54922972       0.94677043 </v>
   <v>       0.88473202       0.44440073       0.04753531 </v>
   <v>       0.77159542       0.88475678       0.94361064 </v>
   <v>       0.88184776       0.78143805       0.05700979 </v>
  </varray>
 </structure>
</modeling>
