unknown system                          
           1
     8.852332    5.102974    0.000000
    -8.856288    5.109779    0.000000
     0.000000    0.000000   30.000000
   V    Mo   W    S 
   3   3   3  18
Direct configuration=     1
   0.66666669  0.33333334  0.00000000
   1.00000000  0.33333334  0.00000000
   0.33333334  0.33333334  0.00000000
   0.66666669  0.66666669  0.00000000
   0.33333334  0.66666669  0.00000000
   0.66666669  0.00000000  0.00000000
   0.00000000  0.00000000  0.00000000
   0.00000000  0.66666669  0.00000000
   0.33333334  0.00000000  0.00000000
   0.11068511  0.22244981  0.95539999
   0.22244981  0.11068511  0.04460000
   0.11068511  0.55578315  0.95539999
   0.22244981  0.44401845  0.04460000
   0.11068511  0.88911647  0.95539999
   0.22244981  0.77735180  0.04460000
   0.44401845  0.22244981  0.95539999
   0.55578315  0.11068511  0.04460000
   0.44401845  0.55578315  0.95539999
   0.55578315  0.44401845  0.04460000
   0.44401845  0.88911647  0.95539999
   0.55578315  0.77735180  0.04460000
   0.77735180  0.22244981  0.95539999
   0.88911647  0.11068511  0.04460000
   0.77735180  0.55578315  0.95539999
   0.88911647  0.44401845  0.04460000
   0.77735180  0.88911647  0.95539999
   0.88911647  0.77735180  0.04460000
unknown system                          
           1
     8.664430    4.997033    0.000000
    -8.667801    5.002829    0.000000
     0.000000    0.000000   30.000000
   V    Mo   W    S 
   3   3   3  18
Direct configuration=     2
   0.66663454  0.33324819 -0.00004475
   0.99996168  0.33324207 -0.00004253
   0.33451071  0.33578170  0.00009107
   0.66513885  0.66791414  0.00022026
   0.33599437  0.66777899  0.00021286
   0.66543576 -0.00254513 -0.00027953
  -0.00286319 -0.00095045 -0.00018369
  -0.00022046  0.66616367  0.00014757
   0.33513161 -0.00106893 -0.00019317
   0.11251817  0.22560872  0.95312417
   0.22386629  0.11469073  0.04796668
   0.10840084  0.55143741  0.95200146
   0.22019545  0.43994964  0.04686595
   0.11119674  0.88902108  0.95069394
   0.22156861  0.77792070  0.04928856
   0.44585583  0.22561411  0.95312937
   0.55672936  0.11510668  0.04805461
   0.44213120  0.55091899  0.95191499
   0.55346558  0.43994221  0.04686059
   0.44399860  0.88948547  0.95068942
   0.55536485  0.77746822  0.04933095
   0.77964684  0.22655566  0.95317880
   0.89148169  0.11512874  0.04806785
   0.77644099  0.55145497  0.95201462
   0.88729878  0.44090321  0.04690377
   0.77878575  0.88950375  0.95069236
   0.88954502  0.77793989  0.04929369
unknown system                          
           1
     8.482830    4.897545    0.000000
    -8.486031    4.903054    0.000000
     0.000000    0.000000   30.000000
   V    Mo   W    S 
   3   3   3  18
Direct configuration=     3
   0.66663960  0.33324059 -0.00009552
   0.99995154  0.33323689 -0.00009300
   0.33486883  0.33648880  0.00015382
   0.66495212  0.66879442  0.00024131
   0.33705956  0.66866676  0.00023167
   0.66481533 -0.00378427 -0.00029202
  -0.00389547 -0.00163988 -0.00013934
  -0.00006136  0.66646031  0.00009723
   0.33546304 -0.00175689 -0.00015218
   0.11244646  0.22544187  0.95320093
   0.22379306  0.11449595  0.04774855
   0.10824382  0.55146619  0.95209846
   0.22015292  0.43987840  0.04683513
   0.11119331  0.88905546  0.95075864
   0.22148576  0.77802125  0.04931168
   0.44580103  0.22544260  0.95320947
   0.55658423  0.11508517  0.04801364
   0.44204150  0.55077215  0.95184844
   0.55339161  0.43987294  0.04682705
   0.44388122  0.88958519  0.95052772
   0.55537941  0.77748424  0.04955777
   0.77970327  0.22662380  0.95325674
   0.89164311  0.11510520  0.04802712
   0.77658913  0.55148010  0.95211126
   0.88735209  0.44105488  0.04687647
   0.77897807  0.88960286  0.95052625
   0.88976125  0.77803947  0.04931257
unknown system                          
           1
     8.263429    4.770462    0.000000
    -8.277539    4.794865    0.000000
     0.000000    0.000000   30.000000
   V    Mo   W    S 
   3   3   3  18
Direct configuration=     4
   0.66668220  0.33324318 -0.00026859
   0.99988987  0.33323253 -0.00026598
   0.33613483  0.33897729  0.00034312
   0.66495660  0.67291487  0.00021046
   0.34118520  0.67280320  0.00020325
   0.66215310 -0.00911907 -0.00023473
  -0.00795903 -0.00499575  0.00008696
   0.00094522  0.66843162 -0.00014102
   0.33611198 -0.00507072  0.00007377
   0.11299872  0.22628291  0.95217338
   0.22417891  0.11509917  0.04829449
   0.10799535  0.55057800  0.95106225
   0.21964845  0.43907284  0.04800951
   0.11125636  0.88932237  0.94937437
   0.22156297  0.77789627  0.05104322
   0.44623802  0.22626900  0.95218600
   0.55740058  0.11608672  0.04930078
   0.44143160  0.54960862  0.95019739
   0.55292296  0.43909221  0.04799452
   0.44390240  0.88940148  0.94823652
   0.55549049  0.77765863  0.05205926
   0.78015992  0.22734618  0.95228765
   0.89195238  0.11610903  0.04931347
   0.77583137  0.55060192  0.95107748
   0.88678260  0.44006457  0.04812886
   0.77870825  0.88940383  0.94822439
   0.88965315  0.77790357  0.05102913
unknown system                          
           1
     8.263722    4.771170    0.000000
    -8.291840    4.819842    0.000000
     0.000000    0.000000   30.000000
   V    Mo   W    S 
   3   3   3  18
Direct configuration=     5
   0.66665130  0.33320751 -0.00049676
   0.99985736  0.33320833 -0.00049531
   0.33883754  0.34434343  0.00058530
   0.66570217  0.68117899  0.00007032
   0.34865813  0.68108776  0.00008326
   0.65710079 -0.01926157 -0.00005233
  -0.01680831 -0.01207286  0.00035882
   0.00321182  0.67284260 -0.00047756
   0.33780456 -0.01212134  0.00037171
   0.11331965  0.22652190  0.95089458
   0.22418996  0.11508773  0.04852939
   0.10898083  0.55031779  0.94985297
   0.21969825  0.43952492  0.04968042
   0.11175853  0.89036581  0.94756398
   0.22181496  0.77680067  0.05354084
   0.44640337  0.22651219  0.95090033
   0.55866190  0.11640470  0.05090551
   0.44134361  0.54940630  0.94797711
   0.55307791  0.43955421  0.04967174
   0.44457274  0.88903733  0.94484354
   0.55547765  0.77767556  0.05582413
   0.77990760  0.22656923  0.95096319
   0.89103498  0.11644292  0.05093242
   0.77459476  0.55035809  0.94987829
   0.88632803  0.43938206  0.04974692
   0.77771244  0.88903563  0.94482384
   0.88832193  0.77680456  0.05352324
unknown system                          
           1
     8.258859    4.768335    0.000000
    -8.287237    4.817457    0.000000
     0.000000    0.000000   30.000000
   V    Mo   W    S 
   3   3   3  18
Direct configuration=     6
   0.66642573  0.33307365 -0.00057935
   0.99993520  0.33307789 -0.00057302
   0.34014430  0.34696244  0.00068922
   0.66614719  0.68129935  0.00024694
   0.34828732  0.68122812  0.00024571
   0.65731100 -0.01884383 -0.00015035
  -0.01907432 -0.01364472  0.00022624
   0.00389846  0.67417803 -0.00040200
   0.33852685 -0.01371748  0.00021988
   0.11299855  0.22566452  0.95113619
   0.22360834  0.11396665  0.04786730
   0.10994911  0.55129929  0.95006300
   0.22024989  0.44069845  0.04962027
   0.11217723  0.89117295  0.94761178
   0.22186500  0.77604639  0.05372572
   0.44586608  0.22565602  0.95114165
   0.55871349  0.11526623  0.05083956
   0.44189908  0.55052866  0.94792492
   0.55372435  0.44073458  0.04961419
   0.44515668  0.88924388  0.94458497
   0.55523847  0.77719189  0.05603634
   0.77924563  0.22526041  0.95110949
   0.88984253  0.11529561  0.05086052
   0.77463533  0.55134124  0.95009191
   0.88661425  0.43994338  0.04959953
   0.77732478  0.88923607  0.94455595
   0.88750393  0.77605479  0.05369334
unknown system                          
           1
     8.264968    4.771865    0.000000
    -8.297718    4.828559    0.000000
     0.000000    0.000000   30.000000
   V    Mo   W    S 
   3   3   3  18
Direct configuration=     7
   0.66608373  0.33273101 -0.00069068
   0.99992718  0.33274349 -0.00068191
   0.34176493  0.35021324  0.00074971
   0.66652509  0.68238590  0.00023947
   0.34894319  0.68231541  0.00024494
   0.65681366 -0.01984210 -0.00007866
  -0.02210093 -0.01572296  0.00023641
   0.00479399  0.67588642 -0.00040706
   0.33947594 -0.01581130  0.00023707
   0.11285563  0.22508017  0.95133089
   0.22326244  0.11328686  0.04715432
   0.11038138  0.55178667  0.95022042
   0.22049534  0.44140689  0.04971134
   0.11242637  0.89165520  0.94759321
   0.22190834  0.77570757  0.05400284
   0.44543863  0.22507057  0.95133465
   0.55872246  0.11457845  0.05086408
   0.44220304  0.55113740  0.94779935
   0.55418671  0.44144623  0.04970736
   0.44544538  0.88900578  0.94419980
   0.55518846  0.77711403  0.05629324
   0.77892623  0.22460833  0.95114740
   0.88913569  0.11460709  0.05088526
   0.77471189  0.55183582  0.95025775
   0.88678719  0.44029829  0.04950466
   0.77680875  0.88898978  0.94417882
   0.88710374  0.77570020  0.05396520
unknown system                          
           1
     8.265828    4.773043    0.000000
    -8.306074    4.842730    0.000000
     0.000000    0.000000   30.000000
   V    Mo   W    S 
   3   3   3  18
Direct configuration=     8
   0.66551570  0.33210768 -0.00083727
   0.99982090  0.33214968 -0.00082223
   0.34374043  0.35407719  0.00088150
   0.66680298  0.68307014  0.00028658
   0.34930578  0.68301962  0.00029367
   0.65652931 -0.02037486 -0.00010446
  -0.02511740 -0.01760315  0.00021511
   0.00570973  0.67764762 -0.00038837
   0.34067417 -0.01765619  0.00021695
   0.11278511  0.22445678  0.95163952
   0.22292098  0.11261574  0.04618811
   0.11068910  0.55228932  0.95046066
   0.22072785  0.44210621  0.04975549
   0.11274431  0.89227446  0.94766772
   0.22189196  0.77528064  0.05425416
   0.44492352  0.22446498  0.95164741
   0.55867405  0.11382006  0.05088713
   0.44253463  0.55180839  0.94765831
   0.55466951  0.44212923  0.04974618
   0.44582255  0.88877004  0.94386228
   0.55506966  0.77690448  0.05646448
   0.77864345  0.22408327  0.95124529
   0.88840082  0.11381578  0.05091165
   0.77491707  0.55231540  0.95051820
   0.88693827  0.44063801  0.04930235
   0.77620535  0.88874739  0.94384444
   0.88667468  0.77525655  0.05420504
unknown system                          
           1
     8.279272    4.780456    0.000000
    -8.318909    4.849082    0.000000
     0.000000    0.000000   30.000000
   V    Mo   W    S 
   3   3   3  18
Direct configuration=     9
   0.66397831  0.33005695 -0.00114268
   0.99934102  0.33019682 -0.00111852
   0.34755673  0.36181160  0.00123558
   0.66701422  0.68430884  0.00036037
   0.35014838  0.68422574  0.00036581
   0.65609098 -0.02127320 -0.00018941
  -0.03060963 -0.02058050  0.00021871
   0.00767876  0.68123032 -0.00032650
   0.34316535 -0.02067777  0.00021579
   0.11291621  0.22348819  0.95235255
   0.22249442  0.11175310  0.04399597
   0.11078085  0.55293597  0.95105964
   0.22098592  0.44325505  0.04982355
   0.11336712  0.89345525  0.94794942
   0.22183910  0.77460311  0.05464276
   0.44380936  0.22347321  0.95234341
   0.55847962  0.11239306  0.05098361
   0.44315045  0.55306190  0.94734067
   0.55559515  0.44330314  0.04982690
   0.44646311  0.88809283  0.94325807
   0.55487734  0.77655654  0.05669468
   0.77834767  0.22347793  0.95140479
   0.88716530  0.11237330  0.05098612
   0.77551760  0.55300429  0.95113986
   0.88717267  0.44110413  0.04876391
   0.77488391  0.88805669  0.94324774
   0.88600452  0.77452798  0.05456713
unknown system                          
           1
     8.277980    4.779846    0.000000
    -8.318399    4.849829    0.000000
     0.000000    0.000000   30.000000
   V    Mo   W    S 
   3   3   3  18
Direct configuration=    10
   0.66349736  0.32923840 -0.00114207
   0.99900971  0.32943072 -0.00111143
   0.34746513  0.36160810  0.00127526
   0.66674649  0.68423495  0.00033068
   0.35028332  0.68413245  0.00033572
   0.65619662 -0.02106165 -0.00023862
  -0.03016474 -0.02009652  0.00019335
   0.00787902  0.68151416 -0.00028334
   0.34322487 -0.02016507  0.00019116
   0.11314318  0.22360221  0.95237016
   0.22264544  0.11205524  0.04380728
   0.11059811  0.55278885  0.95112966
   0.22089824  0.44336974  0.04986837
   0.11343146  0.89358428  0.94794403
   0.22186416  0.77460441  0.05467842
   0.44369231  0.22358529  0.95236328
   0.55852061  0.11236998  0.05108320
   0.44323139  0.55322252  0.94728091
   0.55577600  0.44342322  0.04986209
   0.44648363  0.88795725  0.94322437
   0.55488539  0.77659421  0.05672310
   0.77839783  0.22354309  0.95131996
   0.88709540  0.11236350  0.05108511
   0.77556982  0.55287463  0.95122653
   0.88712885  0.44099730  0.04868337
   0.77473783  0.88792185  0.94321276
   0.88597701  0.77452134  0.05458657
unknown system                          
           1
     8.281731    4.782154    0.000000
    -8.322412    4.852590    0.000000
     0.000000    0.000000   30.000000
   V    Mo   W    S 
   3   3   3  18
Direct configuration=    11
   0.66264370  0.32785854 -0.00118826
   0.99851276  0.32814200 -0.00114829
   0.34828933  0.36327705  0.00140574
   0.66653304  0.68457006  0.00033121
   0.35070950  0.68443696  0.00033780
   0.65620575 -0.02105821 -0.00026904
  -0.03126431 -0.02049594  0.00018076
   0.00857354  0.68267710 -0.00024457
   0.34392429 -0.02057034  0.00017800
   0.11334010  0.22350704  0.95253620
   0.22268585  0.11213631  0.04319707
   0.11047156  0.55282251  0.95137890
   0.22092374  0.44370905  0.04985474
   0.11358280  0.89387367  0.94802920
   0.22194093  0.77456529  0.05471202
   0.44339469  0.22348628  0.95252509
   0.55845907  0.11200249  0.05114101
   0.44340442  0.55357620  0.94722627
   0.55609073  0.44377229  0.04984397
   0.44658259  0.88775418  0.94314067
   0.55487427  0.77660269  0.05671470
   0.77836492  0.22345814  0.95129521
   0.88678492  0.11199185  0.05113490
   0.77575225  0.55292532  0.95150094
   0.88714509  0.44102161  0.04845561
   0.77443939  0.88771620  0.94312941
   0.88584953  0.77445612  0.05460062
unknown system                          
           1
     8.282217    4.782501    0.000000
    -8.323128    4.853338    0.000000
     0.000000    0.000000   30.000000
   V    Mo   W    S 
   3   3   3  18
Direct configuration=    12
   0.66191028  0.32656750 -0.00119989
   0.99798871  0.32695020 -0.00115068
   0.34869336  0.36409398  0.00149528
   0.66630217  0.68474893  0.00032123
   0.35100177  0.68458561  0.00032933
   0.65632673 -0.02082980 -0.00029917
  -0.03169344 -0.02056003  0.00016318
   0.00909791  0.68350656 -0.00021830
   0.34428793 -0.02063625  0.00015991
   0.11352078  0.22351426  0.95259804
   0.22276739  0.11229962  0.04285287
   0.11035573  0.55277317  0.95156165
   0.22091876  0.44393920  0.04984440
   0.11369127  0.89408106  0.94804977
   0.22203158  0.77459323  0.05473638
   0.44322150  0.22349302  0.95258400
   0.55843638  0.11181804  0.05121979
   0.44350967  0.55379244  0.94718853
   0.55632995  0.44400677  0.04982570
   0.44664571  0.88764417  0.94308842
   0.55488633  0.77665713  0.05672229
   0.77835785  0.22343928  0.95122686
   0.88661411  0.11179573  0.05120840
   0.77583460  0.55288212  0.95171282
   0.88712981  0.44099585  0.04829753
   0.77427029  0.88760454  0.94307668
   0.88577732  0.77445812  0.05460485
unknown system                          
           1
     8.276219    4.778852    0.000000
    -8.317769    4.850792    0.000000
     0.000000    0.000000   30.000000
   V    Mo   W    S 
   3   3   3  18
Direct configuration=    13
   0.66154356  0.32587903 -0.00120208
   0.99768661  0.32632261 -0.00114768
   0.34885464  0.36441739  0.00153515
   0.66620462  0.68486615  0.00031572
   0.35114931  0.68468466  0.00032464
   0.65640158 -0.02068795 -0.00031293
  -0.03184972 -0.02058908  0.00015305
   0.00937023  0.68392628 -0.00020701
   0.34441507 -0.02066395  0.00014969
   0.11359033  0.22351409  0.95261788
   0.22279815  0.11236327  0.04271113
   0.11030299  0.55274518  0.95165527
   0.22091211  0.44405436  0.04983578
   0.11374606  0.89418517  0.94805169
   0.22207703  0.77461462  0.05474766
   0.44315056  0.22349182  0.95260148
   0.55841633  0.11173862  0.05126188
   0.44356070  0.55389777  0.94717201
   0.55645321  0.44412428  0.04981309
   0.44668043  0.88760438  0.94306637
   0.55489921  0.77669932  0.05672510
   0.77835811  0.22343449  0.95118269
   0.88654987  0.11171052  0.05124697
   0.77586894  0.55285768  0.95182322
   0.88712830  0.44099417  0.04822009
   0.77419863  0.88756413  0.94305455
   0.88574761  0.77446545  0.05460450
unknown system                          
           1
     8.288183    4.786187    0.000000
    -8.329571    4.857855    0.000000
     0.000000    0.000000   30.000000
   V    Mo   W    S 
   3   3   3  18
Direct configuration=    14
   0.66208133  0.32690932 -0.00121428
   0.99817738  0.32712867 -0.00117805
   0.34870925  0.36430365  0.00150151
   0.66641123  0.68483594  0.00032480
   0.35099157  0.68467712  0.00033073
   0.65620987 -0.02113329 -0.00030898
  -0.03196239 -0.02068104  0.00017353
   0.00911977  0.68356818 -0.00022509
   0.34430925 -0.02088260  0.00016383
   0.11353444  0.22351710  0.95264947
   0.22274561  0.11224432  0.04271257
   0.11032142  0.55281663  0.95158449
   0.22088092  0.44400173  0.04987795
   0.11368525  0.89405488  0.94810652
   0.22200104  0.77452381  0.05473578
   0.44311900  0.22344252  0.95262481
   0.55846327  0.11169655  0.05122047
   0.44357158  0.55391114  0.94715285
   0.55639383  0.44410148  0.04987364
   0.44664374  0.88753586  0.94306478
   0.55485553  0.77658573  0.05672125
   0.77838594  0.22337036  0.95126318
   0.88651150  0.11175156  0.05119815
   0.77595401  0.55302635  0.95169621
   0.88719690  0.44101466  0.04829019
   0.77416070  0.88749905  0.94305445
   0.88574252  0.77439478  0.05460511
unknown system                          
           1
     8.289710    4.787058    0.000000
    -8.331025    4.858599    0.000000
     0.000000    0.000000   30.000000
   V    Mo   W    S 
   3   3   3  18
Direct configuration=    15
   0.66028373  0.32353924 -0.00121087
   0.99666232  0.32422285 -0.00113577
   0.34943248  0.36552281  0.00166770
   0.66584459  0.68520109  0.00029618
   0.35162592  0.68496118  0.00030826
   0.65667578 -0.02014200 -0.00035863
  -0.03233884 -0.02066091  0.00011662
   0.01026055  0.68530090 -0.00016537
   0.34487168 -0.02069310  0.00011480
   0.11382932  0.22350427  0.95267767
   0.22290709  0.11259004  0.04225323
   0.11014130  0.55264459  0.95195344
   0.22090311  0.44442485  0.04980595
   0.11393789  0.89455537  0.94804181
   0.22223111  0.77468679  0.05479854
   0.44292790  0.22349565  0.95265793
   0.55835262  0.11150024  0.05140394
   0.44371698  0.55422243  0.94711916
   0.55684853  0.44449213  0.04976535
   0.44680534  0.88748931  0.94298426
   0.55494313  0.77684365  0.05674753
   0.77834467  0.22343115  0.95103227
   0.88634448  0.11142959  0.05138202
   0.77594801  0.55273768  0.95218729
   0.88709984  0.44097836  0.04796745
   0.77396890  0.88744582  0.94297174
   0.88564601  0.77449050  0.05461740
unknown system                          
           1
     8.281059    4.782947    0.000000
    -8.321267    4.852584    0.000000
     0.000000    0.000000   30.000000
   V    Mo   W    S 
   3   3   3  18
Direct configuration=    16
   0.65984610  0.32260644 -0.00120337
   0.99620840  0.32325364 -0.00112814
   0.34959644  0.36597572  0.00172135
   0.66569420  0.68534020  0.00028775
   0.35181201  0.68508657  0.00030074
   0.65683628 -0.01987488 -0.00037913
  -0.03253824 -0.02061448  0.00010348
   0.01065832  0.68587910 -0.00013236
   0.34502474 -0.02073691  0.00009558
   0.11391013  0.22353108  0.95270271
   0.22295944  0.11268985  0.04206283
   0.11003939  0.55254518  0.95209356
   0.22084446  0.44456164  0.04978842
   0.11402401  0.89471050  0.94802464
   0.22228878  0.77471027  0.05482415
   0.44281655  0.22348621  0.95267558
   0.55831721  0.11137075  0.05146616
   0.44378631  0.55436793  0.94709468
   0.55702467  0.44465468  0.04974819
   0.44684956  0.88743316  0.94294598
   0.55496051  0.77690348  0.05675942
   0.77839106  0.22343786  0.95097435
   0.88626990  0.11134208  0.05143551
   0.77599130  0.55270411  0.95233443
   0.88712400  0.44096592  0.04785062
   0.77387010  0.88738947  0.94293301
   0.88560883  0.77449489  0.05461974
unknown system                          
           1
     8.283094    4.784001    0.000000
    -8.322432    4.852129    0.000000
     0.000000    0.000000   30.000000
   V    Mo   W    S 
   3   3   3  18
Direct configuration=    17
   0.66213315  0.32754069 -0.00126970
   0.99883957  0.32864667 -0.00121127
   0.34888900  0.36411847  0.00147333
   0.66647200  0.68448308  0.00032242
   0.35072202  0.68422389  0.00033146
   0.65605995 -0.02116164 -0.00025653
  -0.03198620 -0.02061409  0.00022063
   0.00840961  0.68259596 -0.00027589
   0.34481809 -0.02039628  0.00023790
   0.11354255  0.22345796  0.95268500
   0.22268789  0.11216655  0.04284491
   0.11058699  0.55310240  0.95132934
   0.22116797  0.44383047  0.04989483
   0.11360399  0.89391202  0.94815720
   0.22189540  0.77448875  0.05468035
   0.44328152  0.22353152  0.95262732
   0.55861899  0.11197056  0.05112052
   0.44345302  0.55363192  0.94717755
   0.55618579  0.44382124  0.04989304
   0.44655932  0.88756652  0.94309207
   0.55481926  0.77647904  0.05675792
   0.77818238  0.22342761  0.95141896
   0.88651253  0.11169789  0.05107836
   0.77577491  0.55290956  0.95151228
   0.88693529  0.44089739  0.04844361
   0.77427051  0.88754305  0.94307951
   0.88577895  0.77434325  0.05463477
unknown system                          
           1
     8.286153    4.785498    0.000000
    -8.322776    4.848920    0.000000
     0.000000    0.000000   30.000000
   V    Mo   W    S 
   3   3   3  18
Direct configuration=    18
   0.66259618  0.32887439 -0.00129481
   0.99984142  0.33041368 -0.00124329
   0.34889870  0.36401838  0.00141272
   0.66666368  0.68428705  0.00034461
   0.35050558  0.68397390  0.00034432
   0.65566389 -0.02186045 -0.00025874
  -0.03213499 -0.02080641  0.00023626
   0.00779850  0.68177062 -0.00030987
   0.34487880 -0.02042805  0.00025758
   0.11353848  0.22345023  0.95274206
   0.22261787  0.11203597  0.04287529
   0.11069388  0.55326845  0.95113294
   0.22124655  0.44370184  0.04996178
   0.11354966  0.89377313  0.94826580
   0.22180418  0.77439773  0.05462945
   0.44326608  0.22350846  0.95264291
   0.55882155  0.11210203  0.05108136
   0.44340316  0.55348157  0.94717914
   0.55606095  0.44368486  0.04996517
   0.44650014  0.88750162  0.94311753
   0.55475669  0.77631085  0.05674428
   0.77812422  0.22334695  0.95155659
   0.88644704  0.11179612  0.05100701
   0.77575336  0.55296059  0.95131316
   0.88688485  0.44087543  0.04856008
   0.77426440  0.88750547  0.94310488
   0.88576963  0.77427004  0.05463170
unknown system                          
           1
     8.294439    4.790291    0.000000
    -8.331790    4.854974    0.000000
     0.000000    0.000000   30.000000
   V    Mo   W    S 
   3   3   3  18
Direct configuration=    19
   0.66291350  0.33025142 -0.00137043
   1.00154790  0.33316649 -0.00131982
   0.34907725  0.36439104  0.00140436
   0.66711877  0.68419839  0.00038149
   0.35016423  0.68366974  0.00037154
   0.65483495 -0.02326881 -0.00027513
  -0.03296915 -0.02099989  0.00032652
   0.00693959  0.68065693 -0.00025763
   0.34567643 -0.02037090  0.00035038
   0.11360070  0.22353651  0.95297719
   0.22247266  0.11177308  0.04245611
   0.11065855  0.55345131  0.95096347
   0.22114998  0.44376318  0.05015281
   0.11362071  0.89386289  0.94848568
   0.22178670  0.77419889  0.05452311
   0.44311861  0.22344582  0.95275713
   0.55915087  0.11193156  0.05099521
   0.44363370  0.55379445  0.94707643
   0.55633240  0.44378526  0.05013961
   0.44641270  0.88710248  0.94305830
   0.55458687  0.77590084  0.05673281
   0.77813673  0.22314192  0.95191130
   0.88604042  0.11174500  0.05081391
   0.77578657  0.55295563  0.95117252
   0.88686720  0.44084957  0.04852416
   0.77394744  0.88717515  0.94304059
   0.88560817  0.77410650  0.05460827
unknown system                          
           1
     8.293539    4.789929    0.000000
    -8.330759    4.854389    0.000000
     0.000000    0.000000   30.000000
   V    Mo   W    S 
   3   3   3  18
Direct configuration=    20
   0.66193856  0.32848888 -0.00135193
   1.00094152  0.33154694 -0.00127860
   0.34948550  0.36533500  0.00148927
   0.66671332  0.68434539  0.00035137
   0.35047001  0.68373452  0.00034255
   0.65503882 -0.02289272 -0.00035697
  -0.03319699 -0.02105218  0.00021859
   0.00774916  0.68187354 -0.00024181
   0.34577027 -0.02049808  0.00023339
   0.11380829  0.22362596  0.95297784
   0.22261411  0.11205129  0.04219058
   0.11047679  0.55330275  0.95120377
   0.22107947  0.44396342  0.05011496
   0.11372064  0.89408254  0.94846357
   0.22191955  0.77430037  0.05461106
   0.44295933  0.22349229  0.95277136
   0.55911781  0.11173865  0.05115193
   0.44369162  0.55392966  0.94709783
   0.55652840  0.44400029  0.05006544
   0.44647233  0.88707338  0.94301491
   0.55461110  0.77599405  0.05675491
   0.77818581  0.22306971  0.95176219
   0.88589001  0.11163789  0.05096166
   0.77584512  0.55285429  0.95146232
   0.88692144  0.44087495  0.04834806
   0.77387336  0.88715442  0.94299742
   0.88558910  0.77418725  0.05464424
unknown system                          
           1
     8.293201    4.789953    0.000000
    -8.330969    4.855365    0.000000
     0.000000    0.000000   30.000000
   V    Mo   W    S 
   3   3   3  18
Direct configuration=    21
   0.66136159  0.32759608 -0.00136467
   1.00099799  0.33125349 -0.00127042
   0.34972652  0.36588074  0.00155168
   0.66660095  0.68447884  0.00035913
   0.35055984  0.68371277  0.00035150
   0.65497201 -0.02296630 -0.00036432
  -0.03349960 -0.02108080  0.00022960
   0.00807044  0.68237654 -0.00021086
   0.34603354 -0.02051825  0.00024074
   0.11395929  0.22371864  0.95303535
   0.22265933  0.11215323  0.04193698
   0.11037908  0.55331027  0.95130050
   0.22108360  0.44409513  0.05012939
   0.11377689  0.89420892  0.94849648
   0.22202005  0.77436860  0.05459579
   0.44285142  0.22352725  0.95280713
   0.55909993  0.11152675  0.05117613
   0.44378217  0.55408078  0.94708682
   0.55666451  0.44413721  0.05004475
   0.44646168  0.88693795  0.94297549
   0.55458596  0.77595954  0.05673443
   0.77820789  0.22298583  0.95177996
   0.88570629  0.11147573  0.05094884
   0.77589372  0.55279612  0.95161476
   0.88694000  0.44090330  0.04823633
   0.77375779  0.88704688  0.94295737
   0.88556158  0.77424922  0.05462101
unknown system                          
           1
     8.291151    4.788543    0.000000
    -8.328085    4.852507    0.000000
     0.000000    0.000000   30.000000
   V    Mo   W    S 
   3   3   3  18
Direct configuration=    22
   0.66054938  0.32604449 -0.00136560
   1.00067531  0.33026267 -0.00124518
   0.34992985  0.36641015  0.00162376
   0.66640515  0.68473574  0.00035080
   0.35073311  0.68379607  0.00034553
   0.65507581 -0.02274915 -0.00038882
  -0.03369139 -0.02107681  0.00021052
   0.00871759  0.68329202 -0.00018044
   0.34613857 -0.02058773  0.00021337
   0.11413867  0.22381042  0.95305300
   0.22273911  0.11232334  0.04170718
   0.11025296  0.55326717  0.95146078
   0.22108707  0.44427730  0.05013137
   0.11387243  0.89441210  0.94847635
   0.22215155  0.77447937  0.05461726
   0.44269709  0.22354753  0.95281142
   0.55901937  0.11130274  0.05125533
   0.44387045  0.55424587  0.94707130
   0.55684189  0.44433766  0.05000680
   0.44647410  0.88684182  0.94293826
   0.55459019  0.77601307  0.05673328
   0.77825564  0.22292452  0.95170884
   0.88556519  0.11130784  0.05099290
   0.77595306  0.55272772  0.95184487
   0.88697665  0.44094978  0.04809758
   0.77366172  0.88697895  0.94291952
   0.88553393  0.77433981  0.05460992
unknown system                          
           1
     8.299390    4.793507    0.000000
    -8.337169    4.858936    0.000000
     0.000000    0.000000   30.000000
   V    Mo   W    S 
   3   3   3  18
Direct configuration=    23
   0.66151171  0.32811534 -0.00137805
   1.00134712  0.33170295 -0.00129713
   0.34973251  0.36599404  0.00154678
   0.66673516  0.68439560  0.00036908
   0.35046363  0.68364896  0.00035972
   0.65485876 -0.02319587 -0.00036795
  -0.03364906 -0.02116269  0.00025079
   0.00788372  0.68221006 -0.00021299
   0.34608363 -0.02060793  0.00026247
   0.11397080  0.22374470  0.95307857
   0.22264486  0.11211424  0.04187651
   0.11035959  0.55333891  0.95127640
   0.22108017  0.44405614  0.05014218
   0.11375446  0.89415810  0.94855490
   0.22201455  0.77435556  0.05456243
   0.44282086  0.22353744  0.95283792
   0.55914255  0.11146616  0.05114078
   0.44377517  0.55406261  0.94708852
   0.55661201  0.44411973  0.05007679
   0.44643523  0.88689465  0.94297227
   0.55456402  0.77587033  0.05672797
   0.77820750  0.22291621  0.95185115
   0.88564517  0.11145241  0.05090672
   0.77594483  0.55286871  0.95154741
   0.88698456  0.44092108  0.04825632
   0.77372645  0.88699369  0.94295652
   0.88556451  0.77424335  0.05461384
unknown system                          
           1
     8.298435    4.793078    0.000000
    -8.335902    4.857970    0.000000
     0.000000    0.000000   30.000000
   V    Mo   W    S 
   3   3   3  18
Direct configuration=    24
   0.66018255  0.32549908 -0.00137392
   1.00075198  0.33011393 -0.00123835
   0.35006231  0.36669900  0.00164552
   0.66633306  0.68476862  0.00034062
   0.35075087  0.68373280  0.00033410
   0.65502081 -0.02279284 -0.00041701
  -0.03382387 -0.02105192  0.00018414
   0.00888967  0.68358704 -0.00016008
   0.34630166 -0.02055085  0.00018340
   0.11426685  0.22387227  0.95307003
   0.22278125  0.11241537  0.04156983
   0.11018651  0.55326465  0.95150041
   0.22106623  0.44435287  0.05017299
   0.11392936  0.89454129  0.94847408
   0.22220370  0.77450161  0.05464626
   0.44261008  0.22357802  0.95282091
   0.55904549  0.11120305  0.05129652
   0.44391761  0.55432358  0.94705120
   0.55693558  0.44440595  0.05001903
   0.44645550  0.88675905  0.94290825