   27   27  100    1
  0.9710400E+02  0.1002848E-08  0.1002848E-08  0.3000000E-08  0.5000000E-15
  1.000000000000000E-004
  CAR 
 unknown system                          
    159     34    120
 
  0.0000000E+00  0.0000000E+00  0.0000000E+00  0.1562500E-01
    1      -17.788512   1.000000
    2      -16.674717   1.000000
    3      -16.590223   1.000000
    4      -16.573481   1.000000
    5      -16.528835   1.000000
    6      -16.466371   1.000000
    7      -16.417033   1.000000
    8      -16.264370   1.000000
    9      -16.137706   1.000000
   10      -16.085992   1.000000
   11      -16.006232   1.000000
   12      -15.946087   1.000000
   13      -15.914411   1.000000
   14      -15.808778   1.000000
   15      -15.542834   1.000000
   16      -15.507235   1.000000
   17      -15.464434   1.000000
   18      -15.330955   1.000000
   19       -9.324853   1.000000
   20       -8.882651   1.000000
   21       -8.863381   1.000000
   22       -8.817065   1.000000
   23       -8.785076   1.000000
   24       -8.682778   1.000000
   25       -8.599639   1.000000
   26       -8.529973   1.000000
   27       -8.466324   1.000000
   28       -8.433046   1.000000
   29       -8.414147   1.000000
   30       -8.365516   1.000000
   31       -8.286423   1.000000
   32       -8.246857   1.000000
   33       -8.164117   1.000000
   34       -8.030361   1.000000
   35       -7.893312   1.000000
   36       -7.736215   1.000000
   37       -7.715267   1.000000
   38       -7.541183   1.000000
   39       -7.510691   1.000000
   40       -7.454764   1.000000
   41       -7.356949   1.000000
   42       -7.247064   1.000000
   43       -7.109057   1.000000
   44       -6.878628   1.000000
   45       -6.848026   1.000000
   46       -6.726857   1.000000
   47       -6.665625   1.000000
   48       -6.575658   1.000000
   49       -6.550254   1.000000
   50       -6.505357   1.000000
   51       -6.483048   1.000000
   52       -6.429613   1.000000
   53       -6.390928   1.000000
   54       -6.323856   1.000000
   55       -6.192050   1.000000
   56       -6.152259   1.000000
   57       -6.025982   1.000000
   58       -5.910024   1.000000
   59       -5.790727   1.000000
   60       -5.606336   1.000000
   61       -5.455706   1.000000
   62       -5.339903   1.000000
   63       -5.248085   1.000000
   64       -5.148537   1.000000
   65       -5.055094   1.000000
   66       -4.987765   1.000000
   67       -4.919121   1.000000
   68       -4.879123   1.000000
   69       -4.801085   1.000000
   70       -4.745280   1.000000
   71       -4.635338   1.000000
   72       -4.570033   1.000000
   73       -4.494425   1.000000
   74       -4.331909   1.000000
   75       -4.221132   1.000000
   76       -4.011335   1.000000
   77       -3.652965   0.997487
   78       -3.551772   0.981684
   79       -3.521911   0.969857
   80       -3.373468   0.796461
   81       -3.323990   0.684095
   82       -2.896704   0.005508
   83       -2.808075   0.000765
   84       -2.736103   0.000118
   85       -2.642377   0.000007
   86       -2.485509   0.000000
   87       -2.383766   0.000000
   88       -2.332742   0.000000
   89       -2.161722   0.000000
   90       -2.070133   0.000000
   91       -1.811224   0.000000
   92       -1.699794   0.000000
   93       -1.533409   0.000000
   94       -1.407893   0.000000
   95       -1.276145   0.000000
   96       -1.057511   0.000000
   97       -0.993223   0.000000
   98       -0.864177   0.000000
   99       -0.717136   0.000000
  100       -0.658196   0.000000
  101       -0.506644   0.000000
  102       -0.478519   0.000000
  103       -0.395220   0.000000
  104       -0.285215   0.000000
  105       -0.208494   0.000000
  106       -0.131672   0.000000
  107       -0.014520   0.000000
  108        0.043756   0.000000
  109        0.111286   0.000000
  110        0.182014   0.000000
  111        0.378897   0.000000
  112        0.415657   0.000000
  113        0.667883   0.000000
  114        0.836399   0.000000
  115        0.889210   0.000000
  116        1.017716   0.000000
  117        1.157151   0.000000
  118        1.638243   0.000000
  119        1.844004   0.000000
  120        2.148685   0.000000
 
  0.1250000E+00  0.2775558E-16  0.0000000E+00  0.3125000E-01
    1      -17.763203   1.000000
    2      -16.761589   1.000000
    3      -16.637643   1.000000
    4      -16.610180   1.000000
    5      -16.555082   1.000000
    6      -16.399621   1.000000
    7      -16.365273   1.000000
    8      -16.249480   1.000000
    9      -16.170470   1.000000
   10      -16.077070   1.000000
   11      -15.960935   1.000000
   12      -15.933329   1.000000
   13      -15.887921   1.000000
   14      -15.780499   1.000000
   15      -15.556608   1.000000
   16      -15.518534   1.000000
   17      -15.467394   1.000000
   18      -15.341463   1.000000
   19       -9.326085   1.000000
   20       -9.104658   1.000000
   21       -8.981025   1.000000
   22       -8.905523   1.000000
   23       -8.751360   1.000000
   24       -8.661248   1.000000
   25       -8.622250   1.000000
   26       -8.541246   1.000000
   27       -8.453906   1.000000
   28       -8.420019   1.000000
   29       -8.397193   1.000000
   30       -8.293102   1.000000
   31       -8.267292   1.000000
   32       -8.140480   1.000000
   33       -8.044325   1.000000
   34       -7.946041   1.000000
   35       -7.810449   1.000000
   36       -7.739267   1.000000
   37       -7.661958   1.000000
   38       -7.571265   1.000000
   39       -7.497069   1.000000
   40       -7.438808   1.000000
   41       -7.340811   1.000000
   42       -7.247267   1.000000
   43       -7.117648   1.000000
   44       -6.912641   1.000000
   45       -6.856252   1.000000
   46       -6.787781   1.000000
   47       -6.723915   1.000000
   48       -6.610804   1.000000
   49       -6.555987   1.000000
   50       -6.514495   1.000000
   51       -6.428629   1.000000
   52       -6.388277   1.000000
   53       -6.342691   1.000000
   54       -6.305055   1.000000
   55       -6.232193   1.000000
   56       -6.146540   1.000000
   57       -6.043613   1.000000
   58       -5.884252   1.000000
   59       -5.748772   1.000000
   60       -5.595646   1.000000
   61       -5.419880   1.000000
   62       -5.377228   1.000000
   63       -5.345638   1.000000
   64       -5.239205   1.000000
   65       -5.096420   1.000000
   66       -5.055183   1.000000
   67       -4.961063   1.000000
   68       -4.878118   1.000000
   69       -4.784552   1.000000
   70       -4.696470   1.000000
   71       -4.670430   1.000000
   72       -4.543358   1.000000
   73       -4.383810   1.000000
   74       -4.309471   1.000000
   75       -4.126692   1.000000
   76       -3.971158   1.000000
   77       -3.797027   0.999934
   78       -3.652766   0.997476
   79       -3.584262   0.989818
   80       -3.332666   0.705583
   81       -3.217347   0.391696
   82       -2.867190   0.002972
   83       -2.790129   0.000491
   84       -2.711889   0.000059
   85       -2.631813   0.000005
   86       -2.497215   0.000000
   87       -2.393759   0.000000
   88       -2.317207   0.000000
   89       -2.157975   0.000000
   90       -2.063936   0.000000
   91       -1.806494   0.000000
   92       -1.701800   0.000000
   93       -1.543624   0.000000
   94       -1.380698   0.000000
   95       -1.259202   0.000000
   96       -1.074508   0.000000
   97       -0.976103   0.000000
   98       -0.854290   0.000000
   99       -0.726846   0.000000
  100       -0.706875   0.000000
  101       -0.611657   0.000000
  102       -0.542589   0.000000
  103       -0.411345   0.000000
  104       -0.360294   0.000000
  105       -0.274440   0.000000
  106       -0.194754   0.000000
  107       -0.049098   0.000000
  108        0.038170   0.000000
  109        0.110227   0.000000
  110        0.154980   0.000000
  111        0.429449   0.000000
  112        0.527027   0.000000
  113        0.691017   0.000000
  114        0.836788   0.000000
  115        0.921605   0.000000
  116        1.048630   0.000000
  117        1.140419   0.000000
  118        1.681698   0.000000
  119        1.883021   0.000000
  120        2.183814   0.000000
 
  0.2500000E+00  0.5551115E-16  0.0000000E+00  0.3125000E-01
    1      -17.688454   1.000000
    2      -16.967785   1.000000
    3      -16.708398   1.000000
    4      -16.611611   1.000000
    5      -16.581826   1.000000
    6      -16.374974   1.000000
    7      -16.292692   1.000000
    8      -16.199415   1.000000
    9      -16.165471   1.000000
   10      -16.097903   1.000000
   11      -15.962889   1.000000
   12      -15.858560   1.000000
   13      -15.807169   1.000000
   14      -15.711672   1.000000
   15      -15.587054   1.000000
   16      -15.539898   1.000000
   17      -15.484116   1.000000
   18      -15.367311   1.000000
   19       -9.502888   1.000000
   20       -9.205989   1.000000
   21       -9.125549   1.000000
   22       -9.017871   1.000000
   23       -8.841297   1.000000
   24       -8.743827   1.000000
   25       -8.649252   1.000000
   26       -8.478603   1.000000
   27       -8.407600   1.000000
   28       -8.383406   1.000000
   29       -8.342244   1.000000
   30       -8.223858   1.000000
   31       -8.134757   1.000000
   32       -8.052866   1.000000
   33       -7.980782   1.000000
   34       -7.859743   1.000000
   35       -7.752219   1.000000
   36       -7.667240   1.000000
   37       -7.561875   1.000000
   38       -7.526469   1.000000
   39       -7.437445   1.000000
   40       -7.356006   1.000000
   41       -7.319619   1.000000
   42       -7.217138   1.000000
   43       -7.089033   1.000000
   44       -6.952627   1.000000
   45       -6.893232   1.000000
   46       -6.797021   1.000000
   47       -6.749408   1.000000
   48       -6.676743   1.000000
   49       -6.603708   1.000000
   50       -6.542422   1.000000
   51       -6.431960   1.000000
   52       -6.364352   1.000000
   53       -6.305747   1.000000
   54       -6.202439   1.000000
   55       -6.149320   1.000000
   56       -6.123514   1.000000
   57       -6.059659   1.000000
   58       -5.868290   1.000000
   59       -5.700498   1.000000
   60       -5.666090   1.000000
   61       -5.589175   1.000000
   62       -5.523175   1.000000
   63       -5.467978   1.000000
   64       -5.356387   1.000000
   65       -5.243127   1.000000
   66       -5.040435   1.000000
   67       -4.915848   1.000000
   68       -4.879039   1.000000
   69       -4.738570   1.000000
   70       -4.692264   1.000000
   71       -4.604509   1.000000
   72       -4.438206   1.000000
   73       -4.332389   1.000000
   74       -4.238071   1.000000
   75       -4.151138   1.000000
   76       -4.037797   1.000000
   77       -3.931558   0.999999
   78       -3.680386   0.998647
   79       -3.569681   0.986671
   80       -3.298405   0.617250
   81       -3.115490   0.159835
   82       -2.832069   0.001353
   83       -2.760702   0.000229
   84       -2.650674   0.000009
   85       -2.598127   0.000002
   86       -2.532121   0.000000
   87       -2.411725   0.000000
   88       -2.293495   0.000000
   89       -2.132483   0.000000
   90       -2.023020   0.000000
   91       -1.804345   0.000000
   92       -1.704881   0.000000
   93       -1.570617   0.000000
   94       -1.340413   0.000000
   95       -1.216560   0.000000
   96       -1.084651   0.000000
   97       -0.976925   0.000000
   98       -0.888884   0.000000
   99       -0.824327   0.000000
  100       -0.764492   0.000000
  101       -0.702202   0.000000
  102       -0.656744   0.000000
  103       -0.598271   0.000000
  104       -0.472678   0.000000
  105       -0.356852   0.000000
  106       -0.241254   0.000000
  107       -0.137770   0.000000
  108       -0.064787   0.000000
  109        0.071928   0.000000
  110        0.142213   0.000000
  111        0.504541   0.000000
  112        0.602395   0.000000
  113        0.790940   0.000000
  114        0.873655   0.000000
  115        0.986553   0.000000
  116        1.100095   0.000000
  117        1.183706   0.000000
  118        1.803598   0.000000
  119        1.994368   0.000000
  120        2.288169   0.000000
 
  0.3750000E+00  0.0000000E+00  0.0000000E+00  0.3125000E-01
    1      -17.569156   1.000000
    2      -17.183902   1.000000
    3      -16.754150   1.000000
    4      -16.628974   1.000000
    5      -16.576793   1.000000
    6      -16.400606   1.000000
    7      -16.221985   1.000000
    8      -16.180246   1.000000
    9      -16.144878   1.000000
   10      -16.082231   1.000000
   11      -15.954927   1.000000
   12      -15.819265   1.000000
   13      -15.739246   1.000000
   14      -15.665552   1.000000
   15      -15.611302   1.000000
   16      -15.548273   1.000000
   17      -15.502887   1.000000
   18      -15.392953   1.000000
   19       -9.712280   1.000000
   20       -9.302844   1.000000
   21       -9.135345   1.000000
   22       -9.051843   1.000000
   23       -8.919972   1.000000
   24       -8.794788   1.000000
   25       -8.619122   1.000000
   26       -8.499932   1.000000
   27       -8.379963   1.000000
   28       -8.318323   1.000000
   29       -8.274844   1.000000
   30       -8.211769   1.000000
   31       -8.067817   1.000000
   32       -8.018479   1.000000
   33       -7.952117   1.000000
   34       -7.882631   1.000000
   35       -7.743355   1.000000
   36       -7.666540   1.000000
   37       -7.546408   1.000000
   38       -7.464322   1.000000
   39       -7.383012   1.000000
   40       -7.331832   1.000000
   41       -7.184164   1.000000
   42       -7.121607   1.000000
   43       -6.981376   1.000000
   44       -6.891781   1.000000
   45       -6.874373   1.000000
   46       -6.805009   1.000000
   47       -6.758200   1.000000
   48       -6.660146   1.000000
   49       -6.609398   1.000000
   50       -6.547893   1.000000
   51       -6.383702   1.000000
   52       -6.364883   1.000000
   53       -6.232790   1.000000
   54       -6.165907   1.000000
   55       -6.117258   1.000000
   56       -6.071737   1.000000
   57       -6.002933   1.000000
   58       -5.948740   1.000000
   59       -5.886303   1.000000
   60       -5.769531   1.000000
   61       -5.708222   1.000000
   62       -5.632575   1.000000
   63       -5.617618   1.000000
   64       -5.460206   1.000000
   65       -5.232119   1.000000
   66       -5.014583   1.000000
   67       -4.892852   1.000000
   68       -4.804691   1.000000
   69       -4.762107   1.000000
   70       -4.683702   1.000000
   71       -4.646304   1.000000
   72       -4.497325   1.000000
   73       -4.358152   1.000000
   74       -4.248656   1.000000
   75       -4.146009   1.000000
   76       -4.081975   1.000000
   77       -3.854253   0.999988
   78       -3.588415   0.990587
   79       -3.545035   0.979434
   80       -3.289731   0.593644
   81       -3.043757   0.066502
   82       -2.810088   0.000803
   83       -2.750366   0.000174
   84       -2.627215   0.000004
   85       -2.568524   0.000001
   86       -2.532066   0.000000
   87       -2.437098   0.000000
   88       -2.274281   0.000000
   89       -2.087205   0.000000
   90       -1.946506   0.000000
   91       -1.809157   0.000000
   92       -1.704275   0.000000
   93       -1.616102   0.000000
   94       -1.331344   0.000000
   95       -1.173992   0.000000
   96       -1.115607   0.000000
   97       -1.045422   0.000000
   98       -0.962623   0.000000
   99       -0.868191   0.000000
  100       -0.839446   0.000000
  101       -0.794953   0.000000
  102       -0.689881   0.000000
  103       -0.654819   0.000000
  104       -0.559838   0.000000
  105       -0.473948   0.000000
  106       -0.345160   0.000000
  107       -0.162675   0.000000
  108       -0.152673   0.000000
  109        0.033577   0.000000
  110        0.105086   0.000000
  111        0.512393   0.000000
  112        0.635015   0.000000
  113        0.820682   0.000000
  114        0.948580   0.000000
  115        1.078921   0.000000
  116        1.122257   0.000000
  117        1.299065   0.000000
  118        1.988236   0.000000
  119        2.166972   0.000000
  120        2.458943   0.000000
 
  0.5000000E+00  0.1110223E-15  0.0000000E+00  0.1562500E-01
    1      -17.452657   1.000000
    2      -17.334684   1.000000
    3      -16.769853   1.000000
    4      -16.638929   1.000000
    5      -16.568664   1.000000
    6      -16.413805   1.000000
    7      -16.200509   1.000000
    8      -16.176019   1.000000
    9      -16.143609   1.000000
   10      -16.056704   1.000000
   11      -15.948555   1.000000
   12      -15.810178   1.000000
   13      -15.700206   1.000000
   14      -15.673150   1.000000
   15      -15.618174   1.000000
   16      -15.562344   1.000000
   17      -15.494308   1.000000
   18      -15.402393   1.000000
   19       -9.789762   1.000000
   20       -9.343772   1.000000
   21       -9.170143   1.000000
   22       -9.013217   1.000000
   23       -8.951651   1.000000
   24       -8.736455   1.000000
   25       -8.692462   1.000000
   26       -8.526829   1.000000
   27       -8.368695   1.000000
   28       -8.282837   1.000000
   29       -8.239873   1.000000
   30       -8.177181   1.000000
   31       -8.052813   1.000000
   32       -8.024527   1.000000
   33       -7.933559   1.000000
   34       -7.878659   1.000000
   35       -7.762471   1.000000
   36       -7.670094   1.000000
   37       -7.630773   1.000000
   38       -7.496414   1.000000
   39       -7.385777   1.000000
   40       -7.263487   1.000000
   41       -7.094386   1.000000
   42       -6.999362   1.000000
   43       -6.940534   1.000000
   44       -6.888293   1.000000
   45       -6.815683   1.000000
   46       -6.747780   1.000000
   47       -6.715624   1.000000
   48       -6.664134   1.000000
   49       -6.603482   1.000000
   50       -6.550926   1.000000
   51       -6.461234   1.000000
   52       -6.410325   1.000000
   53       -6.237686   1.000000
   54       -6.196494   1.000000
   55       -6.105401   1.000000
   56       -6.080951   1.000000
   57       -5.990808   1.000000
   58       -5.905085   1.000000
   59       -5.866791   1.000000
   60       -5.817487   1.000000
   61       -5.685043   1.000000
   62       -5.673318   1.000000
   63       -5.576447   1.000000
   64       -5.497591   1.000000
   65       -5.428909   1.000000
   66       -5.097583   1.000000
   67       -4.895215   1.000000
   68       -4.799888   1.000000
   69       -4.775729   1.000000
   70       -4.673828   1.000000
   71       -4.596940   1.000000
   72       -4.502180   1.000000
   73       -4.357466   1.000000
   74       -4.316791   1.000000
   75       -4.123318   1.000000
   76       -4.038639   1.000000
   77       -3.822766   0.999969
   78       -3.583856   0.989740
   79       -3.495655   0.954776
   80       -3.293894   0.605022
   81       -3.012431   0.042365
   82       -2.796465   0.000575
   83       -2.755681   0.000201
   84       -2.644208   0.000008
   85       -2.534960   0.000000
   86       -2.528495   0.000000
   87       -2.452776   0.000000
   88       -2.264586   0.000000
   89       -2.066234   0.000000
   90       -1.901743   0.000000
   91       -1.802740   0.000000
   92       -1.704475   0.000000
   93       -1.652396   0.000000
   94       -1.332349   0.000000
   95       -1.194676   0.000000
   96       -1.111883   0.000000
   97       -1.079253   0.000000
   98       -0.994101   0.000000
   99       -0.890798   0.000000
  100       -0.870255   0.000000
  101       -0.818778   0.000000
  102       -0.689054   0.000000
  103       -0.650420   0.000000
  104       -0.585314   0.000000
  105       -0.544198   0.000000
  106       -0.396156   0.000000
  107       -0.185466   0.000000
  108       -0.160559   0.000000
  109        0.012149   0.000000
  110        0.089787   0.000000
  111        0.510957   0.000000
  112        0.636545   0.000000
  113        0.835049   0.000000
  114        0.969792   0.000000
  115        1.113133   0.000000
  116        1.144177   0.000000
  117        1.347569   0.000000
  118        2.212198   0.000000
  119        2.236947   0.000000
  120        2.383172   0.000000
 
  0.0000000E+00  0.1250000E+00  0.0000000E+00  0.3125000E-01
    1      -17.763764   1.000000
    2      -16.759435   1.000000
    3      -16.655358   1.000000
    4      -16.586792   1.000000
    5      -16.552285   1.000000
    6      -16.430560   1.000000
    7      -16.343426   1.000000
    8      -16.249850   1.000000
    9      -16.148011   1.000000
   10      -16.100445   1.000000
   11      -15.975908   1.000000
   12      -15.910101   1.000000
   13      -15.881733   1.000000
   14      -15.796125   1.000000
   15      -15.557078   1.000000
   16      -15.524434   1.000000
   17      -15.463051   1.000000
   18      -15.338522   1.000000
   19       -9.320704   1.000000
   20       -9.093990   1.000000
   21       -8.950760   1.000000
   22       -8.899248   1.000000
   23       -8.817758   1.000000
   24       -8.660037   1.000000
   25       -8.626076   1.000000
   26       -8.553432   1.000000
   27       -8.468675   1.000000
   28       -8.419157   1.000000
   29       -8.390611   1.000000
   30       -8.275610   1.000000
   31       -8.220575   1.000000
   32       -8.124170   1.000000
   33       -8.086476   1.000000
   34       -7.891039   1.000000
   35       -7.841425   1.000000
   36       -7.737619   1.000000
   37       -7.694176   1.000000
   38       -7.590558   1.000000
   39       -7.497079   1.000000
   40       -7.437383   1.000000
   41       -7.338659   1.000000
   42       -7.235730   1.000000
   43       -7.113469   1.000000
   44       -6.945976   1.000000
   45       -6.819945   1.000000
   46       -6.734839   1.000000
   47       -6.711991   1.000000
   48       -6.647553   1.000000
   49       -6.557986   1.000000
   50       -6.511469   1.000000
   51       -6.456822   1.000000
   52       -6.384704   1.000000
   53       -6.361086   1.000000
   54       -6.287449   1.000000
   55       -6.235037   1.000000
   56       -6.158415   1.000000
   57       -6.041339   1.000000
   58       -5.894397   1.000000
   59       -5.750649   1.000000
   60       -5.545223   1.000000
   61       -5.441157   1.000000
   62       -5.372961   1.000000
   63       -5.331857   1.000000
   64       -5.242424   1.000000
   65       -5.172998   1.000000
   66       -5.010865   1.000000
   67       -4.950433   1.000000
   68       -4.899632   1.000000
   69       -4.842452   1.000000
   70       -4.694173   1.000000
   71       -4.616164   1.000000
   72       -4.497769   1.000000
   73       -4.447842   1.000000
   74       -4.241375   1.000000
   75       -4.134555   1.000000
   76       -3.972809   1.000000
   77       -3.782140   0.999900
   78       -3.691830   0.998966
   79       -3.598522   0.992249
   80       -3.292625   0.601565
   81       -3.194987   0.332504
   82       -2.880476   0.003943
   83       -2.792955   0.000527
   84       -2.727901   0.000094
   85       -2.652388   0.000010
   86       -2.485311   0.000000
   87       -2.391590   0.000000
   88       -2.320148   0.000000
   89       -2.171958   0.000000
   90       -2.047401   0.000000
   91       -1.818487   0.000000
   92       -1.684304   0.000000
   93       -1.543221   0.000000
   94       -1.380720   0.000000
   95       -1.264558   0.000000
   96       -1.063145   0.000000
   97       -0.989015   0.000000
   98       -0.856720   0.000000
   99       -0.747391   0.000000
  100       -0.705037   0.000000
  101       -0.602876   0.000000
  102       -0.545214   0.000000
  103       -0.395940   0.000000
  104       -0.342442   0.000000
  105       -0.279706   0.000000
  106       -0.211145   0.000000
  107        0.003890   0.000000
  108        0.082319   0.000000
  109        0.114866   0.000000
  110        0.179998   0.000000
  111        0.302252   0.000000
  112        0.436663   0.000000
  113        0.692209   0.000000
  114        0.815497   0.000000
  115        0.921844   0.000000
  116        1.105368   0.000000
  117        1.195099   0.000000
  118        1.680824   0.000000
  119        1.884547   0.000000
  120        2.183411   0.000000
 
  0.1250000E+00  0.1250000E+00  0.0000000E+00  0.3125000E-01
    1      -17.714128   1.000000
    2      -16.884930   1.000000
    3      -16.767055   1.000000
    4      -16.596058   1.000000
    5      -16.502886   1.000000
    6      -16.407739   1.000000
    7      -16.316922   1.000000
    8      -16.210645   1.000000
    9      -16.134977   1.000000
   10      -16.126717   1.000000
   11      -15.959784   1.000000
   12      -15.885967   1.000000
   13      -15.820141   1.000000
   14      -15.737757   1.000000
   15      -15.575415   1.000000
   16      -15.553537   1.000000
   17      -15.457258   1.000000
   18      -15.364912   1.000000
   19       -9.397109   1.000000
   20       -9.256439   1.000000
   21       -9.105269   1.000000
   22       -8.970106   1.000000
   23       -8.815239   1.000000
   24       -8.689597   1.000000
   25       -8.602019   1.000000
   26       -8.506642   1.000000
   27       -8.453988   1.000000
   28       -8.384582   1.000000
   29       -8.361728   1.000000
   30       -8.260134   1.000000
   31       -8.161314   1.000000
   32       -8.099008   1.000000
   33       -7.988840   1.000000
   34       -7.884377   1.000000
   35       -7.757295   1.000000
   36       -7.651789   1.000000
   37       -7.604721   1.000000
   38       -7.501727   1.000000
   39       -7.454031   1.000000
   40       -7.407753   1.000000
   41       -7.358445   1.000000
   42       -7.212803   1.000000
   43       -7.095876   1.000000
   44       -6.944515   1.000000
   45       -6.896652   1.000000
   46       -6.816488   1.000000
   47       -6.746310   1.000000
   48       -6.635253   1.000000
   49       -6.601799   1.000000
   50       -6.539865   1.000000
   51       -6.450252   1.000000
   52       -6.347775   1.000000
   53       -6.290052   1.000000
   54       -6.250136   1.000000
   55       -6.205202   1.000000
   56       -6.133039   1.000000
   57       -6.035607   1.000000
   58       -5.900627   1.000000
   59       -5.686471   1.000000
   60       -5.617864   1.000000
   61       -5.528397   1.000000
   62       -5.489687   1.000000
   63       -5.401781   1.000000
   64       -5.320059   1.000000
   65       -5.174795   1.000000
   66       -5.076524   1.000000
   67       -5.006047   1.000000
   68       -4.930933   1.000000
   69       -4.793230   1.000000
   70       -4.673657   1.000000
   71       -4.527394   1.000000
   72       -4.468229   1.000000
   73       -4.319213   1.000000
   74       -4.213291   1.000000
   75       -4.112627   1.000000
   76       -4.042446   1.000000
   77       -3.908084   0.999998
   78       -3.718159   0.999455
   79       -3.589266   0.990738
   80       -3.278654   0.563010
   81       -3.128529   0.183279
   82       -2.840227   0.001633
   83       -2.775580   0.000339
   84       -2.671382   0.000018
   85       -2.655572   0.000011
   86       -2.497176   0.000000
   87       -2.399342   0.000000
   88       -2.305373   0.000000
   89       -2.149260   0.000000
   90       -2.031846   0.000000
   91       -1.814499   0.000000
   92       -1.679681   0.000000
   93       -1.570497   0.000000
   94       -1.334334   0.000000
   95       -1.224544   0.000000
   96       -1.087593   0.000000
   97       -1.016487   0.000000
   98       -0.859991   0.000000
   99       -0.827293   0.000000
  100       -0.736319   0.000000
  101       -0.670725   0.000000
  102       -0.636936   0.000000
  103       -0.508217   0.000000
  104       -0.402721   0.000000
  105       -0.337370   0.000000
  106       -0.248581   0.000000
  107       -0.119520   0.000000
  108        0.002665   0.000000
  109        0.054997   0.000000
  110        0.210186   0.000000
  111        0.367470   0.000000
  112        0.505424   0.000000
  113        0.761723   0.000000
  114        0.869329   0.000000
  115        0.964432   0.000000
  116        1.158630   0.000000
  117        1.197616   0.000000
  118        1.762852   0.000000
  119        1.959570   0.000000
  120        2.252842   0.000000
 
  0.2500000E+00  0.1250000E+00  0.0000000E+00  0.3125000E-01
    1      -17.617129   1.000000
    2      -17.070906   1.000000
    3      -16.868721   1.000000
    4      -16.583765   1.000000
    5      -16.492768   1.000000
    6      -16.388752   1.000000
    7      -16.271575   1.000000
    8      -16.177775   1.000000
    9      -16.154119   1.000000
   10      -16.090502   1.000000
   11      -15.952087   1.000000
   12      -15.842045   1.000000
   13      -15.793298   1.000000
   14      -15.656798   1.000000
   15      -15.611414   1.000000
   16      -15.553291   1.000000
   17      -15.466310   1.000000
   18      -15.395784   1.000000
   19       -9.606839   1.000000
   20       -9.383280   1.000000
   21       -9.165854   1.000000
   22       -9.049854   1.000000
   23       -8.795298   1.000000
   24       -8.705076   1.000000
   25       -8.599353   1.000000
   26       -8.472267   1.000000
   27       -8.398198   1.000000
   28       -8.332910   1.000000
   29       -8.313207   1.000000
   30       -8.243501   1.000000
   31       -8.108888   1.000000
   32       -8.045523   1.000000
   33       -8.017272   1.000000
   34       -7.924848   1.000000
   35       -7.800063   1.000000
   36       -7.611371   1.000000
   37       -7.510224   1.000000
   38       -7.428986   1.000000
   39       -7.359033   1.000000
   40       -7.314902   1.000000
   41       -7.255807   1.000000
   42       -7.123973   1.000000
   43       -7.068753   1.000000
   44       -6.931046   1.000000
   45       -6.880947   1.000000
   46       -6.847073   1.000000
   47       -6.735658   1.000000