       N       E                     dE             d eps       ncg     rms          rms(c)
DAV:   1     0.112448994756E+04    0.11245E+04   -0.35858E+04  8160   0.577E+02
DAV:   2    -0.521221471757E+01   -0.11297E+04   -0.10896E+04 11400   0.173E+02
DAV:   3    -0.200101791604E+03   -0.19489E+03   -0.18755E+03 10920   0.818E+01
DAV:   4    -0.209011993169E+03   -0.89102E+01   -0.86585E+01 12320   0.258E+01
DAV:   5    -0.209300015807E+03   -0.28802E+00   -0.28721E+00 11440   0.339E+00    0.275E+01
DAV:   6    -0.237727562461E+03   -0.28428E+02   -0.10731E+02 12520   0.599E+01    0.595E+01
DAV:   7    -0.196625206363E+03    0.41102E+02   -0.17708E+02 13480   0.152E+02    0.201E+01
DAV:   8    -0.189635678645E+03    0.69895E+01   -0.17616E+01 12120   0.128E+01    0.128E+01
DAV:   9    -0.188216755075E+03    0.14189E+01   -0.31149E+00 13080   0.615E+00    0.940E+00
DAV:  10    -0.186952127533E+03    0.12646E+01   -0.17565E+00 13440   0.795E+00    0.215E+00
DAV:  11    -0.187043165406E+03   -0.91038E-01   -0.58470E-01 13600   0.294E+00    0.367E+00
DAV:  12    -0.186985188408E+03    0.57977E-01   -0.66381E-01 12800   0.435E+00    0.347E+00
DAV:  13    -0.186877587453E+03    0.10760E+00   -0.26186E-01 13400   0.299E+00    0.178E+00
DAV:  14    -0.186843680727E+03    0.33907E-01   -0.96593E-02 13040   0.152E+00    0.598E-01
DAV:  15    -0.186839675017E+03    0.40057E-02   -0.15143E-02 12920   0.508E-01    0.541E-01
DAV:  16    -0.186839352148E+03    0.32287E-03   -0.10999E-02 13400   0.551E-01    0.537E-01
DAV:  17    -0.186836393389E+03    0.29588E-02   -0.71940E-03 12560   0.425E-01    0.182E-01
DAV:  18    -0.186836124956E+03    0.26843E-03   -0.14227E-03 12160   0.154E-01    0.960E-02
DAV:  19    -0.186836143641E+03   -0.18685E-04   -0.59200E-04  9600   0.696E-02
   1 F= -.18683614E+03 E0= -.18666430E+03  d E =-.186836E+03
       N       E                     dE             d eps       ncg     rms          rms(c)
DAV:   1    -0.187493143191E+03   -0.65702E+00   -0.27427E+02  8160   0.351E+01    0.469E+00
DAV:   2    -0.189515094486E+03   -0.20220E+01   -0.20343E+01 11960   0.155E+01    0.102E+01
DAV:   3    -0.189330802928E+03    0.18429E+00   -0.55743E+00 12240   0.131E+01    0.616E+00
DAV:   4    -0.188766104017E+03    0.56470E+00   -0.57065E-01 11320   0.456E+00    0.246E+00
DAV:   5    -0.188850536368E+03   -0.84432E-01   -0.47955E-01 12160   0.403E+00    0.491E+00
DAV:   6    -0.188721368379E+03    0.12917E+00   -0.63323E-01 12200   0.394E+00    0.222E+00
DAV:   7    -0.188689465967E+03    0.31902E-01   -0.22056E-01 11960   0.203E+00    0.199E+00
DAV:   8    -0.188674014873E+03    0.15451E-01   -0.12625E-01 11880   0.208E+00    0.182E+00
DAV:   9    -0.188648558829E+03    0.25456E-01   -0.55507E-02 12040   0.120E+00    0.628E-01
DAV:  10    -0.188645424801E+03    0.31340E-02   -0.67134E-03 10520   0.302E-01    0.282E-01
DAV:  11    -0.188645116131E+03    0.30867E-03   -0.31511E-03 12960   0.256E-01    0.144E-01
DAV:  12    -0.188645232334E+03   -0.11620E-03   -0.95295E-04 10760   0.999E-02    0.113E-01
DAV:  13    -0.188645285901E+03   -0.53567E-04   -0.29086E-04  6800   0.720E-02
   2 F= -.18864529E+03 E0= -.18850514E+03  d E =-.180914E+01
       N       E                     dE             d eps       ncg     rms          rms(c)
DAV:   1    -0.190599638707E+03   -0.19544E+01   -0.31841E+01  9200   0.144E+01    0.448E+00
DAV:   2    -0.190532243706E+03    0.67395E-01   -0.28072E+00 12160   0.944E+00    0.715E+00
DAV:   3    -0.190076861052E+03    0.45538E+00   -0.13202E+00 12280   0.864E+00    0.428E+00
DAV:   4    -0.189859275573E+03    0.21759E+00   -0.70699E-01 13120   0.438E+00    0.251E+00
DAV:   5    -0.189813198246E+03    0.46077E-01   -0.35079E-01 12280   0.286E+00    0.240E+00
DAV:   6    -0.189757665472E+03    0.55533E-01   -0.11660E-01 12280   0.223E+00    0.707E-01
DAV:   7    -0.189752168962E+03    0.54965E-02   -0.13050E-02 11800   0.528E-01    0.243E-01
DAV:   8    -0.189752913989E+03   -0.74503E-03   -0.45033E-03 11720   0.361E-01    0.381E-01
DAV:   9    -0.189751915564E+03    0.99842E-03   -0.25911E-03 10480   0.318E-01    0.146E-01
DAV:  10    -0.189752282171E+03   -0.36661E-03   -0.10994E-03 10360   0.134E-01    0.140E-01
DAV:  11    -0.189751992177E+03    0.28999E-03   -0.58194E-04 10440   0.867E-02    0.187E-02
DAV:  12    -0.189752052721E+03   -0.60543E-04   -0.73561E-05  6480   0.249E-02
   3 F= -.18975205E+03 E0= -.18963407E+03  d E =-.110677E+01
       N       E                     dE             d eps       ncg     rms          rms(c)
DAV:   1    -0.191339162081E+03   -0.15872E+01   -0.77292E+01  8160   0.200E+01    0.463E+00
DAV:   2    -0.191160901790E+03    0.17826E+00   -0.54040E+00 13000   0.776E+00    0.462E+00
DAV:   3    -0.191317803090E+03   -0.15690E+00   -0.14940E+00 12200   0.910E+00    0.713E+00
DAV:   4    -0.190945586599E+03    0.37222E+00   -0.17223E+00 12160   0.847E+00    0.381E+00
DAV:   5    -0.190926531679E+03    0.19055E-01   -0.74811E-01 11200   0.558E+00    0.354E+00
DAV:   6    -0.190755352443E+03    0.17118E+00   -0.22015E-01 11560   0.318E+00    0.762E-01
DAV:   7    -0.190753420573E+03    0.19319E-02   -0.44447E-02 12600   0.987E-01    0.749E-01
DAV:   8    -0.190752180491E+03    0.12401E-02   -0.22502E-02 11960   0.102E+00    0.679E-01
DAV:   9    -0.190747249086E+03    0.49314E-02   -0.66664E-03 11160   0.563E-01    0.158E-01
DAV:  10    -0.190747604765E+03   -0.35568E-03   -0.15419E-03 10680   0.134E-01    0.133E-01
DAV:  11    -0.190747398402E+03    0.20636E-03   -0.83900E-04 10720   0.112E-01    0.419E-02
DAV:  12    -0.190747421704E+03   -0.23302E-04   -0.13281E-04  6600   0.417E-02
   4 F= -.19074742E+03 E0= -.19064627E+03  d E =-.995369E+00
       N       E                     dE             d eps       ncg     rms          rms(c)
DAV:   1    -0.192123902484E+03   -0.13765E+01   -0.16202E+02  8160   0.284E+01    0.571E+00
DAV:   2    -0.191882664411E+03    0.24124E+00   -0.93843E+00 11520   0.857E+00    0.435E+00
DAV:   3    -0.192377188595E+03   -0.49452E+00   -0.27242E+00 11880   0.104E+01    0.107E+01
DAV:   4    -0.191654401325E+03    0.72279E+00   -0.32439E+00 11760   0.123E+01    0.375E+00
DAV:   5    -0.191595988528E+03    0.58413E-01   -0.71631E-01 11920   0.576E+00    0.392E+00
DAV:   6    -0.191424295390E+03    0.17169E+00   -0.38339E-01 12560   0.433E+00    0.158E+00
DAV:   7    -0.191414304690E+03    0.99907E-02   -0.94279E-02 12440   0.203E+00    0.141E+00
DAV:   8    -0.191400606722E+03    0.13698E-01   -0.56716E-02 11400   0.164E+00    0.664E-01
DAV:   9    -0.191394882561E+03    0.57242E-02   -0.69891E-03 11720   0.485E-01    0.239E-01
DAV:  10    -0.191394844804E+03    0.37757E-04   -0.27470E-03 12160   0.241E-01    0.826E-02
DAV:  11    -0.191394905568E+03   -0.60764E-04   -0.52659E-04 10800   0.913E-02
   5 F= -.19139491E+03 E0= -.19129700E+03  d E =-.647484E+00
       N       E                     dE             d eps       ncg     rms          rms(c)
DAV:   1    -0.191429880576E+03   -0.35036E-01   -0.28853E+00  8160   0.359E+00    0.497E-01
DAV:   2    -0.191470105422E+03   -0.40225E-01   -0.19013E-01 12760   0.236E+00    0.177E+00
DAV:   3    -0.191439436073E+03    0.30669E-01   -0.61709E-02 12400   0.178E+00    0.355E-01
DAV:   4    -0.191439762384E+03   -0.32631E-03   -0.76053E-03 11080   0.600E-01    0.420E-01
DAV:   5    -0.191437920035E+03    0.18423E-02   -0.39738E-03 10720   0.468E-01    0.179E-01
DAV:   6    -0.191437869885E+03    0.50150E-04   -0.16998E-03 11520   0.213E-01    0.165E-01
DAV:   7    -0.191438097310E+03   -0.22742E-03   -0.22465E-03 10200   0.305E-01    0.233E-01
DAV:   8    -0.191437550781E+03    0.54653E-03   -0.96014E-04  8680   0.201E-01    0.270E-02
DAV:   9    -0.191437569822E+03   -0.19040E-04   -0.74747E-05  5880   0.321E-02
   6 F= -.19143757E+03 E0= -.19133757E+03  d E =-.426643E-01
       N       E                     dE             d eps       ncg     rms          rms(c)
DAV:   1    -0.191485233324E+03   -0.47683E-01   -0.74751E+00  8160   0.576E+00    0.708E-01
DAV:   2    -0.191536493814E+03   -0.51260E-01   -0.26688E-01 13200   0.233E+00    0.209E+00
DAV:   3    -0.191496207101E+03    0.40287E-01   -0.11230E-01 12440   0.232E+00    0.654E-01
DAV:   4    -0.191494011376E+03    0.21957E-02   -0.16367E-02 10880   0.748E-01    0.504E-01
DAV:   5    -0.191491894658E+03    0.21167E-02   -0.90619E-03 11360   0.714E-01    0.354E-01
DAV:   6    -0.191491041372E+03    0.85329E-03   -0.52066E-03 11360   0.437E-01    0.249E-01
DAV:   7    -0.191491601825E+03   -0.56045E-03   -0.50155E-03 11360   0.454E-01    0.351E-01
DAV:   8    -0.191490375753E+03    0.12261E-02   -0.21913E-03  9600   0.308E-01    0.407E-02
DAV:   9    -0.191490392157E+03   -0.16405E-04   -0.10797E-04  5560   0.432E-02
   7 F= -.19149039E+03 E0= -.19138821E+03  d E =-.528223E-01
       N       E                     dE             d eps       ncg     rms          rms(c)
DAV:   1    -0.191500036718E+03   -0.96610E-02   -0.29251E-01  8160   0.121E+00    0.243E-01
DAV:   2    -0.191500373246E+03   -0.33653E-03   -0.15158E-02 11560   0.494E-01    0.371E-01
DAV:   3    -0.191499759137E+03    0.61411E-03   -0.67597E-03 11480   0.578E-01    0.303E-01
DAV:   4    -0.191498992848E+03    0.76629E-03   -0.29548E-03 10960   0.361E-01    0.189E-01
DAV:   5    -0.191498852051E+03    0.14080E-03   -0.16698E-03  9760   0.293E-01    0.167E-01
DAV:   6    -0.191498508354E+03    0.34370E-03   -0.76968E-04  9800   0.184E-01    0.409E-02
DAV:   7    -0.191498497550E+03    0.10804E-04   -0.10355E-04  5880   0.480E-02
   8 F= -.19149850E+03 E0= -.19139590E+03  d E =-.810539E-02
       N       E                     dE             d eps       ncg     rms          rms(c)
DAV:   1    -0.191534968910E+03   -0.36461E-01   -0.32066E+00  8160   0.378E+00    0.448E-01
DAV:   2    -0.191561686447E+03   -0.26718E-01   -0.11539E-01 13600   0.181E+00    0.156E+00
DAV:   3    -0.191538872555E+03    0.22814E-01   -0.51015E-02 12400   0.156E+00    0.324E-01
DAV:   4    -0.191539126766E+03   -0.25421E-03   -0.59585E-03 11520   0.495E-01    0.379E-01
DAV:   5    -0.191537823542E+03    0.13032E-02   -0.43640E-03 11160   0.461E-01    0.212E-01
DAV:   6    -0.191537830939E+03   -0.73973E-05   -0.24853E-03 10360   0.295E-01    0.224E-01
DAV:   7    -0.191537642209E+03    0.18873E-03   -0.20344E-03  9720   0.303E-01    0.153E-01
DAV:   8    -0.191537340614E+03    0.30160E-03   -0.49231E-04  8240   0.138E-01    0.201E-02
DAV:   9    -0.191537350664E+03   -0.10051E-04   -0.58990E-05  6880   0.284E-02
   9 F= -.19153735E+03 E0= -.19143402E+03  d E =-.388531E-01
       N       E                     dE             d eps       ncg     rms          rms(c)
DAV:   1    -0.191452566916E+03    0.84774E-01   -0.14126E+01  8160   0.794E+00    0.924E-01
DAV:   2    -0.191547515125E+03   -0.94948E-01   -0.46562E-01 13600   0.353E+00    0.272E+00
DAV:   3    -0.191469274886E+03    0.78240E-01   -0.15926E-01 12240   0.290E+00    0.746E-01
DAV:   4    -0.191470416758E+03   -0.11419E-02   -0.29142E-02 11320   0.117E+00    0.872E-01
DAV:   5    -0.191463462550E+03    0.69542E-02   -0.22240E-02 11960   0.106E+00    0.448E-01
DAV:   6    -0.191463261293E+03    0.20126E-03   -0.10670E-02 11480   0.628E-01    0.469E-01
DAV:   7    -0.191462240485E+03    0.10208E-02   -0.83385E-03 11360   0.607E-01    0.300E-01
DAV:   8    -0.191461094023E+03    0.11465E-02   -0.20932E-03 11720   0.266E-01    0.469E-02
DAV:   9    -0.191461097254E+03   -0.32315E-05   -0.22356E-04  8080   0.520E-02
  10 F= -.19146110E+03 E0= -.19135976E+03  d E =0.762534E-01
       N       E                     dE             d eps       ncg     rms          rms(c)
DAV:   1    -0.191423792687E+03    0.37301E-01   -0.69618E+00  8160   0.554E+00    0.581E-01
DAV:   2    -0.191453945410E+03   -0.30153E-01   -0.17683E-01 13440   0.183E+00    0.156E+00
DAV:   3    -0.191432804512E+03    0.21141E-01   -0.65522E-02 12160   0.178E+00    0.616E-01
DAV:   4    -0.191429485596E+03    0.33189E-02   -0.11132E-02 11240   0.583E-01    0.302E-01
DAV:   5    -0.191429353231E+03    0.13236E-03   -0.61610E-03 11920   0.470E-01    0.413E-01
DAV:   6    -0.191428221221E+03    0.11320E-02   -0.55477E-03 11040   0.473E-01    0.211E-01
DAV:   7    -0.191427999187E+03    0.22203E-03   -0.14786E-03 10160   0.205E-01    0.994E-02
DAV:   8    -0.191427872462E+03    0.12673E-03   -0.45097E-04 10200   0.145E-01    0.742E-02
DAV:   9    -0.191427813724E+03    0.58737E-04   -0.13319E-04  6840   0.903E-02
  11 F= -.19142781E+03 E0= -.19132765E+03  d E =0.332835E-01
       N       E                     dE             d eps       ncg     rms          rms(c)
DAV:   1    -0.191432220237E+03   -0.43478E-02   -0.11391E+00  8160   0.225E+00    0.251E-01
DAV:   2    -0.191435073265E+03   -0.28530E-02   -0.37553E-02 12160   0.564E-01    0.294E-01
DAV:   3    -0.191435273518E+03   -0.20025E-03   -0.91246E-03 11120   0.573E-01    0.416E-01
DAV:   4    -0.191433775283E+03    0.14982E-02   -0.37670E-03 10920   0.388E-01    0.152E-01
DAV:   5    -0.191433685542E+03    0.89741E-04   -0.11319E-03  9600   0.228E-01    0.147E-01
DAV:   6    -0.191433590362E+03    0.95181E-04   -0.87191E-04  9760   0.209E-01
  12 F= -.19143359E+03 E0= -.19133265E+03  d E =-.577664E-02
       N       E                     dE             d eps       ncg     rms          rms(c)
DAV:   1    -0.191449177761E+03   -0.15492E-01   -0.12180E+00  8160   0.237E+00    0.308E-01
DAV:   2    -0.191457800127E+03   -0.86224E-02   -0.49198E-02 13600   0.108E+00    0.871E-01
DAV:   3    -0.191450989788E+03    0.68103E-02   -0.19912E-02 11760   0.953E-01    0.306E-01
DAV:   4    -0.191450728765E+03    0.26102E-03   -0.43294E-03 11040   0.420E-01    0.291E-01
DAV:   5    -0.191450057245E+03    0.67152E-03   -0.26473E-03 10160   0.361E-01    0.172E-01
DAV:   6    -0.191449885242E+03    0.17200E-03   -0.12559E-03  9600   0.209E-01    0.144E-01
DAV:   7    -0.191449822844E+03    0.62398E-04   -0.93758E-04  8400   0.211E-01
  13 F= -.19144982E+03 E0= -.19134711E+03  d E =-.162325E-01
       N       E                     dE             d eps       ncg     rms          rms(c)
DAV:   1    -0.191461442702E+03   -0.11557E-01   -0.63229E-01  8160   0.170E+00    0.226E-01
DAV:   2    -0.191467800739E+03   -0.63580E-02   -0.28759E-02 13600   0.869E-01    0.754E-01
DAV:   3    -0.191462441585E+03    0.53592E-02   -0.12692E-02 11480   0.768E-01    0.195E-01
DAV:   4    -0.191462360910E+03    0.80675E-04   -0.18356E-03 10000   0.259E-01    0.183E-01
DAV:   5    -0.191462132110E+03    0.22880E-03   -0.11986E-03 10400   0.238E-01    0.127E-01
DAV:   6    -0.191462024208E+03    0.10790E-03   -0.61207E-04  8240   0.149E-01    0.957E-02
DAV:   7    -0.191462016836E+03    0.73717E-05   -0.44484E-04  8280   0.147E-01
  14 F= -.19146202E+03 E0= -.19135797E+03  d E =-.121940E-01
       N       E                     dE             d eps       ncg     rms          rms(c)
DAV:   1    -0.191450176122E+03    0.11848E-01   -0.57032E-01  8160   0.160E+00    0.197E-01
DAV:   2    -0.191455443184E+03   -0.52671E-02   -0.22878E-02 13600   0.790E-01    0.684E-01
DAV:   3    -0.191450979314E+03    0.44639E-02   -0.96055E-03 11480   0.685E-01    0.158E-01
DAV:   4    -0.191450842865E+03    0.13645E-03   -0.10312E-03  9800   0.178E-01    0.119E-01
DAV:   5    -0.191450787332E+03    0.55533E-04   -0.69038E-04  9240   0.181E-01
  15 F= -.19145079E+03 E0= -.19134780E+03  d E =0.112295E-01
       N       E                     dE             d eps       ncg     rms          rms(c)
DAV:   1    -0.191454317860E+03   -0.34750E-02   -0.26394E-01  8160   0.110E+00    0.150E-01
DAV:   2    -0.191455040396E+03   -0.72254E-03   -0.88873E-03 12280   0.344E-01    0.256E-01
DAV:   3    -0.191454726632E+03    0.31376E-03   -0.31317E-03 11720   0.382E-01    0.219E-01
DAV:   4    -0.191454262624E+03    0.46401E-03   -0.10107E-03  9200   0.204E-01    0.723E-02
DAV:   5    -0.191454294183E+03   -0.31559E-04   -0.42981E-04  8240   0.134E-01
  16 F= -.19145429E+03 E0= -.19135111E+03  d E =-.350685E-02
       N       E                     dE             d eps       ncg     rms          rms(c)
DAV:   1    -0.191467832623E+03   -0.13570E-01   -0.82428E-01  8160   0.193E+00    0.287E-01
DAV:   2    -0.191480423596E+03   -0.12591E-01   -0.45923E-02 13360   0.119E+00    0.115E+00
DAV:   3    -0.191468627705E+03    0.11796E-01   -0.26767E-02 11240   0.104E+00    0.223E-01
DAV:   4    -0.191468886920E+03   -0.25921E-03   -0.33696E-03 11320   0.372E-01    0.284E-01
DAV:   5    -0.191468148330E+03    0.73859E-03   -0.21262E-03  9720   0.310E-01    0.131E-01
DAV:   6    -0.191468143822E+03    0.45080E-05   -0.93593E-04  9600   0.196E-01
  17 F= -.19146814E+03 E0= -.19136341E+03  d E =-.138496E-01
       N       E                     dE             d eps       ncg     rms          rms(c)
DAV:   1    -0.191423389418E+03    0.44759E-01   -0.11822E+01  8160   0.728E+00    0.928E-01
DAV:   2    -0.191537844549E+03   -0.11446E+00   -0.46653E-01 13520   0.350E+00    0.340E+00
DAV:   3    -0.191438177056E+03    0.99667E-01   -0.24390E-01 12160   0.330E+00    0.770E-01
DAV:   4    -0.191432944885E+03    0.52322E-02   -0.21924E-02 11040   0.873E-01    0.520E-01
DAV:   5    -0.191431430524E+03    0.15144E-02   -0.12875E-02 12760   0.851E-01    0.487E-01
DAV:   6    -0.191428604378E+03    0.28261E-02   -0.63341E-03 11600   0.551E-01    0.166E-01
DAV:   7    -0.191429313369E+03   -0.70899E-03   -0.34332E-03 12440   0.346E-01    0.327E-01
DAV:   8    -0.191428315612E+03    0.99776E-03   -0.21513E-03  9920   0.301E-01    0.625E-02
DAV:   9    -0.191428301590E+03    0.14022E-04   -0.12568E-04  5720   0.553E-02
  18 F= -.19142830E+03 E0= -.19132949E+03  d E =0.398422E-01
       N       E                     dE             d eps       ncg     rms          rms(c)
DAV:   1    -0.191442092921E+03   -0.13777E-01   -0.10944E+00  8160   0.223E+00    0.357E-01
DAV:   2    -0.191453981927E+03   -0.11889E-01   -0.49527E-02 13560   0.132E+00    0.111E+00
DAV:   3    -0.191441578076E+03    0.12404E-01   -0.24964E-02 11480   0.112E+00    0.267E-01
DAV:   4    -0.191442637577E+03   -0.10595E-02   -0.63786E-03 11280   0.538E-01    0.442E-01
DAV:   5    -0.191440753827E+03    0.18838E-02   -0.43214E-03 10840   0.453E-01    0.159E-01
DAV:   6    -0.191440740128E+03    0.13699E-04   -0.17146E-03  9840   0.244E-01    0.186E-01
DAV:   7    -0.191440477967E+03    0.26216E-03   -0.10537E-03  8600   0.221E-01    0.919E-02
DAV:   8    -0.191440391678E+03    0.86289E-04   -0.18985E-04  5600   0.883E-02
  19 F= -.19144039E+03 E0= -.19134085E+03  d E =-.120901E-01
       N       E                     dE             d eps       ncg     rms          rms(c)
DAV:   1    -0.191450547478E+03   -0.10070E-01   -0.66588E-01  8160   0.171E+00    0.180E-01
DAV:   2    -0.191453605659E+03   -0.30582E-02   -0.18934E-02 13600   0.553E-01    0.467E-01
DAV:   3    -0.191451613107E+03    0.19926E-02   -0.62374E-03 11440   0.540E-01    0.196E-01
DAV:   4    -0.191451416208E+03    0.19690E-03   -0.11761E-03  9520   0.199E-01    0.130E-01
DAV:   5    -0.191451303867E+03    0.11234E-03   -0.60204E-04  9160   0.176E-01    0.102E-01
DAV:   6    -0.191451274276E+03    0.29591E-04   -0.46232E-04  8080   0.142E-01
  20 F= -.19145127E+03 E0= -.19135168E+03  d E =-.108826E-01
       N       E                     dE             d eps       ncg     rms          rms(c)
DAV:   1    -0.191457811633E+03   -0.65078E-02   -0.24744E-01  8160   0.106E+00    0.158E-01
DAV:   2    -0.191462330870E+03   -0.45192E-02   -0.14599E-02 13120   0.659E-01    0.674E-01
DAV:   3    -0.191458080961E+03    0.42499E-02   -0.88698E-03 10040   0.598E-01    0.128E-01
DAV:   4    -0.191458166156E+03   -0.85195E-04   -0.91852E-04  8880   0.207E-01
  21 F= -.19145817E+03 E0= -.19135843E+03  d E =-.689188E-02
       N       E                     dE             d eps       ncg     rms          rms(c)
DAV:   1    -0.191448377221E+03    0.97037E-02   -0.10582E+00  8160   0.219E+00    0.241E-01
DAV:   2    -0.191455465847E+03   -0.70886E-02   -0.35554E-02 13600   0.865E-01    0.776E-01
DAV:   3    -0.191449915311E+03    0.55505E-02   -0.14155E-02 11520   0.807E-01    0.214E-01
DAV:   4    -0.191449554682E+03    0.36063E-03   -0.15213E-03 10840   0.193E-01    0.118E-01
DAV:   5    -0.191449568606E+03   -0.13924E-04   -0.96766E-04 10160   0.199E-01
  22 F= -.19144957E+03 E0= -.19135062E+03  d E =0.859755E-02
       N       E                     dE             d eps       ncg     rms          rms(c)
DAV:   1    -0.191463620235E+03   -0.14066E-01   -0.18003E+00  8160   0.280E+00    0.333E-01
DAV:   2    -0.191472623712E+03   -0.90035E-02   -0.46488E-02 13600   0.118E+00    0.849E-01
DAV:   3    -0.191464246542E+03    0.83772E-02   -0.16289E-02 12720   0.966E-01    0.197E-01
DAV:   4    -0.191464194978E+03    0.51564E-04   -0.25789E-03 11600   0.260E-01    0.195E-01
DAV:   5    -0.191464154582E+03    0.40396E-04   -0.25081E-03 11280   0.316E-01    0.251E-01
DAV:   6    -0.191463663511E+03    0.49107E-03   -0.16910E-03  9680   0.268E-01    0.937E-02
DAV:   7    -0.191463611086E+03    0.52425E-04   -0.32243E-04  6720   0.100E-01
  23 F= -.19146361E+03 E0= -.19136516E+03  d E =-.140425E-01
       N       E                     dE             d eps       ncg     rms          rms(c)
DAV:   1    -0.191466181665E+03   -0.25182E-02   -0.52110E-02  8160   0.483E-01    0.669E-02
DAV:   2    -0.191466885060E+03   -0.70339E-03   -0.22398E-03 12360   0.264E-01    0.259E-01
DAV:   3    -0.191466198737E+03    0.68632E-03   -0.12606E-03 10120   0.246E-01    0.511E-02
DAV:   4    -0.191466222389E+03   -0.23652E-04   -0.11801E-04  5760   0.699E-02
  24 F= -.19146622E+03 E0= -.19136805E+03  d E =-.261130E-02
       N       E                     dE             d eps       ncg     rms          rms(c)
DAV:   1    -0.191427913271E+03    0.38285E-01   -0.99501E+00  8160   0.653E+00    0.676E-01
DAV:   2    -0.191468700616E+03   -0.40787E-01   -0.21333E-01 12360   0.211E+00    0.169E+00
DAV:   3    -0.191435746360E+03    0.32954E-01   -0.70710E-02 12640   0.194E+00    0.610E-01
DAV:   4    -0.191435929538E+03   -0.18318E-03   -0.19828E-02 11520   0.864E-01    0.656E-01
DAV:   5    -0.191432919353E+03    0.30102E-02   -0.12327E-02 11480   0.785E-01    0.379E-01
DAV:   6    -0.191431359418E+03    0.15599E-02   -0.42406E-03 11560   0.417E-01    0.177E-01
DAV:   7    -0.191432253489E+03   -0.89407E-03   -0.39045E-03 12000   0.405E-01    0.352E-01
DAV:   8    -0.191431111054E+03    0.11424E-02   -0.23307E-03  9680   0.324E-01    0.671E-02
DAV:   9    -0.191431054782E+03    0.56272E-04   -0.14642E-04  5600   0.599E-02
  25 F= -.19143105E+03 E0= -.19133097E+03  d E =0.351676E-01
       N       E                     dE             d eps       ncg     rms          rms(c)
DAV:   1    -0.191433915314E+03   -0.28043E-02   -0.35036E+00  8160   0.390E+00    0.395E-01
DAV:   2    -0.191444347381E+03   -0.10432E-01   -0.75611E-02 12320   0.113E+00    0.851E-01
DAV:   3    -0.191438380478E+03    0.59669E-02   -0.25184E-02 12400   0.107E+00    0.494E-01
DAV:   4    -0.191437253845E+03    0.11266E-02   -0.83971E-03 10960   0.544E-01    0.357E-01
DAV:   5    -0.191436478114E+03    0.77573E-03   -0.45733E-03 10600   0.464E-01    0.256E-01
DAV:   6    -0.191435869924E+03    0.60819E-03   -0.21259E-03 10880   0.295E-01    0.137E-01
DAV:   7    -0.191436189349E+03   -0.31942E-03   -0.16177E-03 10160   0.277E-01    0.218E-01
DAV:   8    -0.191435705687E+03    0.48366E-03   -0.76055E-04  8600   0.196E-01    0.290E-02
DAV:   9    -0.191435711571E+03   -0.58835E-05   -0.49634E-05  5960   0.306E-02
  26 F= -.19143571E+03 E0= -.19133314E+03  d E =-.465679E-02
       N       E                     dE             d eps       ncg     rms          rms(c)
DAV:   1    -0.191439386694E+03   -0.36810E-02   -0.10464E-01  8160   0.687E-01    0.978E-02
DAV:   2    -0.191440728969E+03   -0.13423E-02   -0.54876E-03 13360   0.404E-01    0.357E-01
DAV:   3    -0.191439508248E+03    0.12207E-02   -0.25170E-03  9960   0.339E-01    0.766E-02
DAV:   4    -0.191439554140E+03   -0.45891E-04   -0.35900E-04  8000   0.126E-01
  27 F= -.19143955E+03 E0= -.19133664E+03  d E =-.384257E-02
       N       E                     dE             d eps       ncg     rms          rms(c)
DAV:   1    -0.191438262275E+03    0.12460E-02   -0.32663E-02  8160   0.394E-01    0.525E-02
DAV:   2    -0.191438768173E+03   -0.50590E-03   -0.15964E-03 12480   0.220E-01    0.219E-01
DAV:   3    -0.191438279954E+03    0.48822E-03   -0.85602E-04  8880   0.198E-01    0.369E-02
DAV:   4    -0.191438305985E+03   -0.26031E-04   -0.88139E-05  5640   0.606E-02
  28 F= -.19143831E+03 E0= -.19133547E+03  d E =0.124815E-02
       N       E                     dE             d eps       ncg     rms          rms(c)
DAV:   1    -0.191443438633E+03   -0.51587E-02   -0.63124E-01  8160   0.167E+00    0.225E-01
DAV:   2    -0.191449826215E+03   -0.63876E-02   -0.25112E-02 13600   0.849E-01    0.812E-01
DAV:   3    -0.191443849474E+03    0.59767E-02   -0.13604E-02 11320   0.760E-01    0.187E-01
DAV:   4    -0.191443879370E+03   -0.29896E-04   -0.20360E-03 10600   0.259E-01    0.202E-01
DAV:   5    -0.191443601315E+03    0.27806E-03   -0.13559E-03  9800   0.249E-01    0.139E-01
DAV:   6    -0.191443461671E+03    0.13964E-03   -0.63639E-04  8160   0.159E-01    0.899E-02
DAV:   7    -0.191443459179E+03    0.24915E-05   -0.41997E-04  8160   0.149E-01
  29 F= -.19144346E+03 E0= -.19134117E+03  d E =-.515319E-02
       N       E                     dE             d eps       ncg     rms          rms(c)
DAV:   1    -0.191447567958E+03   -0.41063E-02   -0.21932E-01  8160   0.979E-01    0.107E-01
DAV:   2    -0.191448618683E+03   -0.10507E-02   -0.55799E-03 13280   0.323E-01    0.297E-01
DAV:   3    -0.191447785770E+03    0.83291E-03   -0.23097E-03 10120   0.325E-01    0.113E-01
DAV:   4    -0.191447739220E+03    0.46550E-04   -0.42562E-04  8000   0.115E-01
  30 F= -.19144774E+03 E0= -.19134555E+03  d E =-.428004E-02
       N       E                     dE             d eps       ncg     rms          rms(c)
DAV:   1    -0.191455804838E+03   -0.80191E-02   -0.62211E-01  8160   0.167E+00    0.210E-01
DAV:   2    -0.191459941007E+03   -0.41362E-02   -0.22634E-02 13240   0.680E-01    0.616E-01
DAV:   3    -0.191456658032E+03    0.32830E-02   -0.10517E-02 11440   0.655E-01    0.239E-01
DAV:   4    -0.191456267170E+03    0.39086E-03   -0.18333E-03  9560   0.240E-01    0.145E-01
DAV:   5    -0.191456258861E+03    0.83092E-05   -0.11580E-03  9960   0.237E-01    0.160E-01
DAV:   6    -0.191456039047E+03    0.21981E-03   -0.70676E-04  8160   0.175E-01    0.820E-02
DAV:   7    -0.191456080365E+03   -0.41318E-04   -0.41285E-04  8320   0.146E-01
  31 F= -.19145608E+03 E0= -.19135267E+03  d E =-.834115E-02
       N       E                     dE             d eps       ncg     rms          rms(c)
DAV:   1    -0.191463982419E+03   -0.79434E-02   -0.51890E-01  8160   0.151E+00    0.190E-01
DAV:   2    -0.191467525828E+03   -0.35434E-02   -0.16051E-02 13040   0.664E-01    0.574E-01
DAV:   3    -0.191464275640E+03    0.32502E-02   -0.73776E-03 11560   0.603E-01    0.170E-01
DAV:   4    -0.191464217164E+03    0.58476E-04   -0.13203E-03  9840   0.223E-01    0.152E-01
DAV:   5    -0.191464065342E+03    0.15182E-03   -0.82222E-04 10440   0.207E-01    0.113E-01
DAV:   6    -0.191463941761E+03    0.12358E-03   -0.41723E-04  8240   0.134E-01    0.625E-02
DAV:   7    -0.191463991782E+03   -0.50021E-04   -0.36425E-04  7280   0.123E-01
  32 F= -.19146399E+03 E0= -.19136110E+03  d E =-.791142E-02
       N       E                     dE             d eps       ncg     rms          rms(c)
DAV:   1    -0.191481552978E+03   -0.17611E-01   -0.15022E+00  8160   0.259E+00    0.321E-01
DAV:   2    -0.191494119134E+03   -0.12566E-01   -0.55626E-02 13600   0.122E+00    0.108E+00
DAV:   3    -0.191483307189E+03    0.10812E-01   -0.25229E-02 11680   0.108E+00    0.267E-01
DAV:   4    -0.191483259081E+03    0.48108E-04   -0.37049E-03 11400   0.357E-01    0.274E-01
DAV:   5    -0.191482742400E+03    0.51668E-03   -0.26800E-03 10400   0.348E-01    0.194E-01
DAV:   6    -0.191482509639E+03    0.23276E-03   -0.13649E-03  9600   0.222E-01    0.137E-01
DAV:   7    -0.191482492714E+03    0.16925E-04   -0.90620E-04  8560   0.209E-01
  33 F= -.19148249E+03 E0= -.19137901E+03  d E =-.185009E-01
       N       E                     dE             d eps       ncg     rms          rms(c)
DAV:   1    -0.191447794668E+03    0.34715E-01   -0.47866E+00  8160   0.463E+00    0.522E-01
DAV:   2    -0.191474693034E+03   -0.26898E-01   -0.15277E-01 13600   0.178E+00    0.148E+00
DAV:   3    -0.191455203114E+03    0.19490E-01   -0.57137E-02 12320   0.164E+00    0.531E-01
DAV:   4    -0.191452926454E+03    0.22767E-02   -0.88410E-03 10920   0.535E-01    0.315E-01
DAV:   5    -0.191452778200E+03    0.14825E-03   -0.57012E-03 11800   0.509E-01    0.366E-01
DAV:   6    -0.191451712428E+03    0.10658E-02   -0.38562E-03 10840   0.390E-01    0.186E-01
DAV:   7    -0.191452067665E+03   -0.35524E-03   -0.24483E-03  9880   0.337E-01    0.241E-01
DAV:   8    -0.191451406476E+03    0.66119E-03   -0.10387E-03  9840   0.228E-01    0.309E-02
DAV:   9    -0.191451410737E+03   -0.42612E-05   -0.75407E-05  6280   0.361E-02
  34 F= -.19145141E+03 E0= -.19134958E+03  d E =0.310820E-01
       N       E                     dE             d eps       ncg     rms          rms(c)
DAV:   1    -0.191423242112E+03    0.28164E-01   -0.61603E+00  8160   0.524E+00    0.577E-01
DAV:   2    -0.191456656868E+03   -0.33415E-01   -0.18736E-01 13600   0.190E+00    0.168E+00
DAV:   3    -0.191432788501E+03    0.23868E-01   -0.73866E-02 12200   0.183E+00    0.609E-01
DAV:   4    -0.191429212769E+03    0.35757E-02   -0.10736E-02 11040   0.546E-01    0.271E-01
DAV:   5    -0.191429110798E+03    0.10197E-03   -0.50749E-03 12440   0.425E-01    0.382E-01
DAV:   6    -0.191428192635E+03    0.91816E-03   -0.49301E-03 11000   0.454E-01    0.211E-01
DAV:   7    -0.191427888447E+03    0.30419E-03   -0.12409E-03 10240   0.191E-01    0.685E-02
DAV:   8    -0.191427815753E+03    0.72694E-04   -0.21341E-04  8120   0.931E-02
  35 F= -.19142782E+03 E0= -.19132771E+03  d E =0.235950E-01
       N       E                     dE             d eps       ncg     rms          rms(c)
DAV:   1    -0.191441571509E+03   -0.13683E-01   -0.17389E+00  8160   0.278E+00    0.313E-01
DAV:   2    -0.191453161895E+03   -0.11590E-01   -0.56913E-02 13600   0.107E+00    0.974E-01
DAV:   3    -0.191444300916E+03    0.88610E-02   -0.23144E-02 11840   0.103E+00    0.315E-01
DAV:   4    -0.191443830953E+03    0.46996E-03   -0.36807E-03 10920   0.344E-01    0.243E-01
DAV:   5    -0.191443471699E+03    0.35925E-03   -0.22233E-03 10800   0.322E-01    0.191E-01
DAV:   6    -0.191443207605E+03    0.26409E-03   -0.12283E-03  9600   0.218E-01    0.124E-01
DAV:   7    -0.191443299519E+03   -0.91914E-04   -0.91311E-04  9240   0.214E-01
  36 F= -.19144330E+03 E0= -.19134337E+03  d E =-.154838E-01
       N       E                     dE             d eps       ncg     rms          rms(c)
DAV:   1    -0.191443210545E+03   -0.29399E-05   -0.74818E-02  8160   0.585E-01    0.630E-02
DAV:   2    -0.191443413370E+03   -0.20283E-03   -0.16980E-03 12440   0.146E-01    0.994E-02
DAV:   3    -0.191443320354E+03    0.93016E-04   -0.54395E-04  9920   0.151E-01
  37 F= -.19144332E+03 E0= -.19134335E+03  d E =-.208348E-04
       N       E                     dE             d eps       ncg     rms          rms(c)
DAV:   1    -0.191443250439E+03    0.16293E-03   -0.24963E-02  8160   0.351E-01    0.618E-02
DAV:   2    -0.191443509363E+03   -0.25892E-03   -0.10782E-03 11360   0.186E-01    0.153E-01
DAV:   3    -0.191443248863E+03    0.26050E-03   -0.59469E-04  8240   0.179E-01    0.635E-02
DAV:   4    -0.191443236738E+03    0.12124E-04   -0.15003E-04  5480   0.846E-02
  38 F= -.19144324E+03 E0= -.19134336E+03  d E =0.836159E-04
       N       E                     dE             d eps       ncg     rms          rms(c)
DAV:   1    -0.191455726944E+03   -0.12478E-01   -0.21401E+00  8160   0.310E+00    0.354E-01
DAV:   2    -0.191466633295E+03   -0.10906E-01   -0.69476E-02 13600   0.115E+00    0.913E-01
DAV:   3    -0.191459053591E+03    0.75797E-02   -0.23500E-02 11920   0.105E+00    0.397E-01
DAV:   4    -0.191458153490E+03    0.90010E-03   -0.55492E-03 10760   0.449E-01    0.286E-01
DAV:   5    -0.191457775888E+03    0.37760E-03   -0.35812E-03 10600   0.408E-01    0.245E-01
DAV:   6    -0.191457300017E+03    0.47587E-03   -0.18945E-03 10000   0.274E-01    0.147E-01
DAV:   7    -0.191457337474E+03   -0.37456E-04   -0.11499E-03  9600   0.240E-01    0.142E-01
DAV:   8    -0.191457111475E+03    0.22600E-03   -0.37515E-04  8760   0.132E-01    0.245E-02
DAV:   9    -0.191457109333E+03    0.21415E-05   -0.44189E-05  6120   0.271E-02
  39 F= -.19145711E+03 E0= -.19135652E+03  d E =-.138726E-01
       N       E                     dE             d eps       ncg     rms          rms(c)
DAV:   1    -0.191453624577E+03    0.34869E-02   -0.14100E-01  8160   0.791E-01    0.860E-02
DAV:   2    -0.191454262543E+03   -0.63797E-03   -0.40222E-03 13600   0.274E-01    0.224E-01
DAV:   3    -0.191453825645E+03    0.43690E-03   -0.14790E-03  9760   0.261E-01    0.100E-01
DAV:   4    -0.191453744155E+03    0.81490E-04   -0.26559E-04  6480   0.948E-02
  40 F= -.19145374E+03 E0= -.19135353E+03  d E =0.336518E-02
       N       E                     dE             d eps       ncg     rms          rms(c)
DAV:   1    -0.191456088692E+03   -0.22630E-02   -0.29723E+00  8160   0.362E+00    0.423E-01
DAV:   2    -0.191465599484E+03   -0.95108E-02   -0.74958E-02 13320   0.122E+00    0.832E-01
DAV:   3    -0.191458677573E+03    0.69219E-02   -0.23812E-02 12360   0.111E+00    0.423E-01
DAV:   4    -0.191458087320E+03    0.59025E-03   -0.84900E-03 12160   0.579E-01    0.414E-01
DAV:   5    -0.191457379949E+03    0.70737E-03   -0.68092E-03 10120   0.534E-01    0.338E-01
DAV:   6    -0.191456086933E+03    0.12930E-02   -0.28397E-03 10080   0.319E-01    0.648E-02
DAV:   7    -0.191456111630E+03   -0.24697E-04   -0.44340E-04 10000   0.836E-02
  41 F= -.19145611E+03 E0= -.19135700E+03  d E =-.236747E-02
       N       E                     dE             d eps       ncg     rms          rms(c)
DAV:   1    -0.191461350294E+03   -0.52634E-02   -0.64356E-01  8160   0.167E+00    0.175E-01
DAV:   2    -0.191462842414E+03   -0.14921E-02   -0.13748E-02 12240   0.392E-01    0.295E-01
DAV:   3    -0.191462229125E+03    0.61329E-03   -0.43852E-03 12040   0.450E-01    0.239E-01
DAV:   4    -0.191461831774E+03    0.39735E-03   -0.14729E-03  9760   0.252E-01    0.129E-01
DAV:   5    -0.191461755220E+03    0.76554E-04   -0.65366E-04  8440   0.189E-01
  42 F= -.19146176E+03 E0= -.19136306E+03  d E =-.564359E-02
       N       E                     dE             d eps       ncg     rms          rms(c)
DAV:   1    -0.191476589782E+03   -0.14758E-01   -0.14017E+00  8160   0.249E+00    0.281E-01
DAV:   2    -0.191485331141E+03   -0.87414E-02   -0.42165E-02 13600   0.984E-01    0.867E-01
DAV:   3    -0.191478290252E+03    0.70409E-02   -0.17858E-02 11680   0.912E-01    0.264E-01
DAV:   4    -0.191478122407E+03    0.16784E-03   -0.30138E-03 11160   0.330E-01    0.241E-01
DAV:   5    -0.191477718925E+03    0.40348E-03   -0.19574E-03 10400   0.311E-01    0.165E-01
DAV:   6    -0.191477563264E+03    0.15566E-03   -0.97054E-04  8800   0.198E-01    0.125E-01
DAV:   7    -0.191477536982E+03    0.26282E-04   -0.72261E-04  8560   0.195E-01
  43 F= -.19147754E+03 E0= -.19137916E+03  d E =-.157818E-01
       N       E                     dE             d eps       ncg     rms          rms(c)
DAV:   1    -0.191476880752E+03    0.68251E-03   -0.19637E-03  9040   0.137E-01    0.205E-02
DAV:   2    -0.191476916186E+03   -0.35434E-04   -0.12191E-04  6840   0.590E-02
  44 F= -.19147692E+03 E0= -.19137846E+03  d E =0.620796E-03
       N       E                     dE             d eps       ncg     rms          rms(c)
DAV:   1    -0.191479293362E+03   -0.24126E-02   -0.75227E-01  8160   0.181E+00    0.198E-01
DAV:   2    -0.191482502248E+03   -0.32089E-02   -0.18874E-02 12960   0.646E-01    0.512E-01
DAV:   3    -0.191480102642E+03    0.23996E-02   -0.78151E-03 11560   0.597E-01    0.230E-01
DAV:   4    -0.191479874070E+03    0.22857E-03   -0.20226E-03  9600   0.272E-01    0.176E-01
DAV:   5    -0.191479674311E+03    0.19976E-03   -0.10130E-03  9480   0.230E-01    0.116E-01
DAV:   6    -0.191479519311E+03    0.15500E-03   -0.40233E-04  9160   0.129E-01    0.510E-02
DAV:   7    -0.191479611996E+03   -0.92685E-04   -0.33794E-04  8160   0.131E-01
  45 F= -.19147961E+03 E0= -.19138160E+03  d E =-.269581E-02
       N       E                     dE             d eps       ncg     rms          rms(c)
DAV:   1    -0.191503621411E+03   -0.24102E-01   -0.22876E+00  8160   0.318E+00    0.351E-01
DAV:   2    -0.191515198118E+03   -0.11577E-01   -0.63600E-02 13280   0.120E+00    0.969E-01
DAV:   3    -0.191506417818E+03    0.87803E-02   -0.24752E-02 12120   0.108E+00    0.354E-01
DAV:   4    -0.191506115905E+03    0.30191E-03   -0.55573E-03 11040   0.467E-01    0.324E-01
DAV:   5    -0.191505314735E+03    0.80117E-03   -0.32376E-03 11240   0.409E-01    0.204E-01
DAV:   6    -0.191505048522E+03    0.26621E-03   -0.15928E-03 10160   0.251E-01    0.158E-01
DAV:   7    -0.191505050867E+03   -0.23452E-05   -0.12859E-03  9760   0.251E-01    0.147E-01
DAV:   8    -0.191504820613E+03    0.23025E-03   -0.43126E-04  8160   0.140E-01    0.252E-02
DAV:   9    -0.191504815760E+03    0.48539E-05   -0.43345E-05  6560   0.288E-02
  46 F= -.19150482E+03 E0= -.19140696E+03  d E =-.252038E-01
       N       E                     dE             d eps       ncg     rms          rms(c)
DAV:   1    -0.191500067653E+03    0.47530E-02   -0.80622E-02  8160   0.597E-01    0.603E-02
DAV:   2    -0.191500323193E+03   -0.25554E-03   -0.19257E-03 13520   0.175E-01    0.133E-01
DAV:   3    -0.191500167968E+03    0.15523E-03   -0.59227E-04  8280   0.168E-01    0.739E-02
DAV:   4    -0.191500133861E+03    0.34107E-04   -0.15845E-04  5520   0.825E-02
  47 F= -.19150013E+03 E0= -.19140217E+03  d E =0.468190E-02
       N       E                     dE             d eps       ncg     rms          rms(c)
DAV:   1    -0.191497985699E+03    0.21823E-02   -0.12636E+00  8160   0.236E+00    0.258E-01
DAV:   2    -0.191501995271E+03   -0.40096E-02   -0.33702E-02 13520   0.777E-01    0.481E-01
DAV:   3    -0.191499588596E+03    0.24067E-02   -0.85608E-03 12680   0.677E-01    0.250E-01
DAV:   4    -0.191499259735E+03    0.32886E-03   -0.25994E-03 11240   0.326E-01    0.219E-01
DAV:   5    -0.191499128813E+03    0.13092E-03   -0.21622E-03  9760   0.302E-01    0.205E-01
DAV:   6    -0.191498703971E+03    0.42484E-03   -0.98854E-04  9400   0.191E-01    0.449E-02
DAV:   7    -0.191498712288E+03   -0.83173E-05   -0.13155E-04  6440   0.529E-02
  48 F= -.19149871E+03 E0= -.19140085E+03  d E =0.142157E-02
       N       E                     dE             d eps       ncg     rms          rms(c)
DAV:   1    -0.191446391038E+03    0.52313E-01   -0.21173E+01  8160   0.970E+00    0.940E-01
DAV:   2    -0.191492689903E+03   -0.46299E-01   -0.48684E-01 13200   0.226E+00    0.144E+00
DAV:   3    -0.191488496708E+03    0.41932E-02   -0.12559E-01 12600   0.241E+00    0.149E+00
DAV:   4    -0.191468345910E+03    0.20151E-01   -0.44765E-02 12720   0.142E+00    0.494E-01
DAV:   5    -0.191466386796E+03    0.19591E-02   -0.12586E-02 10520   0.658E-01    0.540E-01
DAV:   6    -0.191465945313E+03    0.44148E-03   -0.14934E-02 11960   0.797E-01    0.485E-01
DAV:   7    -0.191464940680E+03    0.10046E-02   -0.70408E-03 11840   0.538E-01    0.305E-01
DAV:   8    -0.191463862310E+03    0.10784E-02   -0.22333E-03 10840   0.365E-01    0.105E-01
DAV:   9    -0.191463736516E+03    0.12579E-03   -0.37284E-04  9280   0.115E-01    0.366E-02
DAV:  10    -0.191463719297E+03    0.17219E-04   -0.10981E-04  7880   0.377E-02
  49 F= -.19146372E+03 E0= -.19136550E+03  d E =0.349930E-01
       N       E                     dE             d eps       ncg     rms          rms(c)
DAV:   1    -0.191491344928E+03   -0.27608E-01   -0.37451E+00  8160   0.407E+00    0.443E-01
DAV:   2    -0.191499632044E+03   -0.82871E-02   -0.95157E-02 12240   0.912E-01    0.580E-01
DAV:   3    -0.191497783763E+03    0.18483E-02   -0.23595E-02 12200   0.101E+00    0.605E-01
DAV:   4    -0.191494854169E+03    0.29296E-02   -0.90889E-03 11680   0.677E-01    0.304E-01
DAV:   5    -0.191494461300E+03    0.39287E-03   -0.40898E-03 10160   0.454E-01    0.302E-01
DAV:   6    -0.191493709004E+03    0.75230E-03   -0.25989E-03 10560   0.374E-01    0.141E-01
DAV:   7    -0.191493723942E+03   -0.14937E-04   -0.11382E-03 10120   0.207E-01    0.148E-01
DAV:   8    -0.191493572874E+03    0.15107E-03   -0.75326E-04  8400   0.182E-01    0.878E-02
DAV:   9    -0.191493491322E+03    0.81552E-04   -0.14155E-04  5640   0.753E-02
  50 F= -.19149349E+03 E0= -.19139596E+03  d E =-.297720E-01
       N       E                     dE             d eps       ncg     rms          rms(c)
DAV:   1    -0.191498057578E+03   -0.44847E-02   -0.49872E-01  8160   0.148E+00    0.160E-01
DAV:   2    -0.191499717114E+03   -0.16595E-02   -0.12227E-02 13600   0.522E-01    0.334E-01
DAV:   3    -0.191498480975E+03    0.12361E-02   -0.33005E-03 11480   0.431E-01    0.131E-01
DAV:   4    -0.191498456942E+03    0.24032E-04   -0.94985E-04  9600   0.195E-01
  51 F= -.19149846E+03 E0= -.19140106E+03  d E =-.496562E-02
       N       E                     dE             d eps       ncg     rms          rms(c)
DAV:   1    -0.191486362463E+03    0.12119E-01   -0.14006E+00  8160   0.248E+00    0.286E-01
DAV:   2    -0.191498475767E+03   -0.12113E-01   -0.45477E-02 13360   0.121E+00    0.982E-01
DAV:   3    -0.191487359245E+03    0.11117E-01   -0.17704E-02 10640   0.982E-01    0.211E-01
DAV:   4    -0.191487741332E+03   -0.38209E-03   -0.31791E-03 11200   0.374E-01    0.274E-01
DAV:   5    -0.191487021026E+03    0.72031E-03   -0.16151E-03  9560   0.284E-01    0.938E-02
DAV:   6    -0.191486982567E+03    0.38459E-04   -0.45123E-04  8840   0.125E-01
  52 F= -.19148698E+03 E0= -.19138939E+03  d E =0.114744E-01
       N       E                     dE             d eps       ncg     rms          rms(c)
DAV:   1    -0.191492595674E+03   -0.55746E-02   -0.51866E+00  8160   0.478E+00    0.458E-01
DAV:   2    -0.191501084377E+03   -0.84887E-02   -0.10605E-01 12560   0.103E+00    0.557E-01
DAV:   3    -0.191500666994E+03    0.41738E-03   -0.23036E-02 12640   0.103E+00    0.661E-01
DAV:   4    -0.191497446251E+03    0.32207E-02   -0.12306E-02 11520   0.747E-01    0.353E-01
DAV:   5    -0.191496951598E+03    0.49465E-03   -0.52321E-03 10680   0.499E-01    0.319E-01
DAV:   6    -0.191496028816E+03    0.92278E-03   -0.28090E-03 11720   0.376E-01    0.142E-01
DAV:   7    -0.191496493907E+03   -0.46509E-03   -0.18685E-03  9920   0.290E-01    0.253E-01
DAV:   8    -0.191495859828E+03    0.63408E-03   -0.10901E-03  8840   0.234E-01    0.430E-02
DAV:   9    -0.191495855413E+03    0.44151E-05   -0.74830E-05  5720   0.438E-02
  53 F= -.19149586E+03 E0= -.19139864E+03  d E =-.887285E-02
       N       E                     dE             d eps       ncg     rms          rms(c)
DAV:   1    -0.191512309273E+03   -0.16449E-01   -0.87627E+00  8160   0.619E+00    0.665E-01
DAV:   2    -0.191538718818E+03   -0.26410E-01   -0.19903E-01 13560   0.204E+00    0.136E+00
DAV:   3    -0.191519904101E+03    0.18815E-01   -0.60081E-02 12400   0.180E+00    0.623E-01
DAV:   4    -0.191518461499E+03    0.14426E-02   -0.18689E-02 12320   0.886E-01    0.609E-01
DAV:   5    -0.191516561208E+03    0.19003E-02   -0.13204E-02 10440   0.815E-01    0.475E-01
DAV:   6    -0.191514063562E+03    0.24976E-02   -0.57672E-03 11640   0.494E-01    0.167E-01
DAV:   7    -0.191515218051E+03   -0.11545E-02   -0.40987E-03 11800   0.421E-01    0.375E-01
DAV:   8    -0.191513843148E+03    0.13749E-02   -0.23209E-03 10160   0.327E-01    0.438E-02
DAV:   9    -0.191513847488E+03   -0.43400E-05   -0.91845E-05  5960   0.416E-02
  54 F= -.19151385E+03 E0= -.19141631E+03  d E =-.179921E-01
       N       E                     dE             d eps       ncg     rms          rms(c)
DAV:   1    -0.191537829070E+03   -0.23986E-01   -0.22801E+00  8160   0.315E+00    0.326E-01
DAV:   2    -0.191544099366E+03   -0.62703E-02   -0.50825E-02 12560   0.857E-01    0.592E-01
DAV:   3    -0.191540560366E+03    0.35390E-02   -0.14775E-02 12240   0.856E-01    0.365E-01
DAV:   4    -0.191539834049E+03    0.72632E-03   -0.47598E-03 11600   0.458E-01    0.267E-01
DAV:   5    -0.191539470766E+03    0.36328E-03   -0.26555E-03 10280   0.369E-01    0.217E-01
DAV:   6    -0.191539021980E+03    0.44879E-03   -0.12486E-03 11040   0.242E-01    0.896E-02
DAV:   7    -0.191539233721E+03   -0.21174E-03   -0.86266E-04  8920   0.192E-01    0.170E-01
DAV:   8    -0.191538969067E+03    0.26465E-03   -0.60791E-04  8480   0.170E-01    0.428E-02
DAV:   9    -0.191538954473E+03    0.14593E-04   -0.51436E-05  5680   0.397E-02
  55 F= -.19153895E+03 E0= -.19144159E+03  d E =-.251070E-01
       N       E                     dE             d eps       ncg     rms          rms(c)
DAV:   1    -0.191547162934E+03   -0.81939E-02   -0.53822E-01  8160   0.152E+00    0.149E-01
DAV:   2    -0.191548563902E+03   -0.14010E-02   -0.10700E-02 12720   0.447E-01    0.288E-01
DAV:   3    -0.191547621030E+03    0.94287E-03   -0.28675E-03 11680   0.396E-01    0.132E-01
DAV:   4    -0.191547556254E+03    0.64776E-04   -0.76359E-04  9080   0.178E-01
  56 F= -.19154756E+03 E0= -.19145009E+03  d E =-.860178E-02
       N       E                     dE             d eps       ncg     rms          rms(c)
DAV:   1    -0.191554640139E+03   -0.70191E-02   -0.30023E+00  8160   0.364E+00    0.351E-01
DAV:   2    -0.191567079360E+03   -0.12439E-01   -0.71210E-02 13560   0.115E+00    0.969E-01
DAV:   3    -0.191558336856E+03    0.87425E-02   -0.23056E-02 11280   0.106E+00    0.349E-01
DAV:   4    -0.191557830650E+03    0.50621E-03   -0.47991E-03 10360   0.425E-01    0.286E-01
DAV:   5    -0.191557351490E+03    0.47916E-03   -0.31841E-03 11480   0.395E-01    0.223E-01
DAV:   6    -0.191557020944E+03    0.33055E-03   -0.16044E-03 10000   0.263E-01    0.141E-01
DAV:   7    -0.191557055596E+03   -0.34652E-04   -0.10194E-03 10000   0.236E-01    0.132E-01
DAV:   8    -0.191556843324E+03    0.21227E-03   -0.36120E-04  8480   0.138E-01    0.254E-02
DAV:   9    -0.191556836798E+03    0.65264E-05   -0.41190E-05  6440   0.288E-02
  57 F= -.19155684E+03 E0= -.19145963E+03  d E =-.928054E-02
       N       E                     dE             d eps       ncg     rms          rms(c)
DAV:   1    -0.191583777726E+03   -0.26934E-01   -0.29955E+00  8160   0.363E+00    0.462E-01
DAV:   2    -0.191596652804E+03   -0.12875E-01   -0.84820E-02 13600   0.151E+00    0.102E+00
DAV:   3    -0.191584276001E+03    0.12377E-01   -0.28641E-02 12320   0.128E+00    0.302E-01
DAV:   4    -0.191583695730E+03    0.58027E-03   -0.56987E-03 11960   0.429E-01    0.268E-01
DAV:   5    -0.191583699738E+03   -0.40084E-05   -0.47743E-03 12120   0.437E-01    0.375E-01
DAV:   6    -0.191582550680E+03    0.11491E-02   -0.36127E-03 10560   0.392E-01    0.127E-01
DAV:   7    -0.191582449478E+03    0.10120E-03   -0.55559E-04  8960   0.124E-01    0.589E-02
DAV:   8    -0.191582433944E+03    0.15534E-04   -0.19768E-04  6760   0.102E-01
  58 F= -.19158243E+03 E0= -.19148489E+03  d E =-.255971E-01
       N       E                     dE             d eps       ncg     rms          rms(c)
DAV:   1    -0.191605636426E+03   -0.23187E-01   -0.18923E+00  8160   0.288E+00    0.291E-01
DAV:   2    -0.191610086289E+03   -0.44499E-02   -0.44874E-02 12240   0.707E-01    0.446E-01
DAV:   3    -0.191608516055E+03    0.15702E-02   -0.10975E-02 11360   0.720E-01    0.353E-01
DAV:   4    -0.191607723773E+03    0.79228E-03   -0.38173E-03 11520   0.425E-01    0.229E-01
DAV:   5    -0.191607450749E+03    0.27302E-03   -0.19952E-03 10280   0.323E-01    0.190E-01
DAV:   6    -0.191607172563E+03    0.27819E-03   -0.11033E-03 10840   0.230E-01    0.953E-02
DAV:   7    -0.191607306875E+03   -0.13431E-03   -0.72674E-04  8760   0.178E-01    0.152E-01
DAV:   8    -0.191607090259E+03    0.21662E-03   -0.49093E-04  8360   0.155E-01    0.389E-02
DAV:   9    -0.191607081748E+03    0.85104E-05   -0.45220E-05  5800   0.372E-02
  59 F= -.19160708E+03 E0= -.19150952E+03  d E =-.246478E-01
       N       E                     dE             d eps       ncg     rms          rms(c)
DAV:   1    -0.191620035079E+03   -0.12945E-01   -0.50287E-01  8160   0.151E+00    0.180E-01
DAV:   2    -0.191621959888E+03   -0.19248E-02   -0.15273E-02 13000   0.568E-01    0.369E-01
DAV:   3    -0.191620521208E+03    0.14387E-02   -0.43648E-03 11480   0.481E-01    0.157E-01
DAV:   4    -0.191620590963E+03   -0.69755E-04   -0.15111E-03  9680   0.255E-01    0.193E-01
DAV:   5    -0.191620293270E+03    0.29769E-03   -0.10136E-03  9840   0.229E-01    0.106E-01
DAV:   6    -0.191620196702E+03    0.96568E-04   -0.35979E-04  8360   0.121E-01
  60 F= -.19162020E+03 E0= -.19152248E+03  d E =-.131150E-01
       N       E                     dE             d eps       ncg     rms          rms(c)
DAV:   1    -0.191677371979E+03   -0.57079E-01   -0.12132E+01  8160   0.743E+00    0.853E-01
DAV:   2    -0.191718204510E+03   -0.40833E-01   -0.36221E-01 13000   0.259E+00    0.166E+00
DAV:   3    -0.191693289303E+03    0.24915E-01   -0.99808E-02 12200   0.224E+00    0.805E-01
DAV:   4    -0.191694054414E+03   -0.76511E-03   -0.35032E-02 12200   0.125E+00    0.974E-01
DAV:   5    -0.191686080191E+03    0.79742E-02   -0.24287E-02 12440   0.112E+00    0.477E-01
DAV:   6    -0.191684208626E+03    0.18716E-02   -0.86464E-03 11000   0.553E-01    0.278E-01
DAV:   7    -0.191685157726E+03   -0.94910E-03   -0.65077E-03 12120   0.566E-01    0.435E-01
DAV:   8    -0.191683240022E+03    0.19177E-02   -0.35653E-03 11800   0.420E-01    0.715E-02
DAV:   9    -0.191683173457E+03    0.66564E-04   -0.22528E-04  7120   0.684E-02
  61 F= -.19168317E+03 E0= -.19158483E+03  d E =-.629768E-01
       N       E                     dE             d eps       ncg     rms          rms(c)
DAV:   1    -0.191713046121E+03   -0.29806E-01   -0.37703E+00  8160   0.413E+00    0.413E-01
DAV:   2    -0.191721829814E+03   -0.87837E-02   -0.99316E-02 12480   0.104E+00    0.611E-01
DAV:   3    -0.191720913593E+03    0.91622E-03   -0.21704E-02 12080   0.100E+00    0.587E-01
DAV:   4    -0.191718277791E+03    0.26358E-02   -0.84602E-03 12600   0.630E-01    0.296E-01
DAV:   5    -0.191717543001E+03    0.73479E-03   -0.33685E-03 11280   0.423E-01    0.232E-01
DAV:   6    -0.191717410297E+03    0.13270E-03   -0.24110E-03 11600   0.347E-01    0.191E-01
DAV:   7    -0.191717452621E+03   -0.42324E-04   -0.17718E-03 10120   0.299E-01    0.207E-01
DAV:   8    -0.191716992714E+03    0.45991E-03   -0.84977E-04  8440   0.210E-01    0.338E-02
DAV:   9    -0.191716987689E+03    0.50251E-05   -0.59655E-05  6080   0.373E-02
  62 F= -.19171699E+03 E0= -.19161841E+03  d E =-.338142E-01
       N       E                     dE             d eps       ncg     rms          rms(c)
DAV:   1    -0.191711912804E+03    0.50799E-02   -0.11470E-01  8160   0.714E-01    0.685E-02
DAV:   2    -0.191712120898E+03   -0.20809E-03   -0.26770E-03 12160   0.165E-01    0.919E-02
DAV:   3    -0.191712110247E+03    0.10651E-04   -0.59213E-04 11200   0.164E-01
  63 F= -.19171211E+03 E0= -.19161337E+03  d E =0.487744E-02
       N       E                     dE             d eps       ncg     rms          rms(c)
DAV:   1    -0.191722941912E+03   -0.10821E-01   -0.44312E-01  8160   0.144E+00    0.191E-01
DAV:   2    -0.191724174524E+03   -0.12326E-02   -0.16639E-02 12720   0.485E-01    0.325E-01
DAV:   3    -0.191723678788E+03    0.49574E-03   -0.47358E-03 11480   0.473E-01    0.252E-01
DAV:   4    -0.191723161603E+03    0.51718E-03   -0.17809E-03  9640   0.287E-01    0.140E-01
DAV:   5    -0.191723063090E+03    0.98513E-04   -0.90604E-04  9880   0.228E-01
  64 F= -.19172306E+03 E0= -.19162403E+03  d E =-.109528E-01
       N       E                     dE             d eps       ncg     rms          rms(c)
DAV:   1    -0.191709633208E+03    0.13528E-01   -0.11584E+00  8160   0.235E+00    0.324E-01
DAV:   2    -0.191715590808E+03   -0.59576E-02   -0.45227E-02 12600   0.936E-01    0.757E-01
DAV:   3    -0.191710829808E+03    0.47610E-02   -0.16968E-02 11600   0.896E-01    0.368E-01
DAV:   4    -0.191709664059E+03    0.11657E-02   -0.39891E-03 11000   0.378E-01    0.162E-01
DAV:   5    -0.191709352141E+03    0.31192E-03   -0.15161E-03 10760   0.229E-01    0.146E-01
DAV:   6    -0.191709338829E+03    0.13312E-04   -0.12121E-03 10200   0.256E-01    0.150E-01
DAV:   7    -0.191709148744E+03    0.19009E-03   -0.56002E-04  8520   0.162E-01    0.642E-02
DAV:   8    -0.191709122126E+03    0.26619E-04   -0.16722E-04  7760   0.960E-02
  65 F= -.19170912E+03 E0= -.19161069E+03  d E =0.139410E-01
       N       E                     dE             d eps       ncg     rms          rms(c)
DAV:   1    -0.191704677183E+03    0.44716E-02   -0.14712E+00  8160   0.258E+00    0.310E-01
DAV:   2    -0.191712970395E+03   -0.82932E-02   -0.47166E-02 13480   0.994E-01    0.862E-01
DAV:   3    -0.191706537999E+03    0.64324E-02   -0.19985E-02 12120   0.959E-01    0.311E-01
DAV:   4    -0.191705967227E+03    0.57077E-03   -0.33319E-03 11000   0.349E-01    0.217E-01
DAV:   5    -0.191705724484E+03    0.24274E-03   -0.21395E-03 10040   0.337E-01    0.195E-01
DAV:   6    -0.191705502936E+03    0.22155E-03   -0.13120E-03 10000   0.242E-01    0.136E-01
DAV:   7    -0.191705458885E+03    0.44052E-04   -0.80897E-04  9360   0.212E-01
  66 F= -.19170546E+03 E0= -.19160719E+03  d E =0.366324E-02
       N       E                     dE             d eps       ncg     rms          rms(c)
DAV:   1    -0.191696715181E+03    0.87878E-02   -0.10565E+00  8160   0.220E+00    0.245E-01
DAV:   2    -0.191700533920E+03   -0.38187E-02   -0.29712E-02 12360   0.695E-01    0.549E-01
DAV:   3    -0.191698323874E+03    0.22100E-02   -0.10394E-02 12160   0.678E-01    0.293E-01
DAV:   4    -0.191697657367E+03    0.66651E-03   -0.21926E-03 10880   0.279E-01    0.130E-01
DAV:   5    -0.191697554157E+03    0.10321E-03   -0.95989E-04 10360   0.205E-01    0.136E-01
DAV:   6    -0.191697482111E+03    0.72045E-04   -0.78326E-04  8680   0.206E-01
  67 F= -.19169748E+03 E0= -.19159950E+03  d E =0.797677E-02
       N       E                     dE             d eps       ncg     rms          rms(c)
DAV:   1    -0.191683189401E+03    0.14365E-01   -0.12641E+00  8160   0.255E+00    0.508E-01
DAV:   2    -0.191691148977E+03   -0.79596E-02   -0.73727E-02 11880   0.132E+00    0.111E+00
DAV:   3    -0.191681122838E+03    0.10026E-01   -0.37075E-02 12240   0.137E+00    0.506E-01
DAV:   4    -0.191678283312E+03    0.28395E-02   -0.81834E-03 10680   0.543E-01    0.229E-01
DAV:   5    -0.191677912787E+03    0.37052E-03   -0.41134E-03 11320   0.397E-01    0.259E-01
DAV:   6    -0.191677452091E+03    0.46070E-03   -0.27870E-03 11320   0.377E-01    0.188E-01
DAV:   7    -0.191677196240E+03    0.25585E-03   -0.99804E-04  8520   0.210E-01    0.999E-02
DAV:   8    -0.191677119042E+03    0.77198E-04   -0.34060E-04  8920   0.132E-01
  68 F= -.19167712E+03 E0= -.19157966E+03  d E =0.203631E-01
       N       E                     dE             d eps       ncg     rms          rms(c)
DAV:   1    -0.191736411747E+03   -0.59216E-01   -0.72121E+00  8160   0.596E+00    0.950E-01
DAV:   2    -0.191757969410E+03   -0.21558E-01   -0.32629E-01 12480   0.221E+00    0.161E+00
DAV:   3    -0.191743937370E+03    0.14032E-01   -0.10869E-01 12240   0.237E+00    0.115E+00
DAV:   4    -0.191731029240E+03    0.12908E-01   -0.38606E-02 12240   0.129E+00    0.567E-01
DAV:   5    -0.191728433678E+03    0.25956E-02   -0.16897E-02 11800   0.931E-01    0.510E-01
DAV:   6    -0.191726620062E+03    0.18136E-02   -0.11660E-02 12160   0.787E-01    0.353E-01
DAV:   7    -0.191725921322E+03    0.69874E-03   -0.50050E-03 11440   0.469E-01    0.295E-01
DAV:   8    -0.191725127686E+03    0.79364E-03   -0.22320E-03  9720   0.319E-01    0.927E-02
DAV:   9    -0.191725003087E+03    0.12460E-03   -0.24629E-04  6960   0.824E-02    0.280E-02
DAV:  10    -0.191724998653E+03    0.44341E-05   -0.10099E-04  7240   0.331E-02
  69 F= -.19172500E+03 E0= -.19162658E+03  d E =-.478796E-01
       N       E                     dE             d eps       ncg     rms          rms(c)
DAV:   1    -0.191759914467E+03   -0.34911E-01   -0.55334E+00  8160   0.513E+00    0.675E-01
DAV:   2    -0.191773393885E+03   -0.13479E-01   -0.20978E-01 12400   0.148E+00    0.924E-01
DAV:   3    -0.191773737021E+03   -0.34314E-03   -0.53093E-02 12280   0.162E+00    0.101E+00
DAV:   4    -0.191763580588E+03    0.10156E-01   -0.21610E-02 12360   0.100E+00    0.335E-01
DAV:   5    -0.191762572922E+03    0.10077E-02   -0.74670E-03 11040   0.484E-01    0.337E-01
DAV:   6    -0.191763018110E+03   -0.44519E-03   -0.79440E-03 11680   0.599E-01    0.395E-01
DAV:   7    -0.191761462938E+03    0.15552E-02   -0.32368E-03 11920   0.392E-01    0.132E-01
DAV:   8    -0.191761323619E+03    0.13932E-03   -0.65275E-04  8880   0.196E-01    0.754E-02
DAV:   9    -0.191761243042E+03    0.80577E-04   -0.16005E-04  8200   0.864E-02
  70 F= -.19176124E+03 E0= -.19166285E+03  d E =-.362444E-01
       N       E                     dE             d eps       ncg     rms          rms(c)
DAV:   1    -0.191776243497E+03   -0.14920E-01   -0.13966E+00  8160   0.253E+00    0.275E-01
DAV:   2    -0.191781260987E+03   -0.50175E-02   -0.49219E-02 12080   0.731E-01    0.458E-01
DAV:   3    -0.191780018860E+03    0.12421E-02   -0.10321E-02 12280   0.707E-01    0.363E-01
DAV:   4    -0.191779130678E+03    0.88818E-03   -0.34320E-03 11960   0.396E-01    0.220E-01
DAV:   5    -0.191778649449E+03    0.48123E-03   -0.13570E-03 10120   0.280E-01    0.121E-01
DAV:   6    -0.191778719087E+03   -0.69639E-04   -0.84207E-04 10520   0.195E-01
  71 F= -.19177872E+03 E0= -.19168074E+03  d E =-.174760E-01
       N       E                     dE             d eps       ncg     rms          rms(c)
DAV:   1    -0.191778011581E+03    0.63787E-03   -0.87314E-03 11080   0.283E-01    0.132E-01
DAV:   2    -0.191782434175E+03   -0.44226E-02   -0.89242E-03 10880   0.705E-01    0.648E-01
DAV:   3    -0.191777841084E+03    0.45931E-02   -0.57913E-03 10120   0.589E-01    0.629E-02
DAV:   4    -0.191777841058E+03    0.25741E-07   -0.13387E-04  6120   0.840E-02
  72 F= -.19177784E+03 E0= -.19167973E+03  d E =0.878030E-03
       N       E                     dE             d eps       ncg     rms          rms(c)
DAV:   1    -0.191789443259E+03   -0.11602E-01   -0.87811E-01  8160   0.199E+00    0.197E-01
DAV:   2    -0.191791618748E+03   -0.21755E-02   -0.23773E-02 12520   0.489E-01    0.285E-01
DAV:   3    -0.191791347922E+03    0.27083E-03   -0.47892E-03 12200   0.478E-01    0.277E-01
DAV:   4    -0.191790793698E+03    0.55422E-03   -0.19325E-03  9880   0.298E-01    0.153E-01
DAV:   5    -0.191790588690E+03    0.20501E-03   -0.72914E-04  9440   0.202E-01    0.966E-02
DAV:   6    -0.191790594556E+03   -0.58667E-05   -0.45140E-04  9160   0.153E-01
  73 F= -.19179059E+03 E0= -.19169271E+03  d E =-.127535E-01
       N       E                     dE             d eps       ncg     rms          rms(c)
DAV:   1    -0.191785101908E+03    0.54868E-02   -0.28524E-01  8160   0.114E+00    0.139E-01
DAV:   2    -0.191787376545E+03   -0.22746E-02   -0.98637E-03 12920   0.511E-01    0.442E-01
DAV:   3    -0.191785385286E+03    0.19913E-02   -0.40096E-03 11440   0.467E-01    0.118E-01
DAV:   4    -0.191785289900E+03    0.95386E-04   -0.47097E-04  8880   0.116E-01
  74 F= -.19178529E+03 E0= -.19168730E+03  d E =0.530466E-02
       N       E                     dE             d eps       ncg     rms          rms(c)
DAV:   1    -0.191786364869E+03   -0.97958E-03   -0.26463E-01  8160   0.111E+00    0.169E-01
DAV:   2    -0.191790689647E+03   -0.43248E-02   -0.14324E-02 13320   0.659E-01    0.656E-01
DAV:   3    -0.191786531663E+03    0.41580E-02   -0.78759E-03 11480   0.618E-01    0.104E-01
DAV:   4    -0.191786614525E+03   -0.82862E-04   -0.55866E-04  8760   0.154E-01
  75 F= -.19178661E+03 E0= -.19168890E+03  d E =-.132462E-02
       N       E                     dE             d eps       ncg     rms          rms(c)
DAV:   1    -0.191797908410E+03   -0.11377E-01   -0.10425E+00  8160   0.218E+00    0.211E-01
DAV:   2    -0.191800642788E+03   -0.27344E-02   -0.27731E-02 12520   0.545E-01    0.357E-01
DAV:   3    -0.191800003677E+03    0.63911E-03   -0.61474E-03 11960   0.531E-01    0.290E-01
DAV:   4    -0.191799351297E+03    0.65238E-03   -0.19251E-03  9560   0.288E-01    0.142E-01
DAV:   5    -0.191799166623E+03    0.18467E-03   -0.74723E-04  9600   0.205E-01    0.971E-02
DAV:   6    -0.191799192752E+03   -0.26129E-04   -0.53384E-04  9480   0.163E-01
  76 F= -.19179919E+03 E0= -.19170131E+03  d E =-.125782E-01
       N       E                     dE             d eps       ncg     rms          rms(c)
DAV:   1    -0.191803033152E+03   -0.38665E-02   -0.82260E-02  8160   0.630E-01    0.119E-01
DAV:   2    -0.191805692457E+03   -0.26593E-02   -0.71946E-03 11520   0.555E-01    0.488E-01
DAV:   3    -0.191803071117E+03    0.26213E-02   -0.38332E-03 10280   0.472E-01    0.712E-02
DAV:   4    -0.191803109781E+03   -0.38664E-04   -0.28960E-04  8520   0.130E-01
  77 F= -.19180311E+03 E0= -.19170534E+03  d E =-.391703E-02
       N       E                     dE             d eps       ncg     rms          rms(c)
DAV:   1    -0.191808221977E+03   -0.51509E-02   -0.16410E-01  8160   0.868E-01    0.112E-01
DAV:   2    -0.191809543070E+03   -0.13211E-02   -0.76904E-03 12520   0.405E-01    0.318E-01
DAV:   3    -0.191808583705E+03    0.95936E-03   -0.23953E-03 10760   0.339E-01    0.961E-02
DAV:   4    -0.191808604023E+03   -0.20318E-04   -0.38312E-04  8240   0.146E-01
  78 F= -.19180860E+03 E0= -.19171105E+03  d E =-.549424E-02
       N       E                     dE             d eps       ncg     rms          rms(c)
DAV:   1    -0.191815838575E+03   -0.72549E-02   -0.33579E-01  8160   0.124E+00    0.142E-01
DAV:   2    -0.191817173199E+03   -0.13346E-02   -0.85201E-03 12720   0.413E-01    0.324E-01
DAV:   3    -0.191816182175E+03    0.99102E-03   -0.26823E-03 12240   0.389E-01    0.134E-01
DAV:   4    -0.191816085305E+03    0.96870E-04   -0.58604E-04  8600   0.147E-01
  79 F= -.19181609E+03 E0= -.19171865E+03  d E =-.748128E-02
       N       E                     dE             d eps       ncg     rms          rms(c)
DAV:   1    -0.191816918385E+03   -0.73621E-03   -0.64254E-02  8160   0.557E-01    0.132E-01
DAV:   2    -0.191819546295E+03   -0.26279E-02   -0.71884E-03 12080   0.572E-01    0.524E-01
DAV:   3    -0.191816808250E+03    0.27380E-02   -0.44400E-03 11160   0.496E-01    0.923E-02
DAV:   4    -0.191816862903E+03   -0.54653E-04   -0.56177E-04  8640   0.169E-01
  80 F= -.19181686E+03 E0= -.19171980E+03  d E =-.777598E-03
       N       E                     dE             d eps       ncg     rms          rms(c)
DAV:   1    -0.191797903518E+03    0.18905E-01   -0.25700E+00  8160   0.341E+00    0.328E-01
DAV:   2    -0.191802632184E+03   -0.47287E-02   -0.53387E-02 12000   0.777E-01    0.472E-01
DAV:   3    -0.191801885512E+03    0.74667E-03   -0.11626E-02 11800   0.792E-01    0.440E-01
DAV:   4    -0.191800314656E+03    0.15709E-02   -0.44451E-03 12320   0.470E-01    0.213E-01
DAV:   5    -0.191799908812E+03    0.40584E-03   -0.19970E-03 10640   0.315E-01    0.157E-01
DAV:   6    -0.191799841389E+03    0.67423E-04   -0.13369E-03 11440   0.265E-01    0.117E-01
DAV:   7    -0.191799669160E+03    0.17223E-03   -0.47467E-04  8880   0.140E-01    0.520E-02
DAV:   8    -0.191799661698E+03    0.74617E-05   -0.12683E-04  6400   0.789E-02
  81 F= -.19179966E+03 E0= -.19170298E+03  d E =0.172012E-01
       N       E                     dE             d eps       ncg     rms          rms(c)
DAV:   1    -0.191799032604E+03    0.63656E-03   -0.94272E-01  8160   0.207E+00    0.218E-01
DAV:   2    -0.191801118361E+03   -0.20858E-02   -0.21809E-02 12520   0.559E-01    0.367E-01
DAV:   3    -0.191800391347E+03    0.72701E-03   -0.53723E-03 12360   0.542E-01    0.278E-01
DAV:   4    -0.191799879962E+03    0.51138E-03   -0.21194E-03  9800   0.307E-01    0.157E-01
DAV:   5    -0.191799757214E+03    0.12275E-03   -0.13274E-03  9720   0.261E-01    0.136E-01
DAV:   6    -0.191799631417E+03    0.12580E-03   -0.69683E-04  9280   0.175E-01    0.853E-02
DAV:   7    -0.191799655621E+03   -0.24203E-04   -0.38229E-04  9120   0.153E-01
  82 F= -.19179966E+03 E0= -.19170431E+03  d E =0.607756E-05
       N       E                     dE             d eps       ncg     rms          rms(c)
DAV:   1    -0.191809965424E+03   -0.10334E-01   -0.88008E-01  8160   0.201E+00    0.256E-01
DAV:   2    -0.191817321011E+03   -0.73556E-02   -0.36062E-02 12680   0.962E-01    0.763E-01
DAV:   3    -0.191811260927E+03    0.60601E-02   -0.14027E-02 12040   0.827E-01    0.221E-01
DAV:   4    -0.191811384870E+03   -0.12394E-03   -0.23757E-03  9680   0.351E-01    0.242E-01
DAV:   5    -0.191810748286E+03    0.63658E-03   -0.12208E-03  9960   0.280E-01    0.946E-02
DAV:   6    -0.191810816834E+03   -0.68548E-04   -0.57545E-04  9360   0.171E-01
  83 F= -.19181082E+03 E0= -.19171612E+03  d E =-.111612E-01
       N       E                     dE             d eps       ncg     rms          rms(c)
DAV:   1    -0.191818814153E+03   -0.80659E-02   -0.57460E-01  8160   0.164E+00    0.219E-01
DAV:   2    -0.191823816709E+03   -0.50026E-02   -0.26018E-02 12400   0.794E-01    0.621E-01
DAV:   3    -0.191819761402E+03    0.40553E-02   -0.10036E-02 12240   0.693E-01    0.192E-01
DAV:   4    -0.191819968529E+03   -0.20713E-03   -0.17408E-03  9720   0.321E-01    0.223E-01
DAV:   5    -0.191819386360E+03    0.58217E-03   -0.93554E-04  9840   0.242E-01    0.567E-02
DAV:   6    -0.191819544396E+03   -0.15804E-03   -0.39398E-04  9000   0.139E-01    0.124E-01
DAV:   7    -0.191819397763E+03    0.14663E-03   -0.33054E-04  8640   0.148E-01    0.465E-02
DAV:   8    -0.191819373288E+03    0.24476E-04   -0.51453E-05  6000   0.455E-02
  84 F= -.19181937E+03 E0= -.19172554E+03  d E =-.855645E-02
       N       E                     dE             d eps       ncg     rms          rms(c)
DAV:   1    -0.191836011744E+03   -0.16614E-01   -0.32136E+00  8160   0.385E+00    0.473E-01
DAV:   2    -0.191855944768E+03   -0.19933E-01   -0.12780E-01 12320   0.152E+00    0.119E+00
DAV:   3    -0.191842303870E+03    0.13641E-01   -0.43443E-02 12440   0.140E+00    0.466E-01
DAV:   4    -0.191842302526E+03    0.13437E-05   -0.83612E-03 10160   0.671E-01    0.455E-01
DAV:   5    -0.191839803498E+03    0.24990E-02   -0.44768E-03 11800   0.541E-01    0.143E-01
DAV:   6    -0.191839944594E+03   -0.14110E-03   -0.14754E-03 11760   0.211E-01    0.145E-01
DAV:   7    -0.191839844094E+03    0.10050E-03   -0.10738E-03 10800   0.242E-01    0.158E-01
DAV:   8    -0.191839585595E+03    0.25850E-03   -0.41056E-04  8840   0.163E-01    0.288E-02
DAV:   9    -0.191839580922E+03    0.46726E-05   -0.42325E-05  6240   0.310E-02
  85 F= -.19183958E+03 E0= -.19174767E+03  d E =-.202076E-01
       N       E                     dE             d eps       ncg     rms          rms(c)
DAV:   1    -0.191857137295E+03   -0.17552E-01   -0.56733E+00  8160   0.510E+00    0.633E-01
DAV:   2    -0.191895894992E+03   -0.38758E-01   -0.23076E-01 11880   0.217E+00    0.166E+00
DAV:   3    -0.191867317504E+03    0.28577E-01   -0.81982E-02 12400   0.191E+00    0.580E-01
DAV:   4    -0.191868125839E+03   -0.80834E-03   -0.14680E-02 10760   0.930E-01    0.634E-01
DAV:   5    -0.191863373830E+03    0.47520E-02   -0.81741E-03 11280   0.726E-01    0.179E-01
DAV:   6    -0.191863580296E+03   -0.20647E-03   -0.23479E-03 11320   0.238E-01    0.160E-01
DAV:   7    -0.191863127277E+03    0.45302E-03   -0.11220E-03 11480   0.194E-01    0.108E-01
DAV:   8    -0.191863032611E+03    0.94666E-04   -0.27678E-04  9120   0.133E-01
  86 F= -.19186303E+03 E0= -.19177316E+03  d E =-.234517E-01
       N       E                     dE             d eps       ncg     rms          rms(c)
DAV:   1    -0.191873234797E+03   -0.10108E-01   -0.34760E+00  8160   0.399E+00    0.483E-01
DAV:   2    -0.191893623439E+03   -0.20389E-01   -0.14097E-01 11440   0.154E+00    0.115E+00
DAV:   3    -0.191880610088E+03    0.13013E-01   -0.45831E-02 12520   0.141E+00    0.472E-01
DAV:   4    -0.191880848971E+03   -0.23888E-03   -0.87330E-03 10440   0.711E-01    0.483E-01
DAV:   5    -0.191878085280E+03    0.27637E-02   -0.47118E-03 11480   0.560E-01    0.138E-01
DAV:   6    -0.191878198097E+03   -0.11282E-03   -0.13774E-03 11280   0.175E-01    0.118E-01
DAV:   7    -0.191877959394E+03    0.23870E-03   -0.67016E-04 11360   0.150E-01    0.838E-02
DAV:   8    -0.191877901353E+03    0.58041E-04   -0.17145E-04  7840   0.109E-01
  87 F= -.19187790E+03 E0= -.19178912E+03  d E =-.148687E-01
       N       E                     dE             d eps       ncg     rms          rms(c)
DAV:   1    -0.191881518406E+03   -0.35590E-02   -0.30584E-01  8160   0.118E+00    0.158E-01
DAV:   2    -0.191883467269E+03   -0.19489E-02   -0.15454E-02 11360   0.574E-01    0.345E-01
DAV:   3    -0.191882178092E+03    0.12892E-02   -0.43308E-03 12400   0.446E-01    0.133E-01
DAV:   4    -0.191882287959E+03   -0.10987E-03   -0.10340E-03  9720   0.234E-01    0.172E-01
DAV:   5    -0.191881999644E+03    0.28831E-03   -0.58998E-04  8800   0.194E-01    0.623E-02
DAV:   6    -0.191881991458E+03    0.81859E-05   -0.15046E-04  6320   0.779E-02
  88 F= -.19188199E+03 E0= -.19179362E+03  d E =-.409010E-02
       N       E                     dE             d eps       ncg     rms          rms(c)
DAV:   1    -0.191884339899E+03   -0.23403E-02   -0.11587E-01  8160   0.739E-01    0.105E-01
DAV:   2    -0.191885487944E+03   -0.11480E-02   -0.57032E-03 12440   0.375E-01    0.297E-01
DAV:   3    -0.191884521804E+03    0.96614E-03   -0.19068E-03 11160   0.337E-01    0.768E-02
DAV:   4    -0.191884582615E+03   -0.60811E-04   -0.28873E-04  8480   0.131E-01
  89 F= -.19188458E+03 E0= -.19179614E+03  d E =-.259116E-02
       N       E                     dE             d eps       ncg     rms          rms(c)
DAV:   1    -0.191885571268E+03   -0.10495E-02   -0.23607E-02  8160   0.345E-01    0.646E-02
DAV:   2    -0.191886047798E+03   -0.47653E-03   -0.16336E-03 12200   0.232E-01    0.215E-01
DAV:   3    -0.191885564772E+03    0.48303E-03   -0.85283E-04  8880   0.215E-01    0.428E-02
DAV:   4    -0.191885590418E+03   -0.25646E-04   -0.89677E-05  5960   0.716E-02
  90 F= -.19188559E+03 E0= -.19179737E+03  d E =-.100780E-02
       N       E                     dE             d eps       ncg     rms          rms(c)
DAV:   1    -0.191888876941E+03   -0.33122E-02   -0.23060E-01  8160   0.103E+00    0.132E-01
DAV:   2    -0.191889957353E+03   -0.10804E-02   -0.87290E-03 12160   0.386E-01    0.273E-01
DAV:   3    -0.191889254877E+03    0.70248E-03   -0.28968E-03 11640   0.359E-01    0.137E-01
DAV:   4    -0.191889238966E+03    0.15911E-04   -0.68393E-04  9120   0.193E-01
  91 F= -.19188924E+03 E0= -.19180102E+03  d E =-.364855E-02
       N       E                     dE             d eps       ncg     rms          rms(c)
DAV:   1    -0.191884825077E+03    0.44298E-02   -0.29102E-01  8160   0.117E+00    0.141E-01
DAV:   2    -0.191886855329E+03   -0.20303E-02   -0.11615E-02 13080   0.528E-01    0.354E-01
DAV:   3    -0.191885231379E+03    0.16240E-02   -0.36035E-03 11520   0.456E-01    0.763E-02
DAV:   4    -0.191885336599E+03   -0.10522E-03   -0.44602E-04  8600   0.150E-01    0.130E-01
DAV:   5    -0.191885165179E+03    0.17142E-03   -0.35504E-04  8440   0.138E-01    0.360E-02
DAV:   6    -0.191885186898E+03   -0.21719E-04   -0.80031E-05  6240   0.608E-02
  92 F= -.19188519E+03 E0= -.19179695E+03  d E =0.405207E-02
       N       E                     dE             d eps       ncg     rms          rms(c)
DAV:   1    -0.191878710175E+03    0.64550E-02   -0.89705E-01  8160   0.205E+00    0.251E-01
DAV:   2    -0.191881074798E+03   -0.23646E-02   -0.27857E-02 12080   0.615E-01    0.353E-01
DAV:   3    -0.191879992217E+03    0.10826E-02   -0.65536E-03 12400   0.595E-01    0.217E-01
DAV:   4    -0.191879386774E+03    0.60544E-03   -0.13284E-03 11040   0.256E-01    0.951E-02
DAV:   5    -0.191879533245E+03   -0.14647E-03   -0.82241E-04 10560   0.193E-01    0.163E-01
DAV:   6    -0.191879387674E+03    0.14557E-03   -0.85063E-04  9040   0.222E-01    0.104E-01
DAV:   7    -0.191879256146E+03    0.13153E-03   -0.25499E-04  7280   0.104E-01    0.301E-02
DAV:   8    -0.191879258505E+03   -0.23594E-05   -0.46356E-05  6760   0.500E-02
  93 F= -.19187926E+03 E0= -.19179061E+03  d E =0.592839E-02
       N       E                     dE             d eps       ncg     rms          rms(c)
DAV:   1    -0.191879004720E+03    0.25143E-03   -0.29685E-03  8280   0.122E-01    0.169E-02
DAV:   2    -0.191879011219E+03   -0.64987E-05   -0.80320E-05  7360   0.384E-02
  94 F= -.19187901E+03 E0= -.19179034E+03  d E =0.247286E-03
       N       E                     dE             d eps       ncg     rms          rms(c)
DAV:   1    -0.191878604294E+03    0.40043E-03   -0.12495E-02  8240   0.261E-01    0.452E-02
DAV:   2    -0.191878681185E+03   -0.76891E-04   -0.78830E-04 11000   0.116E-01
  95 F= -.19187868E+03 E0= -.19179035E+03  d E =0.330034E-03
       N       E                     dE             d eps       ncg     rms          rms(c)
DAV:   1    -0.191881810538E+03   -0.32062E-02   -0.31383E-01  8160   0.121E+00    0.165E-01
DAV:   2    -0.191882691118E+03   -0.88058E-03   -0.13669E-02 11640   0.369E-01    0.213E-01
DAV:   3    -0.191882830995E+03   -0.13988E-03   -0.29254E-03 12240   0.409E-01    0.267E-01
DAV:   4    -0.191882143112E+03    0.68788E-03   -0.13923E-03  9800   0.264E-01    0.913E-02
DAV:   5    -0.191882128242E+03    0.14870E-04   -0.58586E-04  8600   0.166E-01
  96 F= -.19188213E+03 E0= -.19179324E+03  d E =-.344706E-02
       N       E                     dE             d eps       ncg     rms          rms(c)
DAV:   1    -0.191883774341E+03   -0.16312E-02   -0.79345E-02  8160   0.613E-01    0.101E-01
DAV:   2    -0.191884794170E+03   -0.10198E-02   -0.45631E-03 11000   0.375E-01    0.291E-01
DAV:   3    -0.191883840180E+03    0.95399E-03   -0.17804E-03 10960   0.323E-01    0.775E-02
DAV:   4    -0.191883866138E+03   -0.25958E-04   -0.28419E-04  8280   0.132E-01
  97 F= -.19188387E+03 E0= -.19179511E+03  d E =-.173790E-02
       N       E                     dE             d eps       ncg     rms          rms(c)
DAV:   1    -0.191886256514E+03   -0.24163E-02   -0.21853E-01  8160   0.100E+00    0.130E-01
DAV:   2    -0.191887478403E+03   -0.12219E-02   -0.84737E-03 12160   0.400E-01    0.304E-01
DAV:   3    -0.191886593379E+03    0.88502E-03   -0.29205E-03 11440   0.365E-01    0.122E-01
DAV:   4    -0.191886618378E+03   -0.24998E-04   -0.56195E-04  8400   0.183E-01
  98 F= -.19188662E+03 E0= -.19179801E+03  d E =-.275224E-02
       N       E                     dE             d eps       ncg     rms          rms(c)
DAV:   1    -0.191886891536E+03   -0.29816E-03   -0.79197E-03  9640   0.249E-01    0.622E-02
DAV:   2    -0.191887332712E+03   -0.44118E-03   -0.10290E-03 11280   0.230E-01    0.209E-01
DAV:   3    -0.191886863831E+03    0.46888E-03   -0.72611E-04  8800   0.213E-01    0.500E-02
DAV:   4    -0.191886868939E+03   -0.51078E-05   -0.12492E-04  6440   0.745E-02
  99 F= -.19188687E+03 E0= -.19179849E+03  d E =-.250561E-03
       N       E                     dE             d eps       ncg     rms          rms(c)
DAV:   1    -0.191888900536E+03   -0.20367E-02   -0.12692E-01  8160   0.768E-01    0.108E-01
DAV:   2    -0.191889676993E+03   -0.77646E-03   -0.56756E-03 11800   0.338E-01    0.231E-01
DAV:   3    -0.191889056553E+03    0.62044E-03   -0.20552E-03 11120   0.306E-01    0.932E-02
DAV:   4    -0.191889097429E+03   -0.40876E-04   -0.48109E-04  8360   0.156E-01
 100 F= -.19188910E+03 E0= -.19180061E+03  d E =-.222849E-02
