<?xml version="1.0" encoding="ISO-8859-1"?>
<modeling>
 <generator>
  <i name="program" type="string">vasp </i>
  <i name="version" type="string">5.4.1  </i>
  <i name="subversion" type="string">05Feb16 (build Jul 05 2020 17:13:04) complex                          parallel </i>
  <i name="platform" type="string">IFC91_ompi </i>
  <i name="date" type="string">2024 04 22 </i>
  <i name="time" type="string">12:41:52 </i>
 </generator>
 <incar>
  <i type="int" name="ISTART">     0</i>
  <i type="string" name="PREC">normal</i>
  <i type="string" name="ALGO"> Normal</i>
  <i type="int" name="ISPIN">     1</i>
  <i type="int" name="ICHARG">     2</i>
  <i type="int" name="IBRION">     1</i>
  <i type="int" name="NSW">   100</i>
  <i type="int" name="ISIF">     3</i>
  <i type="int" name="ISYM">     0</i>
  <i name="SYMPREC">      0.00000001</i>
  <i name="POTIM">      0.50000000</i>
  <i type="logical" name="LREAL"> F  </i>
  <i type="logical" name="LPLANE"> F  </i>
  <i type="int" name="ISMEAR">     0</i>
  <i type="logical" name="LWAVE"> F  </i>
  <i type="logical" name="LCHARG"> F  </i>
  <v type="int" name="KPOINT_BSE">    -1     0     0     0</v>
 </incar>
 <kpoints>
  <generation param="Gamma">
   <v type="int" name="divisions">       8        8        1 </v>
   <v name="usershift">      0.00000000       0.00000000       0.00000000 </v>
   <v name="genvec1">      0.12500000       0.00000000       0.00000000 </v>
   <v name="genvec2">     -0.00000000       0.12500000       0.00000000 </v>
   <v name="genvec3">      0.00000000       0.00000000       1.00000000 </v>
   <v name="shift">      0.00000000       0.00000000       0.00000000 </v>
  </generation>
  <varray name="kpointlist" >
   <v>       0.00000000       0.00000000       0.00000000 </v>
   <v>       0.12500000       0.00000000       0.00000000 </v>
   <v>       0.25000000       0.00000000       0.00000000 </v>
   <v>       0.37500000       0.00000000       0.00000000 </v>
   <v>       0.50000000       0.00000000       0.00000000 </v>
   <v>       0.00000000       0.12500000       0.00000000 </v>
   <v>       0.12500000       0.12500000       0.00000000 </v>
   <v>       0.25000000       0.12500000       0.00000000 </v>
   <v>       0.37500000       0.12500000       0.00000000 </v>
   <v>       0.50000000       0.12500000       0.00000000 </v>
   <v>      -0.37500000       0.12500000       0.00000000 </v>
   <v>      -0.25000000       0.12500000       0.00000000 </v>
   <v>      -0.12500000       0.12500000       0.00000000 </v>
   <v>       0.00000000       0.25000000       0.00000000 </v>
   <v>       0.12500000       0.25000000       0.00000000 </v>
   <v>       0.25000000       0.25000000       0.00000000 </v>
   <v>       0.37500000       0.25000000       0.00000000 </v>
   <v>       0.50000000       0.25000000       0.00000000 </v>
   <v>      -0.37500000       0.25000000       0.00000000 </v>
   <v>      -0.25000000       0.25000000       0.00000000 </v>
   <v>      -0.12500000       0.25000000       0.00000000 </v>
   <v>      -0.00000000       0.37500000       0.00000000 </v>
   <v>       0.12500000       0.37500000       0.00000000 </v>
   <v>       0.25000000       0.37500000       0.00000000 </v>
   <v>       0.37500000       0.37500000       0.00000000 </v>
   <v>       0.50000000       0.37500000       0.00000000 </v>
   <v>      -0.37500000       0.37500000       0.00000000 </v>
   <v>      -0.25000000       0.37500000       0.00000000 </v>
   <v>      -0.12500000       0.37500000       0.00000000 </v>
   <v>       0.00000000       0.50000000       0.00000000 </v>
   <v>       0.12500000       0.50000000       0.00000000 </v>
   <v>       0.25000000       0.50000000       0.00000000 </v>
   <v>       0.37500000       0.50000000       0.00000000 </v>
   <v>       0.50000000       0.50000000       0.00000000 </v>
  </varray>
  <varray name="weights" >
   <v>       0.01562500 </v>
   <v>       0.03125000 </v>
   <v>       0.03125000 </v>
   <v>       0.03125000 </v>
   <v>       0.01562500 </v>
   <v>       0.03125000 </v>
   <v>       0.03125000 </v>
   <v>       0.03125000 </v>
   <v>       0.03125000 </v>
   <v>       0.03125000 </v>
   <v>       0.03125000 </v>
   <v>       0.03125000 </v>
   <v>       0.03125000 </v>
   <v>       0.03125000 </v>
   <v>       0.03125000 </v>
   <v>       0.03125000 </v>
   <v>       0.03125000 </v>
   <v>       0.03125000 </v>
   <v>       0.03125000 </v>
   <v>       0.03125000 </v>
   <v>       0.03125000 </v>
   <v>       0.03125000 </v>
   <v>       0.03125000 </v>
   <v>       0.03125000 </v>
   <v>       0.03125000 </v>
   <v>       0.03125000 </v>
   <v>       0.03125000 </v>
   <v>       0.03125000 </v>
   <v>       0.03125000 </v>
   <v>       0.01562500 </v>
   <v>       0.03125000 </v>
   <v>       0.03125000 </v>
   <v>       0.03125000 </v>
   <v>       0.01562500 </v>
  </varray>
 </kpoints>
 <parameters>
  <separator name="general" >
   <i type="string" name="SYSTEM">unknown system</i>
   <i type="logical" name="LCOMPAT"> F  </i>
  </separator>
  <separator name="electronic" >
   <i type="string" name="PREC">normal</i>
   <i name="ENMAX">    280.00000000</i>
   <i name="ENAUG">    373.43800000</i>
   <i name="EDIFF">      0.00010000</i>
   <i type="int" name="IALGO">    38</i>
   <i type="int" name="IWAVPR">    11</i>
   <i type="int" name="NBANDS">   120</i>
   <i name="NELECT">    159.00000000</i>
   <i type="int" name="TURBO">     0</i>
   <i type="int" name="IRESTART">     0</i>
   <i type="int" name="NREBOOT">     0</i>
   <i type="int" name="NMIN">     0</i>
   <i name="EREF">      0.00000000</i>
   <separator name="electronic smearing" >
    <i type="int" name="ISMEAR">     0</i>
    <i name="SIGMA">      0.20000000</i>
    <i name="KSPACING">      0.50000000</i>
    <i type="logical" name="KGAMMA"> T  </i>
   </separator>
   <separator name="electronic projectors" >
    <i type="logical" name="LREAL"> F  </i>
    <v name="ROPT">      0.00000000      0.00000000      0.00000000      0.00000000</v>
    <i type="int" name="LMAXPAW">  -100</i>
    <i type="int" name="LMAXMIX">     2</i>
    <i type="logical" name="NLSPLINE"> F  </i>
   </separator>
   <separator name="electronic startup" >
    <i type="int" name="ISTART">     0</i>
    <i type="int" name="ICHARG">     2</i>
    <i type="int" name="INIWAV">     1</i>
   </separator>
   <separator name="electronic spin" >
    <i type="int" name="ISPIN">     1</i>
    <i type="logical" name="LNONCOLLINEAR"> F  </i>
    <v name="MAGMOM">      1.00000000      1.00000000      1.00000000      1.00000000      1.00000000      1.00000000      1.00000000      1.00000000      1.00000000      1.00000000      1.00000000      1.00000000      1.00000000      1.00000000      1.00000000      1.00000000      1.00000000      1.00000000      1.00000000      1.00000000
      1.00000000      1.00000000      1.00000000      1.00000000      1.00000000      1.00000000      1.00000000</v>
    <i name="NUPDOWN">     -1.00000000</i>
    <i type="logical" name="LSORBIT"> F  </i>
    <v name="SAXIS">      0.00000000      0.00000000      1.00000000</v>
    <i type="logical" name="LSPIRAL"> F  </i>
    <v name="QSPIRAL">      0.00000000      0.00000000      0.00000000</v>
    <i type="logical" name="LZEROZ"> F  </i>
   </separator>
   <separator name="electronic exchange-correlation" >
    <i type="logical" name="LASPH"> F  </i>
    <i type="logical" name="LMETAGGA"> F  </i>
   </separator>
   <separator name="electronic convergence" >
    <i type="int" name="NELM">    60</i>
    <i type="int" name="NELMDL">    -5</i>
    <i type="int" name="NELMIN">     2</i>
    <i name="ENINI">    280.00000000</i>
    <separator name="electronic convergence detail" >
     <i type="logical" name="LDIAG"> T  </i>
     <i type="logical" name="LSUBROT"> F  </i>
     <i name="WEIMIN">      0.00100000</i>
     <i name="EBREAK">      0.00000021</i>
     <i name="DEPER">      0.30000000</i>
     <i type="int" name="NRMM">     4</i>
     <i name="TIME">      0.40000000</i>
    </separator>
   </separator>
   <separator name="electronic mixer" >
    <i name="AMIX">      0.40000000</i>
    <i name="BMIX">      1.00000000</i>
    <i name="AMIN">      0.10000000</i>
    <i name="AMIX_MAG">      1.60000000</i>
    <i name="BMIX_MAG">      1.00000000</i>
    <separator name="electronic mixer details" >
     <i type="int" name="IMIX">     4</i>
     <i type="logical" name="MIXFIRST"> F  </i>
     <i type="int" name="MAXMIX">   -45</i>
     <i name="WC">    100.00000000</i>
     <i type="int" name="INIMIX">     1</i>
     <i type="int" name="MIXPRE">     1</i>
     <i type="int" name="MREMOVE">     5</i>
    </separator>
   </separator>
   <separator name="electronic dipolcorrection" >
    <i type="logical" name="LDIPOL"> F  </i>
    <i type="logical" name="LMONO"> F  </i>
    <i type="int" name="IDIPOL">     0</i>
    <i name="EPSILON">      1.00000000</i>
    <v name="DIPOL">   -100.00000000   -100.00000000   -100.00000000</v>
    <i name="EFIELD">      0.00000000</i>
   </separator>
  </separator>
  <separator name="grids" >
   <i type="int" name="NGX">    42</i>
   <i type="int" name="NGY">    42</i>
   <i type="int" name="NGZ">   126</i>
   <i type="int" name="NGXF">    84</i>
   <i type="int" name="NGYF">    84</i>
   <i type="int" name="NGZF">   252</i>
   <i type="logical" name="ADDGRID"> F  </i>
  </separator>
  <separator name="ionic" >
   <i type="int" name="NSW">   100</i>
   <i type="int" name="IBRION">     1</i>
   <i type="int" name="ISIF">     3</i>
   <i name="PSTRESS">      0.00000000</i>
   <i name="EDIFFG">      0.00100000</i>
   <i type="int" name="NFREE">     0</i>
   <i name="POTIM">      0.50000000</i>
   <i name="SMASS">     -3.00000000</i>
   <i name="SCALEE">      1.00000000</i>
  </separator>
  <separator name="ionic md" >
   <i name="TEBEG">      0.00010000</i>
   <i name="TEEND">      0.00010000</i>
   <i type="int" name="NBLOCK">     1</i>
   <i type="int" name="KBLOCK">   100</i>
   <i type="int" name="NPACO">   256</i>
   <i name="APACO">     16.00000000</i>
  </separator>
  <separator name="symmetry" >
   <i type="int" name="ISYM">     0</i>
   <i name="SYMPREC">      0.00000001</i>
  </separator>
  <separator name="dos" >
   <i type="logical" name="LORBIT"> F  </i>
   <v name="RWIGS">     -1.00000000     -1.00000000     -1.00000000     -1.00000000</v>
   <i type="int" name="NEDOS">   301</i>
   <i name="EMIN">     10.00000000</i>
   <i name="EMAX">    -10.00000000</i>
   <i name="EFERMI">      0.00000000</i>
  </separator>
  <separator name="writing" >
   <i type="int" name="NWRITE">     2</i>
   <i type="logical" name="LWAVE"> F  </i>
   <i type="logical" name="LCHARG"> F  </i>
   <i type="logical" name="LPARD"> F  </i>
   <i type="logical" name="LVTOT"> F  </i>
   <i type="logical" name="LVHAR"> F  </i>
   <i type="logical" name="LELF"> F  </i>
   <i type="logical" name="LOPTICS"> F  </i>
   <v name="STM">      0.00000000      0.00000000      0.00000000      0.00000000      0.00000000      0.00000000      0.00000000</v>
  </separator>
  <separator name="performance" >
   <i type="int" name="NPAR">    40</i>
   <i type="int" name="NSIM">     4</i>
   <i type="int" name="NBLK">    -1</i>
   <i type="logical" name="LPLANE"> F  </i>
   <i type="logical" name="LSCALAPACK"> T  </i>
   <i type="logical" name="LSCAAWARE"> F  </i>
   <i type="logical" name="LSCALU"> F  </i>
   <i type="logical" name="LASYNC"> F  </i>
   <i type="logical" name="LORBITALREAL"> F  </i>
  </separator>
  <separator name="miscellaneous" >
   <i type="int" name="IDIOT">     3</i>
   <i type="logical" name="LMUSIC"> F  </i>
   <v name="POMASS">     50.94100000     95.94000000    183.85000000     32.06600000</v>
   <v name="DARWINR">      0.00000000      0.00000000      0.00000000      0.00000000</v>
   <v name="DARWINV">      1.00000000      1.00000000      1.00000000      1.00000000</v>
   <i type="logical" name="LCORR"> T  </i>
  </separator>
  <i type="logical" name="GGA_COMPAT"> T  </i>
  <i type="logical" name="LBERRY"> F  </i>
  <i type="int" name="ICORELEVEL">     0</i>
  <i type="logical" name="LDAU"> F  </i>
  <i type="int" name="I_CONSTRAINED_M">     0</i>
  <separator name="electronic exchange-correlation" >
   <i type="string" name="GGA">--</i>
   <i type="int" name="VOSKOWN">     0</i>
   <i type="logical" name="LHFCALC"> F  </i>
   <i type="string" name="PRECFOCK"></i>
   <i type="logical" name="LSYMGRAD"> F  </i>
   <i type="logical" name="LHFONE"> F  </i>
   <i type="logical" name="LRHFCALC"> F  </i>
   <i type="logical" name="LTHOMAS"> F  </i>
   <i type="logical" name="LMODELHF"> F  </i>
   <i name="ENCUT4O">     -1.00000000</i>
   <i type="int" name="EXXOEP">     0</i>
   <i type="int" name="FOURORBIT">     0</i>
   <i name="AEXX">      0.00000000</i>
   <i name="HFALPHA">      0.00000000</i>
   <i name="MCALPHA">      0.00000000</i>
   <i name="ALDAX">      1.00000000</i>
   <i name="AGGAX">      1.00000000</i>
   <i name="ALDAC">      1.00000000</i>
   <i name="AGGAC">      1.00000000</i>
   <i type="int" name="NKREDX">     1</i>
   <i type="int" name="NKREDY">     1</i>
   <i type="int" name="NKREDZ">     1</i>
   <i type="logical" name="SHIFTRED"> F  </i>
   <i type="logical" name="ODDONLY"> F  </i>
   <i type="logical" name="EVENONLY"> F  </i>
   <i type="int" name="LMAXFOCK">     0</i>
   <i type="int" name="NMAXFOCKAE">     0</i>
   <i type="logical" name="LFOCKAEDFT"> F  </i>
   <i name="HFSCREEN">      0.00000000</i>
   <i name="HFSCREENC">      0.00000000</i>
   <i type="int" name="NBANDSGWLOW">     0</i>
  </separator>
  <separator name="vdW DFT" >
   <i type="logical" name="LUSE_VDW"> F  </i>
   <i name="Zab_VDW">     -0.84910000</i>
   <i name="PARAM1">      0.12340000</i>
   <i name="PARAM2">      1.00000000</i>
   <i name="PARAM3">      0.00000000</i>
  </separator>
  <separator name="model GW" >
   <i type="int" name="MODEL_GW">     0</i>
   <i name="MODEL_EPS0">     58.26239943</i>
   <i name="MODEL_ALPHA">      1.00000000</i>
  </separator>
  <separator name="linear response parameters" >
   <i type="logical" name="LEPSILON"> F  </i>
   <i type="logical" name="LRPA"> F  </i>
   <i type="logical" name="LNABLA"> F  </i>
   <i type="logical" name="LVEL"> F  </i>
   <i type="int" name="KINTER">     0</i>
   <i name="CSHIFT">      0.10000000</i>
   <i name="OMEGAMAX">     -1.00000000</i>
   <i name="DEG_THRESHOLD">      0.00200000</i>
  </separator>
  <separator name="orbital magnetization" >
   <i type="logical" name="NUCIND"> F  </i>
   <v name="MAGPOS">      0.00000000      0.00000000      0.00000000</v>
   <i type="logical" name="LNICSALL"> T  </i>
   <i type="logical" name="ORBITALMAG"> F  </i>
   <i type="logical" name="LMAGBLOCH"> F  </i>
   <i type="logical" name="LCHIMAG"> F  </i>
   <i type="logical" name="LGAUGE"> T  </i>
   <i type="int" name="MAGATOM">     0</i>
   <v name="MAGDIPOL">      0.00000000      0.00000000      0.00000000</v>
   <v name="AVECCONST">      0.00000000      0.00000000      0.00000000</v>
  </separator>
  <separator name="response functions" >
   <i type="logical" name="LADDER"> F  </i>
   <i type="logical" name="LFXC"> F  </i>
   <i type="logical" name="LHARTREE"> T  </i>
   <i type="int" name="IBSE">     0</i>
   <v type="int" name="KPOINT">    -1     0     0     0</v>
   <i type="logical" name="LTCTE"> F  </i>
   <i type="logical" name="LTETE"> F  </i>
   <i type="logical" name="LTRIPLET"> F  </i>
   <i type="logical" name="LFXCEPS"> F  </i>
   <i type="logical" name="LFXHEG"> F  </i>
   <i type="int" name="NATURALO">     0</i>
   <i type="logical" name="L2ORDER"> F  </i>
   <i type="logical" name="LUSEW"> F  </i>
   <i name="ENCUTGW">     -2.00000000</i>
   <i name="ENCUTGWSOFT">     -2.00000000</i>
   <i name="ENCUTLF">     -1.00000000</i>
   <i type="int" name="LMAXMP2">    -1</i>
   <i name="SCISSOR">      0.00000000</i>
   <i type="int" name="NOMEGA">     0</i>
   <i type="int" name="NOMEGAR">     0</i>
   <i type="int" name="NBANDSGW">    -1</i>
   <i type="int" name="NBANDSO">    -1</i>
   <i type="int" name="NBANDSV">    -1</i>
   <i type="int" name="NELM">     1</i>
   <i type="int" name="NELMHF">     1</i>
   <i type="int" name="DIM">     3</i>
   <i type="int" name="ANTIRES">     0</i>
   <i name="OMEGAMAX">    -30.00000000</i>
   <i name="OMEGAMIN">    -30.00000000</i>
   <i name="OMEGATL">   -200.00000000</i>
   <i type="int" name="OMEGAGRID">     0</i>
   <i name="CSHIFT">     -0.10000000</i>
   <i type="logical" name="SELFENERGY"> F  </i>
   <i type="logical" name="LSPECTRAL"> F  </i>
   <i type="logical" name="LSPECTRALGW"> F  </i>
   <i type="logical" name="LSINGLES"> F  </i>
   <i type="logical" name="LFERMIGW"> F  </i>
   <i type="logical" name="ODDONLYGW"> F  </i>
   <i type="logical" name="EVENONLYGW"> F  </i>
   <i type="int" name="NKREDLFX">     1</i>
   <i type="int" name="NKREDLFY">     1</i>
   <i type="int" name="NKREDLFZ">     1</i>
   <i type="int" name="MAXMEM">  1800</i>
   <i type="int" name="TELESCOPE">     0</i>
   <i type="int" name="TAUPAR">     1</i>
   <i type="int" name="OMEGAPAR">    -1</i>
   <i name="LAMBDA">      1.00000000</i>
  </separator>
  <separator name="External order field" >
   <i name="OFIELD_KAPPA">      0.00000000</i>
   <v name="OFIELD_K">      0.00000000      0.00000000      0.00000000</v>
   <i name="OFIELD_Q6_NEAR">      0.00000000</i>
   <i name="OFIELD_Q6_FAR">      0.00000000</i>
   <i name="OFIELD_A">      0.00000000</i>
  </separator>
 </parameters>
 <atominfo>
  <atoms>      27 </atoms>
  <types>       4 </types>
  <array name="atoms" >
   <dimension dim="1">ion</dimension>
   <field type="string">element</field>
   <field type="int">atomtype</field>
   <set>
    <rc><c>V </c><c>   1</c></rc>
    <rc><c>V </c><c>   1</c></rc>
    <rc><c>V </c><c>   1</c></rc>
    <rc><c>Mo</c><c>   2</c></rc>
    <rc><c>Mo</c><c>   2</c></rc>
    <rc><c>Mo</c><c>   2</c></rc>
    <rc><c>W </c><c>   3</c></rc>
    <rc><c>W </c><c>   3</c></rc>
    <rc><c>W </c><c>   3</c></rc>
    <rc><c>S </c><c>   4</c></rc>
    <rc><c>S </c><c>   4</c></rc>
    <rc><c>S </c><c>   4</c></rc>
    <rc><c>S </c><c>   4</c></rc>
    <rc><c>S </c><c>   4</c></rc>
    <rc><c>S </c><c>   4</c></rc>
    <rc><c>S </c><c>   4</c></rc>
    <rc><c>S </c><c>   4</c></rc>
    <rc><c>S </c><c>   4</c></rc>
    <rc><c>S </c><c>   4</c></rc>
    <rc><c>S </c><c>   4</c></rc>
    <rc><c>S </c><c>   4</c></rc>
    <rc><c>S </c><c>   4</c></rc>
    <rc><c>S </c><c>   4</c></rc>
    <rc><c>S </c><c>   4</c></rc>
    <rc><c>S </c><c>   4</c></rc>
    <rc><c>S </c><c>   4</c></rc>
    <rc><c>S </c><c>   4</c></rc>
   </set>
  </array>
  <array name="atomtypes" >
   <dimension dim="1">type</dimension>
   <field type="int">atomspertype</field>
   <field type="string">element</field>
   <field>mass</field>
   <field>valence</field>
   <field type="string">pseudopotential</field>
   <set>
    <rc><c>   3</c><c>V </c><c>     50.94100000</c><c>      5.00000000</c><c> PAW_PBE V 08Apr2002                    </c></rc>
    <rc><c>   3</c><c>Mo</c><c>     95.94000000</c><c>      6.00000000</c><c> PAW_PBE Mo 08Apr2002                   </c></rc>
    <rc><c>   3</c><c>W </c><c>    183.85000000</c><c>      6.00000000</c><c> PAW_PBE W 08Apr2002                    </c></rc>
    <rc><c>  18</c><c>S </c><c>     32.06600000</c><c>      6.00000000</c><c>  PAW_PBE S 17Jan2003                   </c></rc>
   </set>
  </array>
 </atominfo>
 <structure name="initialpos" >
  <crystal>
   <varray name="basis" >
    <v>       8.66999996       5.03999989       0.00000000 </v>
    <v>      -8.66999982       5.04000013       0.00000000 </v>
    <v>       0.00000000       0.00000000      30.00000000 </v>
   </varray>
   <i name="volume">   2621.80797419 </i>
   <varray name="rec_basis" >
    <v>       0.05767013       0.09920635       0.00000000 </v>
    <v>      -0.05767013       0.09920635       0.00000000 </v>
    <v>       0.00000000       0.00000000       0.03333333 </v>
   </varray>
  </crystal>
  <varray name="positions" >
   <v>       0.33333334       0.00000000       0.00000000 </v>
   <v>       0.33333334       0.33333334       0.00000000 </v>
   <v>       0.66666669       0.33333334       0.00000000 </v>
   <v>       0.33333334       0.66666669       0.00000000 </v>
   <v>       0.66666669       0.00000000       0.00000000 </v>
   <v>       0.00000000       0.00000000       0.00000000 </v>
   <v>       1.00000000       0.33333334       0.00000000 </v>
   <v>       0.00000000       0.66666669       0.00000000 </v>
   <v>       0.66666669       0.66666669       0.00000000 </v>
   <v>       0.11068511       0.22244981       0.95539999 </v>
   <v>       0.22244981       0.11068511       0.04460000 </v>
   <v>       0.11068511       0.55578315       0.95539999 </v>
   <v>       0.22244981       0.44401845       0.04460000 </v>
   <v>       0.11068511       0.88911647       0.95539999 </v>
   <v>       0.22244981       0.77735180       0.04460000 </v>
   <v>       0.44401845       0.22244981       0.95539999 </v>
   <v>       0.55578315       0.11068511       0.04460000 </v>
   <v>       0.44401845       0.55578315       0.95539999 </v>
   <v>       0.55578315       0.44401845       0.04460000 </v>
   <v>       0.44401845       0.88911647       0.95539999 </v>
   <v>       0.55578315       0.77735180       0.04460000 </v>
   <v>       0.77735180       0.22244981       0.95539999 </v>
   <v>       0.88911647       0.11068511       0.04460000 </v>
   <v>       0.77735180       0.55578315       0.95539999 </v>
   <v>       0.88911647       0.44401845       0.04460000 </v>
   <v>       0.77735180       0.88911647       0.95539999 </v>
   <v>       0.88911647       0.77735180       0.04460000 </v>
  </varray>
 </structure>
 <calculation>
  <scstep>
   <time name="dav">   21.49   21.55</time>
   <time name="total">   21.53   21.60</time>
   <energy>
    <i name="alphaZ">     81.65567618 </i>
    <i name="ewald">  41891.17179524 </i>
    <i name="hartreedc"> -47723.81647761 </i>
    <i name="XCdc">   -242.92502631 </i>
    <i name="pawpsdc">   3467.42045192 </i>
    <i name="pawaedc">  -2871.19716117 </i>
    <i name="eentropy">     -0.54619667 </i>
    <i name="bandstr">   -238.71563830 </i>
    <i name="atom">   6761.44252427 </i>
    <i name="e_fr_energy">   1124.48994756 </i>
    <i name="e_wo_entrp">   1125.03614423 </i>
    <i name="e_0_energy">   1124.76304590 </i>
   </energy>
  </scstep>
  <scstep>
   <time name="dav">   28.26   28.33</time>
   <time name="total">   28.26   28.34</time>
   <energy>
    <i name="e_fr_energy">     -5.21221472 </i>
    <i name="e_wo_entrp">     -5.00156578 </i>
    <i name="e_0_energy">     -5.10689025 </i>
   </energy>
  </scstep>
  <scstep>
   <time name="dav">   27.27   27.33</time>
   <time name="total">   27.27   27.34</time>
   <energy>
    <i name="e_fr_energy">   -200.10179160 </i>
    <i name="e_wo_entrp">   -199.83176223 </i>
    <i name="e_0_energy">   -199.96677692 </i>
   </energy>
  </scstep>
  <scstep>
   <time name="dav">   30.12   30.20</time>
   <time name="total">   30.12   30.21</time>
   <energy>
    <i name="e_fr_energy">   -209.01199317 </i>
    <i name="e_wo_entrp">   -208.71919047 </i>
    <i name="e_0_energy">   -208.86559182 </i>
   </energy>
  </scstep>
  <scstep>
   <time name="dav">   28.28   28.35</time>
   <time name="total">   28.74   28.82</time>
   <energy>
    <i name="e_fr_energy">   -209.30001581 </i>
    <i name="e_wo_entrp">   -209.01035880 </i>
    <i name="e_0_energy">   -209.15518730 </i>
   </energy>
  </scstep>
  <scstep>
   <time name="dav">   30.42   30.50</time>
   <time name="total">   30.92   31.00</time>
   <energy>
    <i name="e_fr_energy">   -237.72756246 </i>
    <i name="e_wo_entrp">   -237.46679346 </i>
    <i name="e_0_energy">   -237.59717796 </i>
   </energy>
  </scstep>
  <scstep>
   <time name="dav">   32.52   32.60</time>
   <time name="total">   33.02   33.11</time>
   <energy>
    <i name="e_fr_energy">   -196.62520636 </i>
    <i name="e_wo_entrp">   -196.29984429 </i>
    <i name="e_0_energy">   -196.46252533 </i>
   </energy>
  </scstep>
  <scstep>
   <time name="dav">   29.68   29.75</time>
   <time name="total">   30.19   30.27</time>
   <energy>
    <i name="e_fr_energy">   -189.63567864 </i>
    <i name="e_wo_entrp">   -189.32907136 </i>
    <i name="e_0_energy">   -189.48237500 </i>
   </energy>
  </scstep>
  <scstep>
   <time name="dav">   31.68   31.76</time>
   <time name="total">   32.20   32.29</time>
   <energy>
    <i name="e_fr_energy">   -188.21675508 </i>
    <i name="e_wo_entrp">   -187.88726779 </i>
    <i name="e_0_energy">   -188.05201143 </i>
   </energy>
  </scstep>
  <scstep>
   <time name="dav">   32.40   32.48</time>
   <time name="total">   32.93   33.02</time>
   <energy>
    <i name="e_fr_energy">   -186.95212753 </i>
    <i name="e_wo_entrp">   -186.59935190 </i>
    <i name="e_0_energy">   -186.77573972 </i>
   </energy>
  </scstep>
  <scstep>
   <time name="dav">   32.75   32.82</time>
   <time name="total">   33.27   33.36</time>
   <energy>
    <i name="e_fr_energy">   -187.04316541 </i>
    <i name="e_wo_entrp">   -186.70338289 </i>
    <i name="e_0_energy">   -186.87327415 </i>
   </energy>
  </scstep>
  <scstep>
   <time name="dav">   31.07   31.15</time>
   <time name="total">   31.61   31.69</time>
   <energy>
    <i name="e_fr_energy">   -186.98518841 </i>
    <i name="e_wo_entrp">   -186.64690590 </i>
    <i name="e_0_energy">   -186.81604715 </i>
   </energy>
  </scstep>
  <scstep>
   <time name="dav">   32.29   32.37</time>
   <time name="total">   32.83   32.91</time>
   <energy>
    <i name="e_fr_energy">   -186.87758745 </i>
    <i name="e_wo_entrp">   -186.54158663 </i>
    <i name="e_0_energy">   -186.70958704 </i>
   </energy>
  </scstep>
  <scstep>
   <time name="dav">   31.55   31.63</time>
   <time name="total">   32.08   32.17</time>
   <energy>
    <i name="e_fr_energy">   -186.84368073 </i>
    <i name="e_wo_entrp">   -186.49851524 </i>
    <i name="e_0_energy">   -186.67109798 </i>
   </energy>
  </scstep>
  <scstep>
   <time name="dav">   31.32   31.40</time>
   <time name="total">   31.86   31.94</time>
   <energy>
    <i name="e_fr_energy">   -186.83967502 </i>
    <i name="e_wo_entrp">   -186.49458006 </i>
    <i name="e_0_energy">   -186.66712754 </i>
   </energy>
  </scstep>
  <scstep>
   <time name="dav">   32.37   32.45</time>
   <time name="total">   32.90   32.98</time>
   <energy>
    <i name="e_fr_energy">   -186.83935215 </i>
    <i name="e_wo_entrp">   -186.49483992 </i>
    <i name="e_0_energy">   -186.66709603 </i>
   </energy>
  </scstep>
  <scstep>
   <time name="dav">   30.48   30.56</time>
   <time name="total">   31.01   31.10</time>
   <energy>
    <i name="e_fr_energy">   -186.83639339 </i>
    <i name="e_wo_entrp">   -186.49324480 </i>
    <i name="e_0_energy">   -186.66481909 </i>
   </energy>
  </scstep>
  <scstep>
   <time name="dav">   29.71   29.79</time>
   <time name="total">   30.25   30.33</time>
   <energy>
    <i name="e_fr_energy">   -186.83612496 </i>
    <i name="e_wo_entrp">   -186.49246277 </i>
    <i name="e_0_energy">   -186.66429386 </i>
   </energy>
  </scstep>
  <scstep>
   <time name="dav">   24.58   24.64</time>
   <time name="total">   24.62   24.68</time>
   <energy>
    <i name="alphaZ">     81.65567618 </i>
    <i name="ewald">  41891.17179524 </i>
    <i name="hartreedc"> -47818.64596977 </i>
    <i name="XCdc">   -231.69449398 </i>
    <i name="pawpsdc">   4194.27771515 </i>
    <i name="pawaedc">  -3612.29650272 </i>
    <i name="eentropy">     -0.34369543 </i>
    <i name="bandstr">  -1452.40319258 </i>
    <i name="atom">   6761.44252427 </i>
    <i name="e_fr_energy">   -186.83614364 </i>
    <i name="e_wo_entrp">   -186.49244821 </i>
    <i name="e_0_energy">   -186.66429592 </i>
   </energy>
  </scstep>
  <structure>
   <crystal>
    <varray name="basis" >
     <v>       8.66999996       5.03999989       0.00000000 </v>
     <v>      -8.66999982       5.04000013       0.00000000 </v>
     <v>       0.00000000       0.00000000      30.00000000 </v>
    </varray>
    <i name="volume">   2621.80797419 </i>
    <varray name="rec_basis" >
     <v>       0.05767013       0.09920635       0.00000000 </v>
     <v>      -0.05767013       0.09920635       0.00000000 </v>
     <v>       0.00000000       0.00000000       0.03333333 </v>
    </varray>
   </crystal>
   <varray name="positions" >
    <v>       0.33333334       0.00000000       0.00000000 </v>
    <v>       0.33333334       0.33333334       0.00000000 </v>
    <v>       0.66666669       0.33333334       0.00000000 </v>
    <v>       0.33333334       0.66666669       0.00000000 </v>
    <v>       0.66666669       0.00000000       0.00000000 </v>
    <v>       0.00000000       0.00000000       0.00000000 </v>
    <v>       1.00000000       0.33333334       0.00000000 </v>
    <v>       0.00000000       0.66666669       0.00000000 </v>
    <v>       0.66666669       0.66666669       0.00000000 </v>
    <v>       0.11068511       0.22244981       0.95539999 </v>
    <v>       0.22244981       0.11068511       0.04460000 </v>
    <v>       0.11068511       0.55578315       0.95539999 </v>
    <v>       0.22244981       0.44401845       0.04460000 </v>
    <v>       0.11068511       0.88911647       0.95539999 </v>
    <v>       0.22244981       0.77735180       0.04460000 </v>
    <v>       0.44401845       0.22244981       0.95539999 </v>
    <v>       0.55578315       0.11068511       0.04460000 </v>
    <v>       0.44401845       0.55578315       0.95539999 </v>
    <v>       0.55578315       0.44401845       0.04460000 </v>
    <v>       0.44401845       0.88911647       0.95539999 </v>
    <v>       0.55578315       0.77735180       0.04460000 </v>
    <v>       0.77735180       0.22244981       0.95539999 </v>
    <v>       0.88911647       0.11068511       0.04460000 </v>
    <v>       0.77735180       0.55578315       0.95539999 </v>
    <v>       0.88911647       0.44401845       0.04460000 </v>
    <v>       0.77735180       0.88911647       0.95539999 </v>
    <v>       0.88911647       0.77735180       0.04460000 </v>
   </varray>
  </structure>
  <varray name="forces" >
   <v>       0.12236647       0.03059122       0.00770536 </v>
   <v>      -0.03185256      -0.12514883       0.00597344 </v>
   <v>       0.13571008      -0.25374994      -0.01204400 </v>
   <v>      -0.01099730       0.29401290       0.05738482 </v>
   <v>       0.20332040      -0.15489114      -0.09124845 </v>
   <v>      -0.21672985      -0.11594449      -0.03452152 </v>
   <v>       0.30367481      -0.17055806       0.10771076 </v>
   <v>      -0.00913738       0.35772352       0.09610334 </v>
   <v>      -0.53051682       0.19278317      -0.10608568 </v>
   <v>       0.38065211       0.68965482      -2.18230870 </v>
   <v>       0.32504754       0.67491359       1.38992667 </v>
   <v>       0.06129038      -0.13441507      -2.84259515 </v>
   <v>       0.63784915      -0.15500278       2.11563595 </v>
   <v>       0.60012950       0.54598558      -2.16072390 </v>
   <v>      -0.60724891       0.52410174       2.18838241 </v>
   <v>       0.06816533       0.00042826      -0.77648759 </v>
   <v>      -0.90936328      -0.00794874       1.44257272 </v>
   <v>       0.64205419      -0.53554096      -2.13593023 </v>
   <v>       0.24740142      -0.53577988       1.37875297 </v>
   <v>      -0.74353137       0.02375373      -2.10797991 </v>
   <v>       0.02683128      -0.02774689       2.92893582 </v>
   <v>      -0.65786792       0.12681222      -2.09835239 </v>
   <v>      -0.23453818       0.17883335       2.87284948 </v>
   <v>       0.45398284      -0.57330616      -2.12350737 </v>
   <v>      -0.45439863      -0.54915980       2.16701968 </v>
   <v>       0.20869934      -0.16047385      -2.96686116 </v>
   <v>      -0.01099265      -0.13992750       2.87969262 </v>
  </varray>
  <varray name="stress" >
   <v>       7.53685378      -0.04579661      -1.62544126 </v>
   <v>      -0.04579676       4.43776447      -0.01696624 </v>
   <v>      -1.62544126      -0.01696622      31.14214902 </v>
  </varray>
  <energy>
   <i name="e_fr_energy">   -186.83614364 </i>
   <i name="e_wo_entrp">   -186.66429592 </i>
   <i name="e_0_energy">     -0.34369543 </i>
  </energy>
  <time name="totalsc">  617.06  618.71</time>
 </calculation>
 <calculation>
  <scstep>
   <time name="dav">   21.42   21.47</time>
   <time name="total">   21.97   22.02</time>
   <energy>
    <i name="alphaZ">     78.87165517 </i>
    <i name="ewald">  39352.41185698 </i>
    <i name="hartreedc"> -45299.98861604 </i>
    <i name="XCdc">   -239.17439428 </i>
    <i name="pawpsdc">   4193.05499912 </i>
    <i name="pawaedc">  -3611.05500429 </i>
    <i name="eentropy">     -0.28133173 </i>
    <i name="bandstr">  -1422.77483239 </i>
    <i name="atom">   6761.44252427 </i>
    <i name="e_fr_energy">   -187.49314319 </i>
    <i name="e_wo_entrp">   -187.21181146 </i>
    <i name="e_0_energy">   -187.35247733 </i>
   </energy>
  </scstep>
  <scstep>
   <time name="dav">   29.36   29.43</time>
   <time name="total">   29.89   29.97</time>
   <energy>
    <i name="e_fr_energy">   -189.51509449 </i>
    <i name="e_wo_entrp">   -189.17931962 </i>
    <i name="e_0_energy">   -189.34720705 </i>
   </energy>
  </scstep>
  <scstep>
   <time name="dav">   29.78   29.85</time>
   <time name="total">   30.33   30.41</time>
   <energy>
    <i name="e_fr_energy">   -189.33080293 </i>
    <i name="e_wo_entrp">   -189.06956029 </i>
    <i name="e_0_energy">   -189.20018161 </i>
   </energy>
  </scstep>
  <scstep>
   <time name="dav">   27.87   27.93</time>
   <time name="total">   28.41   28.49</time>
   <energy>
    <i name="e_fr_energy">   -188.76610402 </i>
    <i name="e_wo_entrp">   -188.48340456 </i>
    <i name="e_0_energy">   -188.62475429 </i>
   </energy>
  </scstep>
  <scstep>
   <time name="dav">   29.65   29.72</time>
   <time name="total">   30.19   30.27</time>
   <energy>
    <i name="e_fr_energy">   -188.85053637 </i>
    <i name="e_wo_entrp">   -188.56264186 </i>
    <i name="e_0_energy">   -188.70658911 </i>
   </energy>
  </scstep>
  <scstep>
   <time name="dav">   29.72   29.79</time>
   <time name="total">   30.26   30.34</time>
   <energy>
    <i name="e_fr_energy">   -188.72136838 </i>
    <i name="e_wo_entrp">   -188.43765028 </i>
    <i name="e_0_energy">   -188.57950933 </i>
   </energy>
  </scstep>
  <scstep>
   <time name="dav">   29.25   29.32</time>
   <time name="total">   29.80   29.88</time>
   <energy>
    <i name="e_fr_energy">   -188.68946597 </i>
    <i name="e_wo_entrp">   -188.40623345 </i>
    <i name="e_0_energy">   -188.54784971 </i>
   </energy>
  </scstep>
  <scstep>
   <time name="dav">   29.06   29.13</time>
   <time name="total">   29.61   29.69</time>
   <energy>
    <i name="e_fr_energy">   -188.67401487 </i>
    <i name="e_wo_entrp">   -188.38954764 </i>
    <i name="e_0_energy">   -188.53178126 </i>
   </energy>
  </scstep>
  <scstep>
   <time name="dav">   29.46   29.53</time>
   <time name="total">   30.01   30.41</time>
   <energy>
    <i name="e_fr_energy">   -188.64855883 </i>
    <i name="e_wo_entrp">   -188.36667583 </i>
    <i name="e_0_energy">   -188.50761733 </i>
   </energy>
  </scstep>
  <scstep>
   <time name="dav">   26.32   26.38</time>
   <time name="total">   26.86   26.93</time>
   <energy>
    <i name="e_fr_energy">   -188.64542480 </i>
    <i name="e_wo_entrp">   -188.36418753 </i>
    <i name="e_0_energy">   -188.50480617 </i>
   </energy>
  </scstep>
  <scstep>
   <time name="dav">   31.39   31.46</time>
   <time name="total">   31.93   32.02</time>
   <energy>
    <i name="e_fr_energy">   -188.64511613 </i>
    <i name="e_wo_entrp">   -188.36518618 </i>
    <i name="e_0_energy">   -188.50515116 </i>
   </energy>
  </scstep>
  <scstep>
   <time name="dav">   26.85   26.92</time>
   <time name="total">   27.40   27.47</time>
   <energy>
    <i name="e_fr_energy">   -188.64523233 </i>
    <i name="e_wo_entrp">   -188.36518684 </i>
    <i name="e_0_energy">   -188.50520959 </i>
   </energy>
  </scstep>
  <scstep>
   <time name="dav">   18.89   18.94</time>
   <time name="total">   18.93   18.98</time>
   <energy>
    <i name="alphaZ">     78.87165517 </i>
    <i name="ewald">  39352.41185698 </i>
    <i name="hartreedc"> -45317.39071895 </i>
    <i name="XCdc">   -238.02980485 </i>
    <i name="pawpsdc">   3949.55481835 </i>
    <i name="pawaedc">  -3364.04566866 </i>
    <i name="eentropy">     -0.28029013 </i>
    <i name="bandstr">  -1411.17965808 </i>
    <i name="atom">   6761.44252427 </i>
    <i name="e_fr_energy">   -188.64528590 </i>
    <i name="e_wo_entrp">   -188.36499577 </i>
    <i name="e_0_energy">   -188.50514083 </i>
   </energy>
  </scstep>
  <structure>
   <crystal>
    <varray name="basis" >
     <v>       8.86038382       5.10423515       0.00000000 </v>
     <v>      -8.86173343       5.10655728       0.00000000 </v>
     <v>       0.00000000       0.00000000      30.00000000 </v>
    </varray>
    <i name="volume">   2714.35286205 </i>
    <varray name="rec_basis" >
     <v>       0.05643950       0.09794305       0.00000000 </v>
     <v>      -0.05641384       0.09792814       0.00000000 </v>
     <v>       0.00000000       0.00000000       0.03333333 </v>
    </varray>
   </crystal>
   <varray name="positions" >
    <v>       0.33382020      -0.00019403       0.00001239 </v>
    <v>       0.33264576       0.33282300       0.00000961 </v>
    <v>       0.66582981       0.33174133      -0.00001937 </v>
    <v>       0.33470989       0.66810442       0.00009228 </v>
    <v>       0.66649105      -0.00130698      -0.00014674 </v>
    <v>      -0.00115788       0.00004807      -0.00005551 </v>
    <v>       1.00002858       0.33167218       0.00017321 </v>
    <v>       0.00168664       0.66840416       0.00015454 </v>
    <v>       0.66611336       0.66906533      -0.00017060 </v>
    <v>       0.11504482       0.22469145       0.95189064 </v>
    <v>       0.22658426       0.11301090       0.04683512 </v>
    <v>       0.11021232       0.55496933       0.95082885 </v>
    <v>       0.22348257       0.44150202       0.04800213 </v>
    <v>       0.11496784       0.89005988       0.95192535 </v>
    <v>       0.22326868       0.78154960       0.04811911 </v>
    <v>       0.44421015       0.22226221       0.95415133 </v>
    <v>       0.55321512       0.11317706       0.04691978 </v>
    <v>       0.44324166       0.55143377       0.95196523 </v>
    <v>       0.55390723       0.44076591       0.04681716 </v>
    <v>       0.44206351       0.89129877       0.95201017 </v>
    <v>       0.55572501       0.77714435       0.04930999 </v>
    <v>       0.77612842       0.22488702       0.95202565 </v>
    <v>       0.88931984       0.11219353       0.04921979 </v>
    <v>       0.77587102       0.55177627       0.95198520 </v>
    <v>       0.88522399       0.44265440       0.04808476 </v>
    <v>       0.77716441       0.88776781       0.95062901 </v>
    <v>       0.88841619       0.77671269       0.04923080 </v>
   </varray>
  </structure>
  <varray name="forces" >
   <v>       0.13236429      -0.06866952       0.01671525 </v>
   <v>      -0.09616537      -0.12608812       0.09442641 </v>
   <v>       0.14275517      -0.12871893       0.01207908 </v>
   <v>      -0.01707069       0.26909770      -0.06224260 </v>
   <v>       0.52576000      -0.16676905      -0.04138755 </v>
   <v>      -0.34653584      -0.34325673       0.05326174 </v>
   <v>       0.23263387      -0.13583095       0.02992839 </v>
   <v>       0.05465969       0.28786847      -0.06800263 </v>
   <v>      -0.58368885       0.39165875      -0.04413016 </v>
   <v>      -0.09801685       0.04383598      -0.03220531 </v>
   <v>       0.00781728       0.05099019      -0.16269959 </v>
   <v>      -0.07293166      -0.10798906       0.15719031 </v>
   <v>      -0.01897093      -0.10450996      -0.00869446 </v>
   <v>       0.07057419      -0.04210318       0.04434737 </v>
   <v>      -0.08106237      -0.03337285       0.09182575 </v>
   <v>       0.01861751      -0.01386236       0.14020445 </v>
   <v>      -0.04057106      -0.01268385      -0.10523911 </v>
   <v>       0.08369262       0.05998031       0.03668129 </v>
   <v>      -0.06493182       0.06420823      -0.25224398 </v>
   <v>      -0.06499975       0.01333153      -0.08076948 </v>
   <v>       0.13091221      -0.00286202       0.21019273 </v>
   <v>       0.03390067       0.09223120       0.03262939 </v>
   <v>      -0.06420377       0.10192542       0.13576850 </v>
   <v>      -0.06980559       0.07126525       0.26277681 </v>
   <v>       0.06761180       0.07072591      -0.13466294 </v>
   <v>       0.04464298      -0.11291992      -0.30702844 </v>
   <v>       0.07301227      -0.11748244      -0.01872123 </v>
  </varray>
  <varray name="stress" >
   <v>     -20.05652588      -0.00014065       0.05920603 </v>
   <v>      -0.00014055     -19.58044535       0.01390581 </v>
   <v>       0.05920600       0.01390591      -1.72341728 </v>
  </varray>
  <energy>
   <i name="e_fr_energy">   -188.64528590 </i>
   <i name="e_wo_entrp">   -188.50514083 </i>
   <i name="e_0_energy">     -0.28029013 </i>
  </energy>
  <time name="totalsc">  406.88  408.28</time>
 </calculation>
 <calculation>
  <scstep>
   <time name="dav">   23.57   23.63</time>
   <time name="total">   24.10   24.16</time>
   <energy>
    <i name="alphaZ">     82.32738111 </i>
    <i name="ewald">  41294.53062231 </i>
    <i name="hartreedc"> -47290.57655530 </i>
    <i name="XCdc">   -233.86137811 </i>
    <i name="pawpsdc">   3948.78674709 </i>
    <i name="pawaedc">  -3363.27026795 </i>
    <i name="eentropy">     -0.23464806 </i>
    <i name="bandstr">  -1389.74406408 </i>
    <i name="atom">   6761.44252427 </i>
    <i name="e_fr_energy">   -190.59963871 </i>
    <i name="e_wo_entrp">   -190.36499065 </i>
    <i name="e_0_energy">   -190.48231468 </i>
   </energy>
  </scstep>
  <scstep>
   <time name="dav">   29.76   29.83</time>
   <time name="total">   30.28   30.36</time>
   <energy>
    <i name="e_fr_energy">   -190.53224371 </i>
    <i name="e_wo_entrp">   -190.30879104 </i>
    <i name="e_0_energy">   -190.42051738 </i>
   </energy>
  </scstep>
  <scstep>
   <time name="dav">   29.89   29.96</time>
   <time name="total">   30.41   30.49</time>
   <energy>
    <i name="e_fr_energy">   -190.07686105 </i>
    <i name="e_wo_entrp">   -189.82527836 </i>
    <i name="e_0_energy">   -189.95106971 </i>
   </energy>
  </scstep>
  <scstep>
   <time name="dav">   31.72   31.80</time>
   <time name="total">   32.26   32.34</time>
   <energy>
    <i name="e_fr_energy">   -189.85927557 </i>
    <i name="e_wo_entrp">   -189.63214778 </i>
    <i name="e_0_energy">   -189.74571168 </i>
   </energy>
  </scstep>
  <scstep>
   <time name="dav">   29.87   29.95</time>
   <time name="total">   30.40   30.48</time>
   <energy>
    <i name="e_fr_energy">   -189.81319825 </i>
    <i name="e_wo_entrp">   -189.57118457 </i>
    <i name="e_0_energy">   -189.69219141 </i>
   </energy>
  </scstep>
  <scstep>
   <time name="dav">   29.93   30.00</time>
   <time name="total">   30.45   30.53</time>
   <energy>
    <i name="e_fr_energy">   -189.75766547 </i>
    <i name="e_wo_entrp">   -189.52355901 </i>
    <i name="e_0_energy">   -189.64061224 </i>
   </energy>
  </scstep>
  <scstep>
   <time name="dav">   28.95   29.02</time>
   <time name="total">   29.48   29.55</time>
   <energy>
    <i name="e_fr_energy">   -189.75216896 </i>
    <i name="e_wo_entrp">   -189.51598187 </i>
    <i name="e_0_energy">   -189.63407542 </i>
   </energy>
  </scstep>
  <scstep>
   <time name="dav">   28.77   28.84</time>
   <time name="total">   29.30   29.38</time>
   <energy>
    <i name="e_fr_energy">   -189.75291399 </i>
    <i name="e_wo_entrp">   -189.51756111 </i>
    <i name="e_0_energy">   -189.63523755 </i>
   </energy>
  </scstep>
  <scstep>
   <time name="dav">   26.25   26.32</time>
   <time name="total">   26.78   26.85</time>
   <energy>
    <i name="e_fr_energy">   -189.75191556 </i>
    <i name="e_wo_entrp">   -189.51598578 </i>
    <i name="e_0_energy">   -189.63395067 </i>
   </energy>
  </scstep>
  <scstep>
   <time name="dav">   26.02   26.08</time>
   <time name="total">   26.55   26.62</time>
   <energy>
    <i name="e_fr_energy">   -189.75228217 </i>
    <i name="e_wo_entrp">   -189.51661538 </i>
    <i name="e_0_energy">   -189.63444877 </i>
   </energy>
  </scstep>
  <scstep>
   <time name="dav">   26.25   26.31</time>
   <time name="total">   26.78   26.85</time>
   <energy>
    <i name="e_fr_energy">   -189.75199218 </i>
    <i name="e_wo_entrp">   -189.51601129 </i>
    <i name="e_0_energy">   -189.63400173 </i>
   </energy>
  </scstep>
  <scstep>
   <time name="dav">   18.23   18.27</time>
   <time name="total">   18.26   18.31</time>
   <energy>
    <i name="alphaZ">     82.32738111 </i>
    <i name="ewald">  41294.53062231 </i>
    <i name="hartreedc"> -47265.74127205 </i>
    <i name="XCdc">   -235.25727774 </i>
    <i name="pawpsdc">   4038.74420577 </i>
    <i name="pawaedc">  -3454.44313085 </i>
    <i name="eentropy">     -0.23596397 </i>
    <i name="bandstr">  -1411.11914156 </i>
    <i name="atom">   6761.44252427 </i>
    <i name="e_fr_energy">   -189.75205272 </i>
    <i name="e_wo_entrp">   -189.51608875 </i>
    <i name="e_0_energy">   -189.63407074 </i>
   </energy>
  </scstep>
  <structure>
   <crystal>
    <varray name="basis" >
     <v>       8.67017322       4.99725988       0.00000000 </v>
     <v>      -8.67149539       4.99953601       0.00000000 </v>
     <v>       0.00000000       0.00000000      30.00000000 </v>
    </varray>
    <i name="volume">   2600.41677559 </i>
    <varray name="rec_basis" >
     <v>       0.05767771       0.10003968       0.00000000 </v>
     <v>      -0.05765145       0.10002443       0.00000000 </v>
     <v>       0.00000000       0.00000000       0.03333333 </v>
    </varray>
   </crystal>
   <varray name="positions" >
    <v>       0.33383290      -0.00043612       0.00002190 </v>
    <v>       0.33234252       0.33270492       0.00006330 </v>
    <v>       0.66575220       0.33138894      -0.00001250 </v>
    <v>       0.33514304       0.66857037       0.00005689 </v>
    <v>       0.66671860      -0.00209151      -0.00017027 </v>
    <v>      -0.00206500      -0.00019186      -0.00002523 </v>
    <v>       1.00002562       0.33122141       0.00019023 </v>
    <v>       0.00222021       0.66883244       0.00011588 </v>
    <v>       0.66620577       0.67028128      -0.00019569 </v>
    <v>       0.11502369       0.22485900       0.95187233 </v>
    <v>       0.22667698       0.11308855       0.04674261 </v>
    <v>       0.10996169       0.55485912       0.95091822 </v>
    <v>       0.22328970       0.44134569       0.04799718 </v>
    <v>       0.11496544       0.88992164       0.95195057 </v>
    <v>       0.22313488       0.78157186       0.04817132 </v>
    <v>       0.44420491       0.22222114       0.95423105 </v>
    <v>       0.55315486       0.11319492       0.04685994 </v>
    <v>       0.44342245       0.55145342       0.95198608 </v>
    <v>       0.55395199       0.44093566       0.04667373 </v>
    <v>       0.44202321       0.89138359       0.95196425 </v>
    <v>       0.55584626       0.77701359       0.04942950 </v>
    <v>       0.77631515       0.22500847       0.95204421 </v>
    <v>       0.88942831       0.11242557       0.04929699 </v>
    <v>       0.77592288       0.55196249       0.95213462 </v>
    <v>       0.88540725       0.44270748       0.04800819 </v>
    <v>       0.77701873       0.88753622       0.95045444 </v>
    <v>       0.88829020       0.77644618       0.04922015 </v>
   </varray>
  </structure>
  <varray name="forces" >
   <v>       0.15881048      -0.13890439       0.02012236 </v>
   <v>      -0.15473286      -0.12329659       0.09670881 </v>
   <v>       0.16534939      -0.06005427       0.01976302 </v>
   <v>      -0.02614952       0.25001508      -0.06567679 </v>
   <v>       0.63057198      -0.15508752      -0.01725465 </v>
   <v>      -0.39743960      -0.42039733       0.05181603 </v>
   <v>       0.19745629      -0.12297097      -0.00195934 </v>
   <v>       0.08082864       0.25641935      -0.08871722 </v>
   <v>      -0.59202986       0.45527429      -0.01276705 </v>
   <v>       0.03089016       0.10264041      -0.54257320 </v>
   <v>       0.04514489       0.10341344       0.27714029 </v>
   <v>      -0.02288449      -0.05318770      -0.38558900 </v>
   <v>       0.09127849      -0.02256977       0.49370380 </v>
   <v>       0.05079818       0.10808559      -0.45672328 </v>
   <v>      -0.07443989       0.11697087       0.61846841 </v>
   <v>       0.01561038      -0.01761130      -0.28271668 </v>
   <v>      -0.09430472      -0.01525563       0.33757022 </v>
   <v>       0.08701913      -0.07586187      -0.46993629 </v>
   <v>       0.00116702      -0.04308830       0.18480010 </v>
   <v>      -0.14527959       0.02821593      -0.58132729 </v>
   <v>       0.04167421       0.00047865       0.78673116 </v>
   <v>      -0.06870357       0.01726030      -0.46157320 </v>
   <v>      -0.03405477       0.01582886       0.70656086 </v>
   <v>      -0.00931326      -0.05320879      -0.22096122 </v>
   <v>      -0.00886985      -0.05181127       0.37306396 </v>
   <v>       0.00107587      -0.03308502      -0.91782082 </v>
   <v>       0.03052686      -0.06821205       0.53914700 </v>
  </varray>
  <varray name="stress" >
   <v>     -10.23279236       0.00014467       0.05701449 </v>
   <v>       0.00014463      -9.83574834       0.01019577 </v>
   <v>       0.05701448       0.01019572       6.51052848 </v>
  </varray>
  <energy>
   <i name="e_fr_energy">   -189.75205272 </i>
   <i name="e_wo_entrp">   -189.63407074 </i>
   <i name="e_0_energy">     -0.23596397 </i>
  </energy>
  <time name="totalsc">  376.29  377.29</time>
 </calculation>
 <calculation>
  <scstep>
   <time name="dav">   21.43   21.48</time>
   <time name="total">   21.95   22.00</time>
   <energy>
    <i name="alphaZ">     85.81962148 </i>
    <i name="ewald">  42832.86140976 </i>
    <i name="hartreedc"> -48848.83670171 </i>
    <i name="XCdc">   -232.95911994 </i>
    <i name="pawpsdc">   4038.64690279 </i>
    <i name="pawaedc">  -3454.34085136 </i>
    <i name="eentropy">     -0.19702648 </i>
    <i name="bandstr">  -1373.77592089 </i>
    <i name="atom">   6761.44252427 </i>
    <i name="e_fr_energy">   -191.33916208 </i>
    <i name="e_wo_entrp">   -191.14213560 </i>
    <i name="e_0_energy">   -191.24064884 </i>
   </energy>
  </scstep>
  <scstep>
   <time name="dav">   31.50   31.57</time>
   <time name="total">   32.01   32.09</time>
   <energy>
    <i name="e_fr_energy">   -191.16090179 </i>
    <i name="e_wo_entrp">   -190.96619611 </i>
    <i name="e_0_energy">   -191.06354895 </i>
   </energy>
  </scstep>
  <scstep>
   <time name="dav">   29.72   29.79</time>
   <time name="total">   30.23   30.31</time>
   <energy>
    <i name="e_fr_energy">   -191.31780309 </i>
    <i name="e_wo_entrp">   -191.09981569 </i>
    <i name="e_0_energy">   -191.20880939 </i>
   </energy>
  </scstep>
  <scstep>
   <time name="dav">   29.70   29.77</time>
   <time name="total">   30.21   30.30</time>
   <energy>
    <i name="e_fr_energy">   -190.94558660 </i>
    <i name="e_wo_entrp">   -190.73529781 </i>
    <i name="e_0_energy">   -190.84044220 </i>
   </energy>
  </scstep>
  <scstep>
   <time name="dav">   27.69   27.76</time>
   <time name="total">   28.21   28.28</time>
   <energy>
    <i name="e_fr_energy">   -190.92653168 </i>
    <i name="e_wo_entrp">   -190.73842241 </i>
    <i name="e_0_energy">   -190.83247705 </i>
   </energy>
  </scstep>
  <scstep>
   <time name="dav">   28.47   28.54</time>
   <time name="total">   28.99   29.07</time>
   <energy>
    <i name="e_fr_energy">   -190.75535244 </i>
    <i name="e_wo_entrp">   -190.55351013 </i>
    <i name="e_0_energy">   -190.65443129 </i>
   </energy>
  </scstep>
  <scstep>
   <time name="dav">   30.60   30.67</time>
   <time name="total">   31.11   31.19</time>
   <energy>
    <i name="e_fr_energy">   -190.75342057 </i>
    <i name="e_wo_entrp">   -190.55108855 </i>
    <i name="e_0_energy">   -190.65225456 </i>
   </energy>
  </scstep>
  <scstep>
   <time name="dav">   29.34   29.41</time>
   <time name="total">   29.86   29.94</time>
   <energy>
    <i name="e_fr_energy">   -190.75218049 </i>
    <i name="e_wo_entrp">   -190.54981356 </i>
    <i name="e_0_energy">   -190.65099703 </i>
   </energy>
  </scstep>
  <scstep>
   <time name="dav">   27.63   27.70</time>
   <time name="total">   28.15   28.22</time>
   <energy>
    <i name="e_fr_energy">   -190.74724909 </i>
    <i name="e_wo_entrp">   -190.54518508 </i>
    <i name="e_0_energy">   -190.64621708 </i>
   </energy>
  </scstep>
  <scstep>
   <time name="dav">   26.69   26.75</time>
   <time name="total">   27.21   27.28</time>
   <energy>
    <i name="e_fr_energy">   -190.74760477 </i>
    <i name="e_wo_entrp">   -190.54551718 </i>
    <i name="e_0_energy">   -190.64656097 </i>
   </energy>
  </scstep>
  <scstep>
   <time name="dav">   26.78   26.84</time>
   <time name="total">   27.29   27.37</time>
   <energy>
    <i name="e_fr_energy">   -190.74739840 </i>
    <i name="e_wo_entrp">   -190.54520717 </i>
    <i name="e_0_energy">   -190.64630279 </i>
   </energy>
  </scstep>
  <scstep>
   <time name="dav">   18.48   18.53</time>
   <time name="total">   18.52   18.57</time>
   <energy>
    <i name="alphaZ">     85.81962148 </i>
    <i name="ewald">  42832.86140976 </i>
    <i name="hartreedc"> -48820.58428140 </i>
    <i name="XCdc">   -234.29473440 </i>
    <i name="pawpsdc">   4063.71747511 </i>
    <i name="pawaedc">  -3479.59761714 </i>
    <i name="eentropy">     -0.20230848 </i>
    <i name="bandstr">  -1399.90951092 </i>
    <i name="atom">   6761.44252427 </i>
    <i name="e_fr_energy">   -190.74742170 </i>
    <i name="e_wo_entrp">   -190.54511323 </i>
    <i name="e_0_energy">   -190.64626747 </i>
   </energy>
  </scstep>
  <structure>
   <crystal>
    <varray name="basis" >
     <v>       8.48631934       4.89777762       0.00000000 </v>
     <v>      -8.48760355       4.89999120       0.00000000 </v>
     <v>       0.00000000       0.00000000      30.00000000 </v>
    </varray>
    <i name="volume">   2494.59854568 </i>
    <varray name="rec_basis" >
     <v>       0.05892721       0.10207178       0.00000000 </v>
     <v>      -0.05890059       0.10205633       0.00000000 </v>
     <v>       0.00000000       0.00000000       0.03333333 </v>
    </varray>
   </crystal>
   <varray name="positions" >
    <v>       0.33340004      -0.00209161       0.00006642 </v>
    <v>       0.33093431       0.33258193       0.00026539 </v>
    <v>       0.66617590       0.33055366       0.00003489 </v>
    <v>       0.33655458       0.67019652      -0.00008195 </v>
    <v>       0.66820384      -0.00546076      -0.00018561 </v>
    <v>      -0.00639862      -0.00150855       0.00008080 </v>
    <v>       0.99995020       0.32982024       0.00015926 </v>
    <v>       0.00407805       0.67003139      -0.00008523 </v>
    <v>       0.66706499       0.67544059      -0.00019564 </v>
    <v>       0.11610836       0.22535206       0.95031858 </v>
    <v>       0.22767130       0.11364997       0.04768745 </v>
    <v>       0.10975322       0.55467299       0.94966204 </v>
    <v>       0.22383882       0.44092039       0.04944306 </v>
    <v>       0.11617030       0.89081589       0.95058236 </v>
    <v>       0.22398106       0.78293668       0.04989590 </v>
    <v>       0.44413738       0.22204945       0.95328895 </v>
    <v>       0.55263543       0.11351028       0.04793237 </v>
    <v>       0.44292944       0.55032242       0.95058584 </v>
    <v>       0.55351464       0.44030108       0.04742509 </v>
    <v>       0.44159731       0.89223653       0.95033856 </v>
    <v>       0.55588058       0.77700185       0.05154445 </v>
    <v>       0.77584253       0.22532535       0.95067175 </v>
    <v>       0.88923402       0.11239115       0.05124116 </v>
    <v>       0.77533365       0.55126778       0.95126901 </v>
    <v>       0.88463743       0.44222038       0.04920887 </v>
    <v>       0.77695107       0.88758528       0.94803925 </v>
    <v>       0.88803462       0.77609152       0.05080690 </v>
   </varray>
  </structure>
  <varray name="forces" >
   <v>       0.17774277      -0.16624847       0.02297310 </v>
   <v>      -0.15106859      -0.10672064       0.06575159 </v>
   <v>       0.17409532      -0.03542898       0.03172824 </v>
   <v>      -0.06248491       0.21756327      -0.04517990 </v>
   <v>       0.67603747      -0.10214224       0.02728143 </v>
   <v>      -0.45900645      -0.46989968       0.01366470 </v>
   <v>       0.15373198      -0.13134168      -0.03881471 </v>
   <v>       0.14757803       0.23293874      -0.06962670 </v>
   <v>      -0.56349866       0.45951488       0.01908990 </v>
   <v>       0.05486047      -0.00753361      -0.34833427 </v>
   <v>      -0.02246404      -0.04870606       0.17780161 </v>
   <v>       0.05140386       0.00182127      -0.23561677 </v>
   <v>       0.00588664       0.01674462       0.33106577 </v>
   <v>      -0.04990562       0.09052635      -0.27006952 </v>
   <v>      -0.01649971       0.08735380       0.44738706 </v>
   <v>       0.01071744      -0.03008521      -0.26107348 </v>
   <v>       0.05661764      -0.03190759       0.23524938 </v>
   <v>       0.03057732       0.01451721      -0.29499879 </v>
   <v>      -0.06426903       0.05428269       0.08168628 </v>
   <v>      -0.02463708       0.07217144      -0.40463512 </v>
   <v>      -0.03608131       0.00062804       0.57882960 </v>
   <v>       0.04046229      -0.05667749      -0.29445450 </v>
   <v>      -0.02926479      -0.04658101       0.51535904 </v>
   <v>      -0.07146368      -0.00047282      -0.08567642 </v>
   <v>       0.00999457      -0.00054830       0.25779378 </v>
   <v>      -0.01896999       0.01795410      -0.79315352 </v>
   <v>      -0.02009192      -0.03172264       0.33597223 </v>
  </varray>
  <varray name="stress" >
   <v>      -5.69371065      -0.06377628      -0.13393389 </v>
   <v>      -0.06377635      -5.87024871      -0.10595540 </v>
   <v>      -0.13393380      -0.10595543       4.55052766 </v>
  </varray>
  <energy>
   <i name="e_fr_energy">   -190.74742170 </i>
   <i name="e_wo_entrp">   -190.64626747 </i>
   <i name="e_0_energy">     -0.20230848 </i>
  </energy>
  <time name="totalsc">  375.38  376.38</time>
 </calculation>
 <calculation>
  <scstep>
   <time name="dav">   21.45   21.50</time>
   <time name="total">   21.96   22.02</time>
   <energy>
    <i name="alphaZ">     90.17254184 </i>
    <i name="ewald">  44671.08807773 </i>
    <i name="hartreedc"> -50713.82769896 </i>
    <i name="XCdc">   -231.81592672 </i>
    <i name="pawpsdc">   4063.71479959 </i>
    <i name="pawaedc">  -3479.59103373 </i>
    <i name="eentropy">     -0.18599605 </i>
    <i name="bandstr">  -1353.12119046 </i>
    <i name="atom">   6761.44252427 </i>
    <i name="e_fr_energy">   -192.12390248 </i>
    <i name="e_wo_entrp">   -191.93790644 </i>
    <i name="e_0_energy">   -192.03090446 </i>
   </energy>
  </scstep>
  <scstep>
   <time name="dav">   28.43   28.50</time>
   <time name="total">   28.94   29.01</time>
   <energy>
    <i name="e_fr_energy">   -191.88266441 </i>
    <i name="e_wo_entrp">   -191.68337430 </i>
    <i name="e_0_energy">   -191.78301936 </i>
   </energy>
  </scstep>
  <scstep>
   <time name="dav">   29.06   29.13</time>
   <time name="total">   29.57   29.65</time>
   <energy>
    <i name="e_fr_energy">   -192.37718860 </i>
    <i name="e_wo_entrp">   -192.19234296 </i>
    <i name="e_0_energy">   -192.28476578 </i>
   </energy>
  </scstep>
  <scstep>
   <time name="dav">   28.87   28.94</time>
   <time name="total">   29.38   29.45</time>
   <energy>
    <i name="e_fr_energy">   -191.65440132 </i>
    <i name="e_wo_entrp">   -191.46025430 </i>
    <i name="e_0_energy">   -191.55732781 </i>
   </energy>
  </scstep>
  <scstep>
   <time name="dav">   29.13   29.20</time>
   <time name="total">   29.64   29.72</time>
   <energy>
    <i name="e_fr_energy">   -191.59598853 </i>
    <i name="e_wo_entrp">   -191.39758407 </i>
    <i name="e_0_energy">   -191.49678630 </i>
   </energy>
  </scstep>
  <scstep>
   <time name="dav">   30.53   30.60</time>
   <time name="total">   31.03   31.11</time>
   <energy>
    <i name="e_fr_energy">   -191.42429539 </i>
    <i name="e_wo_entrp">   -191.23395719 </i>
    <i name="e_0_energy">   -191.32912629 </i>
   </energy>
  </scstep>
  <scstep>
   <time name="dav">   30.24   30.31</time>
   <time name="total">   30.74   30.83</time>
   <energy>
    <i name="e_fr_energy">   -191.41430469 </i>
    <i name="e_wo_entrp">   -191.21105453 </i>
    <i name="e_0_energy">   -191.31267961 </i>
   </energy>
  </scstep>
  <scstep>
   <time name="dav">   28.12   28.19</time>
   <time name="total">   28.64   28.71</time>
   <energy>
    <i name="e_fr_energy">   -191.40060672 </i>
    <i name="e_wo_entrp">   -191.20711290 </i>
    <i name="e_0_energy">   -191.30385981 </i>
   </energy>
  </scstep>
  <scstep>
   <time name="dav">   28.76   28.83</time>
   <time name="total">   29.27   29.35</time>
   <energy>
    <i name="e_fr_energy">   -191.39488256 </i>
    <i name="e_wo_entrp">   -191.19989591 </i>
    <i name="e_0_energy">   -191.29738924 </i>
   </energy>
  </scstep>
  <scstep>
   <time name="dav">   29.69   29.76</time>
   <time name="total">   30.20   30.29</time>
   <energy>
    <i name="e_fr_energy">   -191.39484480 </i>
    <i name="e_wo_entrp">   -191.19913547 </i>
    <i name="e_0_energy">   -191.29699014 </i>
   </energy>
  </scstep>
  <scstep>
   <time name="dav">   26.91   26.98</time>
   <time name="total">   26.95   27.02</time>
   <energy>
    <i name="alphaZ">     90.17254184 </i>
    <i name="ewald">  44671.08807773 </i>
    <i name="hartreedc"> -50680.00905830 </i>
    <i name="XCdc">   -233.34100741 </i>
    <i name="pawpsdc">   4086.73333025 </i>
    <i name="pawaedc">  -3502.73308498 </i>
    <i name="eentropy">     -0.19580827 </i>
    <i name="bandstr">  -1384.55242071 </i>
    <i name="atom">   6761.44252427 </i>
    <i name="e_fr_energy">   -191.39490557 </i>
    <i name="e_wo_entrp">   -191.19909730 </i>
    <i name="e_0_energy">   -191.29700143 </i>
   </energy>
  </scstep>
  <structure>
   <crystal>
    <varray name="basis" >
     <v>       8.28089338       4.77270696       0.00000000 </v>
     <v>      -8.28584971       4.78128051       0.00000000 </v>
     <v>       0.00000000       0.00000000      30.00000000 </v>
    </varray>
    <i name="volume">   2374.17620223 </i>
    <varray name="rec_basis" >
     <v>       0.06041608       0.10469968       0.00000000 </v>
     <v>      -0.06030774       0.10463705       0.00000000 </v>
     <v>       0.00000000       0.00000000       0.03333333 </v>
    </varray>
   </crystal>
   <varray name="positions" >
    <v>       0.33249969      -0.00553209       0.00015904 </v>
    <v>       0.32846278       0.33242392       0.00054381 </v>
    <v>       0.66714705       0.32902881       0.00016146 </v>
    <v>       0.33877637       0.67325443      -0.00027464 </v>
    <v>       0.67177466      -0.01161590      -0.00007794 </v>
    <v>      -0.01547949      -0.00410822       0.00015343 </v>
    <v>       0.99946713       0.32721509      -0.00000547 </v>
    <v>       0.00786912       0.67179512      -0.00039040 </v>
    <v>       0.66882577       0.68517657      -0.00010681 </v>
    <v>       0.11693268       0.22503516       0.94835094 </v>
    <v>       0.22744232       0.11348759       0.04886351 </v>
    <v>       0.11021105       0.55438825       0.94813233 </v>
    <v>       0.22450860       0.44098974       0.05131824 </v>
    <v>       0.11743312       0.89265225       0.94893710 </v>
    <v>       0.22535301       0.78462717       0.05225872 </v>
    <v>       0.44385684       0.22161933       0.95184043 </v>
    <v>       0.55243566       0.11297542       0.04934002 </v>
    <v>       0.44284906       0.54969666       0.94884282 </v>
    <v>       0.55343137       0.44078097       0.04822033 </v>
    <v>       0.44202724       0.89349868       0.94816684 </v>
    <v>       0.55557312       0.77734270       0.05449412 </v>
    <v>       0.77507889       0.22453278       0.94894686 </v>
    <v>       0.88836760       0.11184621       0.05392557 </v>
    <v>       0.77454765       0.55117020       0.95039646 </v>
    <v>       0.88413098       0.44185724       0.05077457 </v>
    <v>       0.77712557       0.88812894       0.94425278 </v>
    <v>       0.88756660       0.77594743       0.05277578 </v>
   </varray>
  </structure>
  <varray name="forces" >
   <v>       0.17268680      -0.07637660      -0.03026361 </v>
   <v>      -0.05462510      -0.05973925       0.01879845 </v>
   <v>       0.13801540      -0.10196217       0.00268508 </v>
   <v>      -0.14876573       0.06630970       0.01746858 </v>
   <v>       0.10285369       0.05482941       0.01212692 </v>
   <v>      -0.23273313      -0.12088164      -0.06872608 </v>
   <v>       0.04990572      -0.12847532       0.01619196 </v>
   <v>       0.25187364       0.15445475      -0.01383482 </v>
   <v>      -0.17963997       0.11177181      -0.03012519 </v>
   <v>       0.02735607      -0.11455989      -0.05565985 </v>
   <v>      -0.10616154      -0.24872829      -0.07387169 </v>
   <v>       0.11246315       0.03842275      -0.04771527 </v>
   <v>      -0.09578545       0.01246006       0.01128057 </v>
   <v>      -0.14927227       0.01806677       0.05188611 </v>
   <v>       0.03964030       0.01290471       0.15496946 </v>
   <v>       0.00631094      -0.03481503      -0.01477049 </v>
   <v>       0.23562473      -0.04088661       0.01544085 </v>
   <v>      -0.02771480       0.13435325       0.00284974 </v>
   <v>      -0.14261247       0.21000425      -0.13978360 </v>
   <v>       0.11871810       0.14059933      -0.05677090 </v>
   <v>      -0.07562060      -0.01694437       0.23715717 </v>
   <v>       0.15329678      -0.11726097      -0.01656941 </v>
   <v>      -0.03563990      -0.07919179       0.17480893 </v>
   <v>      -0.16359133       0.08868056       0.18155440 </v>
   <v>       0.06032053       0.08610403       0.00838284 </v>
   <v>      -0.01331806       0.02321099      -0.36789150 </v>
   <v>      -0.04358548      -0.01235042       0.01038134 </v>
  </varray>
  <varray name="stress" >
   <v>       0.34468504      -0.05056468      -0.24765674 </v>
   <v>      -0.05056481       0.01441749      -0.27855524 </v>
   <v>      -0.24765658      -0.27855531      -0.29493494 </v>
  </varray>
  <energy>
   <i name="e_fr_energy">   -191.39490557 </i>
   <i name="e_wo_entrp">   -191.29700143 </i>
   <i name="e_0_energy">     -0.19580827 </i>
  </energy>
  <time name="totalsc">  357.98  358.93</time>
 </calculation>
 <calculation>
  <scstep>
   <time name="dav">   21.44   21.50</time>
   <time name="total">   21.95   22.01</time>
   <energy>
    <i name="alphaZ">     90.04615225 </i>
    <i name="ewald">  44592.69730881 </i>
    <i name="hartreedc"> -50601.18932105 </i>
    <i name="XCdc">   -233.51447521 </i>
    <i name="pawpsdc">   4087.09898302 </i>
    <i name="pawaedc">  -3503.09593068 </i>
    <i name="eentropy">     -0.19885557 </i>
    <i name="bandstr">  -1384.71626642 </i>
    <i name="atom">   6761.44252427 </i>
    <i name="e_fr_energy">   -191.42988058 </i>
    <i name="e_wo_entrp">   -191.23102501 </i>
    <i name="e_0_energy">   -191.33045279 </i>
   </energy>
  </scstep>
  <scstep>
   <time name="dav">   30.97   31.05</time>
   <time name="total">   31.47   31.56</time>
   <energy>
    <i name="e_fr_energy">   -191.47010542 </i>
    <i name="e_wo_entrp">   -191.26214593 </i>
    <i name="e_0_energy">   -191.36612567 </i>
   </energy>
  </scstep>
  <scstep>
   <time name="dav">   30.19   30.26</time>
   <time name="total">   30.70   30.78</time>
   <energy>
    <i name="e_fr_energy">   -191.43943607 </i>
    <i name="e_wo_entrp">   -191.24060263 </i>
    <i name="e_0_energy">   -191.34001935 </i>
   </energy>
  </scstep>
  <scstep>
   <time name="dav">   27.44   27.51</time>
   <time name="total">   27.95   28.02</time>
   <energy>
    <i name="e_fr_energy">   -191.43976238 </i>
    <i name="e_wo_entrp">   -191.23986005 </i>
    <i name="e_0_energy">   -191.33981121 </i>
   </energy>
  </scstep>
  <scstep>
   <time name="dav">   26.75   26.81</time>
   <time name="total">   27.26   27.33</time>
   <energy>
    <i name="e_fr_energy">   -191.43792004 </i>
    <i name="e_wo_entrp">   -191.23747103 </i>
    <i name="e_0_energy">   -191.33769553 </i>
   </energy>
  </scstep>
  <scstep>
   <time name="dav">   28.37   28.44</time>
   <time name="total">   28.88   28.95</time>
   <energy>
    <i name="e_fr_energy">   -191.43786989 </i>
    <i name="e_wo_entrp">   -191.23746284 </i>
    <i name="e_0_energy">   -191.33766636 </i>
   </energy>
  </scstep>
  <scstep>
   <time name="dav">   25.67   25.73</time>
   <time name="total">   26.18   26.25</time>
   <energy>
    <i name="e_fr_energy">   -191.43809731 </i>
    <i name="e_wo_entrp">   -191.23890962 </i>
    <i name="e_0_energy">   -191.33850347 </i>
   </energy>
  </scstep>
  <scstep>
   <time name="dav">   22.62   22.68</time>
   <time name="total">   23.13   23.19</time>
   <energy>
    <i name="e_fr_energy">   -191.43755078 </i>
    <i name="e_wo_entrp">   -191.23756079 </i>
    <i name="e_0_energy">   -191.33755578 </i>
   </energy>
  </scstep>
  <scstep>
   <time name="dav">   16.99   17.04</time>
   <time name="total">   17.03   17.08</time>
   <energy>
    <i name="alphaZ">     90.04615225 </i>
    <i name="ewald">  44592.69730881 </i>
    <i name="hartreedc"> -50603.22856175 </i>
    <i name="XCdc">   -233.45596800 </i>
    <i name="pawpsdc">   4082.58364047 </i>
    <i name="pawaedc">  -3498.51685676 </i>
    <i name="eentropy">     -0.20000837 </i>
    <i name="bandstr">  -1382.80580075 </i>
    <i name="atom">   6761.44252427 </i>
    <i name="e_fr_energy">   -191.43756982 </i>
    <i name="e_wo_entrp">   -191.23756145 </i>
    <i name="e_0_energy">   -191.33756564 </i>
   </energy>
  </scstep>
  <structure>
   <crystal>
    <varray name="basis" >
     <v>       8.28958118       4.77302622       0.00000000 </v>
     <v>      -8.29573050       4.78366123       0.00000000 </v>
     <v>       0.00000000       0.00000000      30.00000000 </v>
    </varray>
    <i name="volume">   2377.50861734 </i>
    <varray name="rec_basis" >
     <v>       0.06036144       0.10467761       0.00000000 </v>
     <v>      -0.06022724       0.10460001       0.00000000 </v>
     <v>       0.00000000       0.00000000       0.03333333 </v>
    </varray>
   </crystal>
   <varray name="positions" >
    <v>       0.33263037      -0.00633594       0.00011018 </v>
    <v>       0.32805718       0.33228701       0.00056836 </v>
    <v>       0.66701925       0.32816216       0.00016354 </v>
    <v>       0.33864329       0.67394986      -0.00024397 </v>
    <v>       0.67227501      -0.01153330      -0.00006077 </v>
    <v>      -0.01657943      -0.00399867       0.00004458 </v>
    <v>       0.99898540       0.32648617       0.00002270 </v>
    <v>       0.00927874       0.67181168      -0.00040662 </v>
    <v>       0.66883481       0.68606865      -0.00015552 </v>
    <v>       0.11642799       0.22439916       0.94830334 </v>
    <v>       0.22591831       0.11256700       0.04872313 </v>
    <v>       0.11070983       0.55426286       0.94808996 </v>
    <v>       0.22428244       0.44132165       0.05129829 </v>
    <v>       0.11707209       0.89312808       0.94905210 </v>
    <v>       0.22550099       0.78454442       0.05245495 </v>
    <v>       0.44370835       0.22143770       0.95184614 </v>
    <v>       0.55290816       0.11211453       0.04933534 </v>
    <v>       0.44343685       0.55045135       0.94888279 </v>
    <v>       0.55406308       0.44221386       0.04798325 </v>
    <v>       0.44304981       0.89382940       0.94812068 </v>
    <v>       0.55528151       0.77746683       0.05480831 </v>
    <v>       0.77495427       0.22353505       0.94895599 </v>
    <v>       0.88789333       0.11156960       0.05414687 </v>
    <v>       0.77453583       0.55207631       0.95070081 </v>
    <v>       0.88473950       0.44211843       0.05075546 </v>
    <v>       0.77719788       0.88826926       0.94374802 </v>
    <v>       0.88738961       0.77601135       0.05275202 </v>
   </varray>
  </structure>
  <varray name="forces" >
   <v>       0.18551692      -0.06049750      -0.02461405 </v>
   <v>      -0.03946366      -0.06164353       0.04226538 </v>
   <v>       0.13202947      -0.14104759       0.00259438 </v>
   <v>      -0.15446702       0.08640052       0.03032641 </v>
   <v>       0.18358059       0.02570855       0.01156726 </v>
   <v>      -0.28325290      -0.12223365      -0.01869899 </v>
   <v>       0.07320903      -0.14559022       0.03232517 </v>
   <v>       0.28464233       0.17464839      -0.02153901 </v>
   <v>      -0.29276043       0.14389517      -0.00160976 </v>
   <v>      -0.00015393      -0.06067517      -0.04779729 </v>
   <v>      -0.06096847      -0.15882658      -0.10696153 </v>
   <v>       0.08463961       0.01394943      -0.03310973 </v>
   <v>      -0.06535053       0.00268212      -0.02520179 </v>
   <v>      -0.08196327       0.01416292       0.06898374 </v>
   <v>       0.02319946       0.02457687       0.14082829 </v>
   <v>       0.00883296      -0.02163059       0.02142260 </v>
   <v>       0.12874775      -0.02596355       0.02574638 </v>
   <v>      -0.04446555       0.06937676       0.01297651 </v>
   <v>      -0.07871181       0.12524460      -0.14197812 </v>
   <v>       0.05998837       0.08250292      -0.05018335 </v>
   <v>      -0.04342801      -0.00650763       0.10634240 </v>
   <v>       0.08380614      -0.05573880      -0.03323936 </v>
   <v>      -0.02159652      -0.03651986       0.11830892 </v>
   <v>      -0.08268754       0.07184739       0.19070998 </v>
   <v>       0.04317475       0.05707696      -0.01049296 </v>
   <v>      -0.03054412       0.00104629      -0.21694287 </v>
   <v>      -0.01155361       0.00375578      -0.07202861 </v>
  </varray>
  <varray name="stress" >
   <v>      -0.24807024       0.03854828      -0.08733535 </v>
   <v>       0.03854808      -0.25321847      -0.13575984 </v>
   <v>      -0.08733533      -0.13576006      -1.09660532 </v>
  </varray>
  <energy>
   <i name="e_fr_energy">   -191.43756982 </i>
   <i name="e_wo_entrp">   -191.33756564 </i>
   <i name="e_0_energy">     -0.20000837 </i>
  </energy>
  <time name="totalsc">  275.85  276.58</time>
 </calculation>
 <calculation>
  <scstep>
   <time name="dav">   21.45   21.50</time>
   <time name="total">   21.96   22.01</time>
   <energy>
    <i name="alphaZ">     90.28740247 </i>
    <i name="ewald">  44694.87981356 </i>
    <i name="hartreedc"> -50708.27326619 </i>
    <i name="XCdc">   -233.32012044 </i>
    <i name="pawpsdc">   4082.40452206 </i>
    <i name="pawaedc">  -3498.33583501 </i>
    <i name="eentropy">     -0.20197826 </i>
    <i name="bandstr">  -1380.36829579 </i>
    <i name="atom">   6761.44252427 </i>
    <i name="e_fr_energy">   -191.48523332 </i>
    <i name="e_wo_entrp">   -191.28325506 </i>
    <i name="e_0_energy">   -191.38424419 </i>
   </energy>
  </scstep>
  <scstep>
   <time name="dav">   31.93   32.00</time>
   <time name="total">   32.43   32.52</time>
   <energy>
    <i name="e_fr_energy">   -191.53649381 </i>
    <i name="e_wo_entrp">   -191.32065417 </i>
    <i name="e_0_energy">   -191.42857399 </i>
   </energy>
  </scstep>
  <scstep>
   <time name="dav">   30.24   30.31</time>
   <time name="total">   30.74   30.82</time>
   <energy>
    <i name="e_fr_energy">   -191.49620710 </i>
    <i name="e_wo_entrp">   -191.29451324 </i>
    <i name="e_0_energy">   -191.39536017 </i>
   </energy>
  </scstep>
  <scstep>
   <time name="dav">   27.06   27.12</time>
   <time name="total">   27.56   27.63</time>
   <energy>
    <i name="e_fr_energy">   -191.49401138 </i>
    <i name="e_wo_entrp">   -191.29068298 </i>
    <i name="e_0_energy">   -191.39234718 </i>
   </energy>
  </scstep>
  <scstep>
   <time name="dav">   28.05   28.12</time>
   <time name="total">   28.55   28.63</time>
   <energy>
    <i name="e_fr_energy">   -191.49189466 </i>
    <i name="e_wo_entrp">   -191.28735576 </i>
    <i name="e_0_energy">   -191.38962521 </i>
   </energy>
  </scstep>
  <scstep>
   <time name="dav">   28.03   28.09</time>
   <time name="total">   28.53   28.61</time>
   <energy>
    <i name="e_fr_energy">   -191.49104137 </i>
    <i name="e_wo_entrp">   -191.28619616 </i>
    <i name="e_0_energy">   -191.38861877 </i>
   </energy>
  </scstep>
  <scstep>
   <time name="dav">   28.01   28.08</time>
   <time name="total">   28.51   28.59</time>
   <energy>
    <i name="e_fr_energy">   -191.49160183 </i>
    <i name="e_wo_entrp">   -191.28866970 </i>
    <i name="e_0_energy">   -191.39013576 </i>
   </energy>
  </scstep>
  <scstep>
   <time name="dav">   24.40   24.46</time>
   <time name="total">   24.91   24.98</time>
   <energy>
    <i name="e_fr_energy">   -191.49037575 </i>
    <i name="e_wo_entrp">   -191.28580072 </i>
    <i name="e_0_energy">   -191.38808824 </i>
   </energy>
  </scstep>
  <scstep>
   <time name="dav">   16.28   16.32</time>
   <time name="total">   16.31   16.36</time>
   <energy>
    <i name="alphaZ">     90.28740247 </i>
    <i name="ewald">  44694.87981356 </i>
    <i name="hartreedc"> -50706.97591752 </i>
    <i name="XCdc">   -233.37677018 </i>
    <i name="pawpsdc">   4084.93334620 </i>
    <i name="pawaedc">  -3500.89826502 </i>
    <i name="eentropy">     -0.20435641 </i>
    <i name="bandstr">  -1381.57816953 </i>
    <i name="atom">   6761.44252427 </i>
    <i name="e_fr_energy">   -191.49039216 </i>
    <i name="e_wo_entrp">   -191.28603574 </i>
    <i name="e_0_energy">   -191.38821395 </i>
   </energy>
  </scstep>
  <structure>
   <crystal>
    <varray name="basis" >
     <v>       8.27942506       4.76735073       0.00000000 </v>
     <v>      -8.28449390       4.77610947       0.00000000 </v>
     <v>       0.00000000       0.00000000      30.00000000 </v>
    </varray>
    <i name="volume">   2371.15585430 </i>
    <varray name="rec_basis" >
     <v>       0.06042761       0.10481589       0.00000000 </v>
     <v>      -0.06031680       0.10475176       0.00000000 </v>
     <v>       0.00000000       0.00000000       0.03333333 </v>
    </varray>
   </crystal>
   <varray name="positions" >
    <v>       0.33290692      -0.00760708       0.00005929 </v>
    <v>       0.32738838       0.33202043       0.00066839 </v>
    <v>       0.66662608       0.32663824       0.00017365 </v>
    <v>       0.33869819       0.67524827      -0.00018618 </v>
    <v>       0.67329675      -0.01227746      -0.00003176 </v>
    <v>      -0.01884588      -0.00382116       0.00000209 </v>
    <v>       0.99826311       0.32512203       0.00008558 </v>
    <v>       0.01171611       0.67194579      -0.00046420 </v>
    <v>       0.66873888       0.68852185      -0.00015831 </v>
    <v>       0.11604247       0.22395690       0.94811558 </v>
    <v>       0.22456096       0.11170294       0.04854563 </v>
    <v>       0.11116910       0.55401884       0.94794868 </v>
    <v>       0.22407422       0.44160560       0.05132589 </v>
    <v>       0.11689167       0.89363381       0.94912948 </v>
    <v>       0.22581825       0.78468629       0.05285988 </v>
[...]
      <set comment="kpoint 31">
       <r>  -17.4971    1.0000 </r>
       <r>  -17.2496    1.0000 </r>
       <r>  -16.9095    1.0000 </r>
       <r>  -16.5828    1.0000 </r>
       <r>  -16.4651    1.0000 </r>
       <r>  -16.4181    1.0000 </r>
       <r>  -16.2647    1.0000 </r>
       <r>  -16.1698    1.0000 </r>
       <r>  -16.0790    1.0000 </r>
       <r>  -16.0428    1.0000 </r>
       <r>  -15.9796    1.0000 </r>
       <r>  -15.8388    1.0000 </r>
       <r>  -15.7532    1.0000 </r>
       <r>  -15.6931    1.0000 </r>
       <r>  -15.6170    1.0000 </r>
       <r>  -15.5589    1.0000 </r>
       <r>  -15.4674    1.0000 </r>
       <r>  -15.3815    1.0000 </r>
       <r>   -9.7136    1.0000 </r>
       <r>   -9.4396    1.0000 </r>
       <r>   -9.2887    1.0000 </r>
       <r>   -8.9431    1.0000 </r>
       <r>   -8.8552    1.0000 </r>
       <r>   -8.7102    1.0000 </r>
       <r>   -8.5499    1.0000 </r>
       <r>   -8.5056    1.0000 </r>
       <r>   -8.4385    1.0000 </r>
       <r>   -8.3019    1.0000 </r>
       <r>   -8.2450    1.0000 </r>
       <r>   -8.1991    1.0000 </r>
       <r>   -8.1227    1.0000 </r>
       <r>   -8.0950    1.0000 </r>
       <r>   -7.9418    1.0000 </r>
       <r>   -7.8818    1.0000 </r>
       <r>   -7.8028    1.0000 </r>
       <r>   -7.7004    1.0000 </r>
       <r>   -7.5735    1.0000 </r>
       <r>   -7.3733    1.0000 </r>
       <r>   -7.3121    1.0000 </r>
       <r>   -7.2636    1.0000 </r>
       <r>   -7.1657    1.0000 </r>
       <r>   -7.0891    1.0000 </r>
       <r>   -6.9881    1.0000 </r>
       <r>   -6.9128    1.0000 </r>
       <r>   -6.8237    1.0000 </r>
       <r>   -6.7916    1.0000 </r>
       <r>   -6.7196    1.0000 </r>
       <r>   -6.6233    1.0000 </r>
       <r>   -6.5473    1.0000 </r>
       <r>   -6.4869    1.0000 </r>
       <r>   -6.3920    1.0000 </r>
       <r>   -6.3675    1.0000 </r>
       <r>   -6.3041    1.0000 </r>
       <r>   -6.1957    1.0000 </r>
       <r>   -6.1456    1.0000 </r>
       <r>   -6.0792    1.0000 </r>
       <r>   -6.0085    1.0000 </r>
       <r>   -5.9448    1.0000 </r>
       <r>   -5.8605    1.0000 </r>
       <r>   -5.8029    1.0000 </r>
       <r>   -5.6956    1.0000 </r>
       <r>   -5.6793    1.0000 </r>
       <r>   -5.6206    1.0000 </r>
       <r>   -5.4079    1.0000 </r>
       <r>   -5.2822    1.0000 </r>
       <r>   -5.1858    1.0000 </r>
       <r>   -5.0552    1.0000 </r>
       <r>   -4.9137    1.0000 </r>
       <r>   -4.7830    1.0000 </r>
       <r>   -4.6494    1.0000 </r>
       <r>   -4.5674    1.0000 </r>
       <r>   -4.4081    1.0000 </r>
       <r>   -4.3744    1.0000 </r>
       <r>   -4.3124    1.0000 </r>
       <r>   -4.1636    1.0000 </r>
       <r>   -3.8998    1.0000 </r>
       <r>   -3.7620    0.9998 </r>
       <r>   -3.5865    0.9902 </r>
       <r>   -3.4791    0.9425 </r>
       <r>   -3.2248    0.4120 </r>
       <r>   -2.9808    0.0257 </r>
       <r>   -2.8911    0.0049 </r>
       <r>   -2.7641    0.0003 </r>
       <r>   -2.7034    0.0000 </r>
       <r>   -2.6385    0.0000 </r>
       <r>   -2.4445    0.0000 </r>
       <r>   -2.3769    0.0000 </r>
       <r>   -2.2891    0.0000 </r>
       <r>   -2.1350    0.0000 </r>
       <r>   -1.9267    0.0000 </r>
       <r>   -1.8208    0.0000 </r>
       <r>   -1.6635    0.0000 </r>
       <r>   -1.5710    0.0000 </r>
       <r>   -1.3221    0.0000 </r>
       <r>   -1.2330    0.0000 </r>
       <r>   -1.1301    0.0000 </r>
       <r>   -1.0297    0.0000 </r>
       <r>   -0.9805    0.0000 </r>
       <r>   -0.9545    0.0000 </r>
       <r>   -0.8907    0.0000 </r>
       <r>   -0.8117    0.0000 </r>
       <r>   -0.7419    0.0000 </r>
       <r>   -0.6648    0.0000 </r>
       <r>   -0.5666    0.0000 </r>
       <r>   -0.4414    0.0000 </r>
       <r>   -0.3633    0.0000 </r>
       <r>   -0.2626    0.0000 </r>
       <r>   -0.0634    0.0000 </r>
       <r>    0.0217    0.0000 </r>
       <r>    0.1461    0.0000 </r>
       <r>    0.2737    0.0000 </r>
       <r>    0.4502    0.0000 </r>
       <r>    0.7470    0.0000 </r>
       <r>    0.9399    0.0000 </r>
       <r>    1.1767    0.0000 </r>
       <r>    1.2252    0.0000 </r>
       <r>    1.4907    0.0000 </r>
       <r>    2.1176    0.0000 </r>
       <r>    2.3006    0.0000 </r>
       <r>    2.3741    0.0000 </r>
      </set>
      <set comment="kpoint 32">
       <r>  -17.5103    1.0000 </r>
       <r>  -17.1466    1.0000 </r>
       <r>  -17.0534    1.0000 </r>
       <r>  -16.5810    1.0000 </r>
       <r>  -16.4173    1.0000 </r>
       <r>  -16.3359    1.0000 </r>
       <r>  -16.2635    1.0000 </r>
       <r>  -16.2039    1.0000 </r>
       <r>  -16.1261    1.0000 </r>
       <r>  -16.0336    1.0000 </r>
       <r>  -15.9846    1.0000 </r>
       <r>  -15.8406    1.0000 </r>
       <r>  -15.7588    1.0000 </r>
       <r>  -15.7082    1.0000 </r>
       <r>  -15.6107    1.0000 </r>
       <r>  -15.5782    1.0000 </r>
       <r>  -15.4640    1.0000 </r>
       <r>  -15.3493    1.0000 </r>
       <r>   -9.6532    1.0000 </r>
       <r>   -9.5293    1.0000 </r>
       <r>   -9.3833    1.0000 </r>
       <r>   -8.9486    1.0000 </r>
       <r>   -8.7523    1.0000 </r>
       <r>   -8.5813    1.0000 </r>
       <r>   -8.5412    1.0000 </r>
       <r>   -8.4539    1.0000 </r>
       <r>   -8.4090    1.0000 </r>
       <r>   -8.3026    1.0000 </r>
       <r>   -8.2659    1.0000 </r>
       <r>   -8.2028    1.0000 </r>
       <r>   -8.1672    1.0000 </r>
       <r>   -8.1346    1.0000 </r>
       <r>   -8.0530    1.0000 </r>
       <r>   -7.9468    1.0000 </r>
       <r>   -7.8188    1.0000 </r>
       <r>   -7.6618    1.0000 </r>
       <r>   -7.4430    1.0000 </r>
       <r>   -7.4032    1.0000 </r>
       <r>   -7.3556    1.0000 </r>
       <r>   -7.2626    1.0000 </r>
       <r>   -7.1759    1.0000 </r>
       <r>   -7.1003    1.0000 </r>
       <r>   -7.0014    1.0000 </r>
       <r>   -6.8885    1.0000 </r>
       <r>   -6.8541    1.0000 </r>
       <r>   -6.7959    1.0000 </r>
       <r>   -6.7197    1.0000 </r>
       <r>   -6.6121    1.0000 </r>
       <r>   -6.5589    1.0000 </r>
       <r>   -6.4542    1.0000 </r>
       <r>   -6.4048    1.0000 </r>
       <r>   -6.3654    1.0000 </r>
       <r>   -6.3160    1.0000 </r>
       <r>   -6.2182    1.0000 </r>
       <r>   -6.1701    1.0000 </r>
       <r>   -6.0582    1.0000 </r>
       <r>   -5.9927    1.0000 </r>
       <r>   -5.9449    1.0000 </r>
       <r>   -5.8860    1.0000 </r>
       <r>   -5.7396    1.0000 </r>
       <r>   -5.6756    1.0000 </r>
       <r>   -5.5897    1.0000 </r>
       <r>   -5.4672    1.0000 </r>
       <r>   -5.4015    1.0000 </r>
       <r>   -5.3215    1.0000 </r>
       <r>   -5.2169    1.0000 </r>
       <r>   -5.1256    1.0000 </r>
       <r>   -5.0130    1.0000 </r>
       <r>   -4.8836    1.0000 </r>
       <r>   -4.5795    1.0000 </r>
       <r>   -4.5119    1.0000 </r>
       <r>   -4.4702    1.0000 </r>
       <r>   -4.3769    1.0000 </r>
       <r>   -4.3334    1.0000 </r>
       <r>   -4.1868    1.0000 </r>
       <r>   -3.8826    1.0000 </r>
       <r>   -3.7669    0.9998 </r>
       <r>   -3.6048    0.9931 </r>
       <r>   -3.4306    0.8913 </r>
       <r>   -3.1589    0.2456 </r>
       <r>   -3.0006    0.0353 </r>
       <r>   -2.8685    0.0031 </r>
       <r>   -2.7694    0.0003 </r>
       <r>   -2.7011    0.0000 </r>
       <r>   -2.6076    0.0000 </r>
       <r>   -2.5172    0.0000 </r>
       <r>   -2.3740    0.0000 </r>
       <r>   -2.2789    0.0000 </r>
       <r>   -2.1503    0.0000 </r>
       <r>   -1.9253    0.0000 </r>
       <r>   -1.8234    0.0000 </r>
       <r>   -1.7022    0.0000 </r>
       <r>   -1.5370    0.0000 </r>
       <r>   -1.3340    0.0000 </r>
       <r>   -1.2561    0.0000 </r>
       <r>   -1.0865    0.0000 </r>
       <r>   -1.0352    0.0000 </r>
       <r>   -0.9600    0.0000 </r>
       <r>   -0.9299    0.0000 </r>
       <r>   -0.9160    0.0000 </r>
       <r>   -0.8021    0.0000 </r>
       <r>   -0.7598    0.0000 </r>
       <r>   -0.6520    0.0000 </r>
       <r>   -0.5585    0.0000 </r>
       <r>   -0.5038    0.0000 </r>
       <r>   -0.3262    0.0000 </r>
       <r>   -0.1959    0.0000 </r>
       <r>   -0.0640    0.0000 </r>
       <r>   -0.0221    0.0000 </r>
       <r>    0.1409    0.0000 </r>
       <r>    0.2495    0.0000 </r>
       <r>    0.5296    0.0000 </r>
       <r>    0.7795    0.0000 </r>
       <r>    0.8947    0.0000 </r>
       <r>    1.1091    0.0000 </r>
       <r>    1.1971    0.0000 </r>
       <r>    1.4932    0.0000 </r>
       <r>    2.0869    0.0000 </r>
       <r>    2.2703    0.0000 </r>
       <r>    2.5574    0.0000 </r>
      </set>
      <set comment="kpoint 33">
       <r>  -17.4920    1.0000 </r>
       <r>  -17.2481    1.0000 </r>
       <r>  -16.9178    1.0000 </r>
       <r>  -16.5868    1.0000 </r>
       <r>  -16.4739    1.0000 </r>
       <r>  -16.3802    1.0000 </r>
       <r>  -16.3235    1.0000 </r>
       <r>  -16.1414    1.0000 </r>
       <r>  -16.1054    1.0000 </r>
       <r>  -16.0329    1.0000 </r>
       <r>  -15.9159    1.0000 </r>
       <r>  -15.8537    1.0000 </r>
       <r>  -15.7572    1.0000 </r>
       <r>  -15.7140    1.0000 </r>
       <r>  -15.6272    1.0000 </r>
       <r>  -15.5836    1.0000 </r>
       <r>  -15.4664    1.0000 </r>
       <r>  -15.3447    1.0000 </r>
       <r>   -9.7345    1.0000 </r>
       <r>   -9.3808    1.0000 </r>
       <r>   -9.3467    1.0000 </r>
       <r>   -8.9814    1.0000 </r>
       <r>   -8.8684    1.0000 </r>
       <r>   -8.6894    1.0000 </r>
       <r>   -8.5511    1.0000 </r>
       <r>   -8.4777    1.0000 </r>
       <r>   -8.4256    1.0000 </r>
       <r>   -8.3295    1.0000 </r>
       <r>   -8.2519    1.0000 </r>
       <r>   -8.1538    1.0000 </r>
       <r>   -8.1331    1.0000 </r>
       <r>   -8.0710    1.0000 </r>
       <r>   -7.9664    1.0000 </r>
       <r>   -7.8549    1.0000 </r>
       <r>   -7.8319    1.0000 </r>
       <r>   -7.6707    1.0000 </r>
       <r>   -7.5973    1.0000 </r>
       <r>   -7.3760    1.0000 </r>
       <r>   -7.2762    1.0000 </r>
       <r>   -7.2486    1.0000 </r>
       <r>   -7.1694    1.0000 </r>
       <r>   -7.0451    1.0000 </r>
       <r>   -6.9908    1.0000 </r>
       <r>   -6.9388    1.0000 </r>
       <r>   -6.8849    1.0000 </r>
       <r>   -6.7375    1.0000 </r>
       <r>   -6.7115    1.0000 </r>
       <r>   -6.6608    1.0000 </r>
       <r>   -6.5827    1.0000 </r>
       <r>   -6.5390    1.0000 </r>
       <r>   -6.3842    1.0000 </r>
       <r>   -6.3083    1.0000 </r>
       <r>   -6.2692    1.0000 </r>
       <r>   -6.1873    1.0000 </r>
       <r>   -6.1558    1.0000 </r>
       <r>   -6.0633    1.0000 </r>
       <r>   -6.0276    1.0000 </r>
       <r>   -5.9769    1.0000 </r>
       <r>   -5.9312    1.0000 </r>
       <r>   -5.8100    1.0000 </r>
       <r>   -5.6955    1.0000 </r>
       <r>   -5.6272    1.0000 </r>
       <r>   -5.5559    1.0000 </r>
       <r>   -5.3697    1.0000 </r>
       <r>   -5.2791    1.0000 </r>
       <r>   -5.1443    1.0000 </r>
       <r>   -5.0506    1.0000 </r>
       <r>   -5.0142    1.0000 </r>
       <r>   -4.8300    1.0000 </r>
       <r>   -4.6484    1.0000 </r>
       <r>   -4.5568    1.0000 </r>
       <r>   -4.4325    1.0000 </r>
       <r>   -4.3502    1.0000 </r>
       <r>   -4.2787    1.0000 </r>
       <r>   -4.1986    1.0000 </r>
       <r>   -3.9235    1.0000 </r>
       <r>   -3.7547    0.9998 </r>
       <r>   -3.6526    0.9975 </r>
       <r>   -3.4761    0.9400 </r>
       <r>   -3.1315    0.1889 </r>
       <r>   -2.9457    0.0141 </r>
       <r>   -2.8606    0.0026 </r>
       <r>   -2.7509    0.0002 </r>
       <r>   -2.7038    0.0000 </r>
       <r>   -2.6000    0.0000 </r>
       <r>   -2.5723    0.0000 </r>
       <r>   -2.3765    0.0000 </r>
       <r>   -2.2600    0.0000 </r>
       <r>   -2.1531    0.0000 </r>
       <r>   -1.9097    0.0000 </r>
       <r>   -1.8235    0.0000 </r>
       <r>   -1.7367    0.0000 </r>
       <r>   -1.4941    0.0000 </r>
       <r>   -1.3551    0.0000 </r>
       <r>   -1.2751    0.0000 </r>
       <r>   -1.0942    0.0000 </r>
       <r>   -1.0493    0.0000 </r>
       <r>   -0.9827    0.0000 </r>
       <r>   -0.9103    0.0000 </r>
       <r>   -0.8680    0.0000 </r>
       <r>   -0.8018    0.0000 </r>
       <r>   -0.7391    0.0000 </r>
       <r>   -0.6680    0.0000 </r>
       <r>   -0.5329    0.0000 </r>
       <r>   -0.5069    0.0000 </r>
       <r>   -0.3833    0.0000 </r>
       <r>   -0.2624    0.0000 </r>
       <r>   -0.0681    0.0000 </r>
       <r>    0.0275    0.0000 </r>
       <r>    0.1330    0.0000 </r>
       <r>    0.2767    0.0000 </r>
       <r>    0.6015    0.0000 </r>
       <r>    0.7679    0.0000 </r>
       <r>    0.8557    0.0000 </r>
       <r>    1.0807    0.0000 </r>
       <r>    1.2379    0.0000 </r>
       <r>    1.5039    0.0000 </r>
       <r>    2.1187    0.0000 </r>
       <r>    2.3008    0.0000 </r>
       <r>    2.3833    0.0000 </r>
      </set>
      <set comment="kpoint 34">
       <r>  -17.4679    1.0000 </r>
       <r>  -17.3131    1.0000 </r>
       <r>  -16.7696    1.0000 </r>
       <r>  -16.6435    1.0000 </r>
       <r>  -16.5700    1.0000 </r>
       <r>  -16.3823    1.0000 </r>
       <r>  -16.3231    1.0000 </r>
       <r>  -16.1423    1.0000 </r>
       <r>  -16.0996    1.0000 </r>
       <r>  -16.0039    1.0000 </r>
       <r>  -15.8886    1.0000 </r>
       <r>  -15.8514    1.0000 </r>
       <r>  -15.7294    1.0000 </r>
       <r>  -15.7191    1.0000 </r>
       <r>  -15.6628    1.0000 </r>
       <r>  -15.5793    1.0000 </r>
       <r>  -15.4697    1.0000 </r>
       <r>  -15.3490    1.0000 </r>
       <r>   -9.7729    1.0000 </r>
       <r>   -9.2941    1.0000 </r>
       <r>   -9.2097    1.0000 </r>
       <r>   -9.0509    1.0000 </r>
       <r>   -9.0072    1.0000 </r>
       <r>   -8.7739    1.0000 </r>
       <r>   -8.5591    1.0000 </r>
       <r>   -8.4919    1.0000 </r>
       <r>   -8.4559    1.0000 </r>
       <r>   -8.3261    1.0000 </r>
       <r>   -8.2433    1.0000 </r>
       <r>   -8.1314    1.0000 </r>
       <r>   -8.1056    1.0000 </r>
       <r>   -7.9925    1.0000 </r>
       <r>   -7.9111    1.0000 </r>
       <r>   -7.8372    1.0000 </r>
       <r>   -7.7918    1.0000 </r>
       <r>   -7.7721    1.0000 </r>
       <r>   -7.5476    1.0000 </r>
       <r>   -7.3987    1.0000 </r>
       <r>   -7.2611    1.0000 </r>
       <r>   -7.2174    1.0000 </r>
       <r>   -7.1460    1.0000 </r>
       <r>   -7.0950    1.0000 </r>
       <r>   -6.9843    1.0000 </r>
       <r>   -6.9168    1.0000 </r>
       <r>   -6.8989    1.0000 </r>
       <r>   -6.7464    1.0000 </r>
       <r>   -6.6977    1.0000 </r>
       <r>   -6.6359    1.0000 </r>
       <r>   -6.5853    1.0000 </r>
       <r>   -6.5567    1.0000 </r>
       <r>   -6.4098    1.0000 </r>
       <r>   -6.3059    1.0000 </r>
       <r>   -6.2458    1.0000 </r>
       <r>   -6.1963    1.0000 </r>
       <r>   -6.1415    1.0000 </r>
       <r>   -6.0620    1.0000 </r>
       <r>   -6.0341    1.0000 </r>
       <r>   -6.0212    1.0000 </r>
       <r>   -5.9163    1.0000 </r>
       <r>   -5.8516    1.0000 </r>
       <r>   -5.7929    1.0000 </r>
       <r>   -5.6535    1.0000 </r>
       <r>   -5.4736    1.0000 </r>
       <r>   -5.4111    1.0000 </r>
       <r>   -5.3919    1.0000 </r>
       <r>   -5.0610    1.0000 </r>
       <r>   -4.9508    1.0000 </r>
       <r>   -4.8906    1.0000 </r>
       <r>   -4.8747    1.0000 </r>
       <r>   -4.6849    1.0000 </r>
       <r>   -4.5924    1.0000 </r>
       <r>   -4.4097    1.0000 </r>
       <r>   -4.3467    1.0000 </r>
       <r>   -4.2262    1.0000 </r>
       <r>   -4.1882    1.0000 </r>
       <r>   -3.9710    1.0000 </r>
       <r>   -3.7370    0.9997 </r>
       <r>   -3.6859    0.9988 </r>
       <r>   -3.5215    0.9696 </r>
       <r>   -3.1354    0.1966 </r>
       <r>   -2.8993    0.0058 </r>
       <r>   -2.8592    0.0025 </r>
       <r>   -2.7441    0.0001 </r>
       <r>   -2.6995    0.0000 </r>
       <r>   -2.6281    0.0000 </r>
       <r>   -2.5697    0.0000 </r>
       <r>   -2.3797    0.0000 </r>
       <r>   -2.2470    0.0000 </r>
       <r>   -2.1545    0.0000 </r>
       <r>   -1.8943    0.0000 </r>
       <r>   -1.8260    0.0000 </r>
       <r>   -1.7493    0.0000 </r>
       <r>   -1.4718    0.0000 </r>
       <r>   -1.3704    0.0000 </r>
       <r>   -1.2854    0.0000 </r>
       <r>   -1.0914    0.0000 </r>
       <r>   -1.0619    0.0000 </r>
       <r>   -1.0107    0.0000 </r>
       <r>   -0.8957    0.0000 </r>
       <r>   -0.8231    0.0000 </r>
       <r>   -0.7837    0.0000 </r>
       <r>   -0.7388    0.0000 </r>
       <r>   -0.6961    0.0000 </r>
       <r>   -0.5699    0.0000 </r>
       <r>   -0.4421    0.0000 </r>
       <r>   -0.4315    0.0000 </r>
       <r>   -0.3038    0.0000 </r>
       <r>   -0.0804    0.0000 </r>
       <r>    0.0496    0.0000 </r>
       <r>    0.1500    0.0000 </r>
       <r>    0.2852    0.0000 </r>
       <r>    0.6191    0.0000 </r>
       <r>    0.7808    0.0000 </r>
       <r>    0.8203    0.0000 </r>
       <r>    1.0887    0.0000 </r>
       <r>    1.2712    0.0000 </r>
       <r>    1.5103    0.0000 </r>
       <r>    2.1980    0.0000 </r>
       <r>    2.2359    0.0000 </r>
       <r>    2.3868    0.0000 </r>
      </set>
     </set>
    </set>
   </array>
  </eigenvalues>
  <separator name="orbital magnetization" >
   <v name="MAGDIPOLOUT">      0.00000000      0.00000000      0.00000000</v>
  </separator>
 </calculation>
 <structure name="finalpos" >
  <crystal>
   <varray name="basis" >
    <v>       8.33996466       4.81255555       0.00000000 </v>
    <v>      -8.36369434       4.85394371       0.00000000 </v>
    <v>       0.00000000       0.00000000      30.00000000 </v>
   </varray>
   <i name="volume">   2421.97387580 </i>
   <varray name="rec_basis" >
    <v>       0.06012382       0.10359766       0.00000000 </v>
    <v>      -0.05961116       0.10330373       0.00000000 </v>
    <v>       0.00000000       0.00000000       0.03333333 </v>
   </varray>
  </crystal>
  <varray name="positions" >
   <v>       0.34823759      -0.00710633       0.00007319 </v>
   <v>       0.32541268       0.32780035       0.00113577 </v>
   <v>       0.65217978       0.30495885      -0.00103422 </v>
   <v>       0.32604838       0.66391903      -0.00004671 </v>
   <v>       0.65698004      -0.02102182       0.00010423 </v>
   <v>      -0.03536130      -0.01199278      -0.00032209 </v>
   <v>       1.02419468       0.36444318       0.00003341 </v>
   <v>       0.02925346       0.66923368      -0.00026129 </v>
   <v>       0.66531794       0.69552929       0.00014893 </v>
   <v>       0.11455921       0.22701925       0.94985816 </v>
   <v>       0.21712642       0.10408980       0.04502969 </v>
   <v>       0.11811722       0.56103085       0.94326829 </v>
   <v>       0.22945110       0.44315393       0.05318134 </v>
   <v>       0.11717919       0.89607689       0.95197966 </v>
   <v>       0.23102586       0.78556561       0.05420363 </v>
   <v>       0.44236780       0.21600691       0.95151150 </v>
   <v>       0.55193816       0.11028062       0.05195857 </v>
   <v>       0.44459773       0.54894538       0.94971821 </v>
   <v>       0.55635332       0.44417965       0.04501468 </v>
   <v>       0.44087849       0.88927927       0.94675042 </v>
   <v>       0.55109510       0.77650750       0.05605183 </v>
   <v>       0.78201044       0.22457714       0.95157605 </v>
   <v>       0.88628376       0.12115756       0.04988795 </v>
   <v>       0.77718132       0.55417043       0.95701993 </v>
   <v>       0.88979894       0.44810020       0.05056495 </v>
   <v>       0.76792552       0.88769510       0.94231936 </v>
   <v>       0.88806162       0.77461492       0.05027446 </v>
  </varray>
 </structure>
</modeling>
