unknown system                          
           1
     8.860384    5.104235    0.000000
    -8.861733    5.106557    0.000000
     0.000000    0.000000   30.000000
   V    Mo   W    S 
   3   3   3  18
Direct configuration=     1
   0.33333334  0.00000000  0.00000000
   0.33333334  0.33333334  0.00000000
   0.66666669  0.33333334  0.00000000
   0.33333334  0.66666669  0.00000000
   0.66666669  0.00000000  0.00000000
   0.00000000  0.00000000  0.00000000
   1.00000000  0.33333334  0.00000000
   0.00000000  0.66666669  0.00000000
   0.66666669  0.66666669  0.00000000
   0.11068511  0.22244981  0.95539999
   0.22244981  0.11068511  0.04460000
   0.11068511  0.55578315  0.95539999
   0.22244981  0.44401845  0.04460000
   0.11068511  0.88911647  0.95539999
   0.22244981  0.77735180  0.04460000
   0.44401845  0.22244981  0.95539999
   0.55578315  0.11068511  0.04460000
   0.44401845  0.55578315  0.95539999
   0.55578315  0.44401845  0.04460000
   0.44401845  0.88911647  0.95539999
   0.55578315  0.77735180  0.04460000
   0.77735180  0.22244981  0.95539999
   0.88911647  0.11068511  0.04460000
   0.77735180  0.55578315  0.95539999
   0.88911647  0.44401845  0.04460000
   0.77735180  0.88911647  0.95539999
   0.88911647  0.77735180  0.04460000
unknown system                          
           1
     8.670173    4.997260    0.000000
    -8.671495    4.999536    0.000000
     0.000000    0.000000   30.000000
   V    Mo   W    S 
   3   3   3  18
Direct configuration=     2
   0.33382020 -0.00019403  0.00001239
   0.33264576  0.33282300  0.00000961
   0.66582981  0.33174133 -0.00001937
   0.33470989  0.66810442  0.00009228
   0.66649105 -0.00130698 -0.00014674
  -0.00115788  0.00004807 -0.00005551
   1.00002858  0.33167218  0.00017321
   0.00168664  0.66840416  0.00015454
   0.66611336  0.66906533 -0.00017060
   0.11504482  0.22469145  0.95189064
   0.22658426  0.11301090  0.04683512
   0.11021232  0.55496933  0.95082885
   0.22348257  0.44150202  0.04800213
   0.11496784  0.89005988  0.95192535
   0.22326868  0.78154960  0.04811911
   0.44421015  0.22226221  0.95415133
   0.55321512  0.11317706  0.04691978
   0.44324166  0.55143377  0.95196523
   0.55390723  0.44076591  0.04681716
   0.44206351  0.89129877  0.95201017
   0.55572501  0.77714435  0.04930999
   0.77612842  0.22488702  0.95202565
   0.88931984  0.11219353  0.04921979
   0.77587102  0.55177627  0.95198520
   0.88522399  0.44265440  0.04808476
   0.77716441  0.88776781  0.95062901
   0.88841619  0.77671269  0.04923080
unknown system                          
           1
     8.486319    4.897778    0.000000
    -8.487604    4.899991    0.000000
     0.000000    0.000000   30.000000
   V    Mo   W    S 
   3   3   3  18
Direct configuration=     3
   0.33383290 -0.00043612  0.00002190
   0.33234252  0.33270492  0.00006330
   0.66575220  0.33138894 -0.00001250
   0.33514304  0.66857037  0.00005689
   0.66671860 -0.00209151 -0.00017027
  -0.00206500 -0.00019186 -0.00002523
   1.00002562  0.33122141  0.00019023
   0.00222021  0.66883244  0.00011588
   0.66620577  0.67028128 -0.00019569
   0.11502369  0.22485900  0.95187233
   0.22667698  0.11308855  0.04674261
   0.10996169  0.55485912  0.95091822
   0.22328970  0.44134569  0.04799718
   0.11496544  0.88992164  0.95195057
   0.22313488  0.78157186  0.04817132
   0.44420491  0.22222114  0.95423105
   0.55315486  0.11319492  0.04685994
   0.44342245  0.55145342  0.95198608
   0.55395199  0.44093566  0.04667373
   0.44202321  0.89138359  0.95196425
   0.55584626  0.77701359  0.04942950
   0.77631515  0.22500847  0.95204421
   0.88942831  0.11242557  0.04929699
   0.77592288  0.55196249  0.95213462
   0.88540725  0.44270748  0.04800819
   0.77701873  0.88753622  0.95045444
   0.88829020  0.77644618  0.04922015
unknown system                          
           1
     8.280893    4.772707    0.000000
    -8.285850    4.781281    0.000000
     0.000000    0.000000   30.000000
   V    Mo   W    S 
   3   3   3  18
Direct configuration=     4
   0.33340004 -0.00209161  0.00006642
   0.33093431  0.33258193  0.00026539
   0.66617590  0.33055366  0.00003489
   0.33655458  0.67019652 -0.00008195
   0.66820384 -0.00546076 -0.00018561
  -0.00639862 -0.00150855  0.00008080
   0.99995020  0.32982024  0.00015926
   0.00407805  0.67003139 -0.00008523
   0.66706499  0.67544059 -0.00019564
   0.11610836  0.22535206  0.95031858
   0.22767130  0.11364997  0.04768745
   0.10975322  0.55467299  0.94966204
   0.22383882  0.44092039  0.04944306
   0.11617030  0.89081589  0.95058236
   0.22398106  0.78293668  0.04989590
   0.44413738  0.22204945  0.95328895
   0.55263543  0.11351028  0.04793237
   0.44292944  0.55032242  0.95058584
   0.55351464  0.44030108  0.04742509
   0.44159731  0.89223653  0.95033856
   0.55588058  0.77700185  0.05154445
   0.77584253  0.22532535  0.95067175
   0.88923402  0.11239115  0.05124116
   0.77533365  0.55126778  0.95126901
   0.88463743  0.44222038  0.04920887
   0.77695107  0.88758528  0.94803925
   0.88803462  0.77609152  0.05080690
unknown system                          
           1
     8.289581    4.773026    0.000000
    -8.295731    4.783661    0.000000
     0.000000    0.000000   30.000000
   V    Mo   W    S 
   3   3   3  18
Direct configuration=     5
   0.33249969 -0.00553209  0.00015904
   0.32846278  0.33242392  0.00054381
   0.66714705  0.32902881  0.00016146
   0.33877637  0.67325443 -0.00027464
   0.67177466 -0.01161590 -0.00007794
  -0.01547949 -0.00410822  0.00015343
   0.99946713  0.32721509 -0.00000547
   0.00786912  0.67179512 -0.00039040
   0.66882577  0.68517657 -0.00010681
   0.11693268  0.22503516  0.94835094
   0.22744232  0.11348759  0.04886351
   0.11021105  0.55438825  0.94813233
   0.22450860  0.44098974  0.05131824
   0.11743312  0.89265225  0.94893710
   0.22535301  0.78462717  0.05225872
   0.44385684  0.22161933  0.95184043
   0.55243566  0.11297542  0.04934002
   0.44284906  0.54969666  0.94884282
   0.55343137  0.44078097  0.04822033
   0.44202724  0.89349868  0.94816684
   0.55557312  0.77734270  0.05449412
   0.77507889  0.22453278  0.94894686
   0.88836760  0.11184621  0.05392557
   0.77454765  0.55117020  0.95039646
   0.88413098  0.44185724  0.05077457
   0.77712557  0.88812894  0.94425278
   0.88756660  0.77594743  0.05277578
unknown system                          
           1
     8.279425    4.767351    0.000000
    -8.284494    4.776109    0.000000
     0.000000    0.000000   30.000000
   V    Mo   W    S 
   3   3   3  18
Direct configuration=     6
   0.33263037 -0.00633594  0.00011018
   0.32805718  0.33228701  0.00056836
   0.66701925  0.32816216  0.00016354
   0.33864329  0.67394986 -0.00024397
   0.67227501 -0.01153330 -0.00006077
  -0.01657943 -0.00399867  0.00004458
   0.99898540  0.32648617  0.00002270
   0.00927874  0.67181168 -0.00040662
   0.66883481  0.68606865 -0.00015552
   0.11642799  0.22439916  0.94830334
   0.22591831  0.11256700  0.04872313
   0.11070983  0.55426286  0.94808996
   0.22428244  0.44132165  0.05129829
   0.11707209  0.89312808  0.94905210
   0.22550099  0.78454442  0.05245495
   0.44370835  0.22143770  0.95184614
   0.55290816  0.11211453  0.04933534
   0.44343685  0.55045135  0.94888279
   0.55406308  0.44221386  0.04798325
   0.44304981  0.89382940  0.94812068
   0.55528151  0.77746683  0.05480831
   0.77495427  0.22353505  0.94895599
   0.88789333  0.11156960  0.05414687
   0.77453583  0.55207631  0.95070081
   0.88473950  0.44211843  0.05075546
   0.77719788  0.88826926  0.94374802
   0.88738961  0.77601135  0.05275202
unknown system                          
           1
     8.288825    4.771561    0.000000
    -8.294078    4.780638    0.000000
     0.000000    0.000000   30.000000
   V    Mo   W    S 
   3   3   3  18
Direct configuration=     7
   0.33290692 -0.00760708  0.00005929
   0.32738838  0.33202043  0.00066839
   0.66662608  0.32663824  0.00017365
   0.33869819  0.67524827 -0.00018618
   0.67329675 -0.01227746 -0.00003176
  -0.01884588 -0.00382116  0.00000209
   0.99826311  0.32512203  0.00008558
   0.01171611  0.67194579 -0.00046420
   0.66873888  0.68852185 -0.00015831
   0.11604247  0.22395690  0.94811558
   0.22456096  0.11170294  0.04854563
   0.11116910  0.55401884  0.94794868
   0.22407422  0.44160560  0.05132589
   0.11689167  0.89363381  0.94912948
   0.22581825  0.78468629  0.05285988
   0.44358125  0.22123673  0.95182882
   0.55324041  0.11139464  0.04945107
   0.44374423  0.55108125  0.94883540
   0.55461381  0.44341794  0.04771321
   0.44388686  0.89421379  0.94792116
   0.55504477  0.77760957  0.05517125
   0.77486189  0.22277037  0.94881146
   0.88751053  0.11137117  0.05451925
   0.77465811  0.55289436  0.95107219
   0.88528062  0.44232484  0.05080216
   0.77710232  0.88842393  0.94311321
   0.88734444  0.77608056  0.05268701
unknown system                          
           1
     8.293895    4.772509    0.000000
    -8.299083    4.781469    0.000000
     0.000000    0.000000   30.000000
   V    Mo   W    S 
   3   3   3  18
Direct configuration=     8
   0.33305809 -0.00769613  0.00004959
   0.32737129  0.33194226  0.00068361
   0.66638627  0.32626910  0.00016849
   0.33856940  0.67539566 -0.00019205
   0.67325335 -0.01200072 -0.00003171
  -0.01869177 -0.00347649 -0.00002034
   0.99811265  0.32494845  0.00009453
   0.01216938  0.67184370 -0.00047693
   0.66847575  0.68836547 -0.00018814
   0.11600220  0.22396543  0.94815602
   0.22447062  0.11162008  0.04845851
   0.11121742  0.55394730  0.94798438
   0.22401748  0.44161342  0.05125395
   0.11686192  0.89361921  0.94922341
   0.22583508  0.78470221  0.05285925
   0.44358584  0.22121921  0.95188910
   0.55323929  0.11138384  0.04943842
   0.44373708  0.55115539  0.94889818
   0.55467086  0.44348912  0.04762908
   0.44394183  0.89422652  0.94795948
   0.55500243  0.77764520  0.05513449
   0.77491128  0.22278708  0.94883890
   0.88748282  0.11140028  0.05449800
   0.77475729  0.55298534  0.95120334
   0.88531748  0.44235190  0.05074758
   0.77708304  0.88843442  0.94317463
   0.88737606  0.77607722  0.05256615
unknown system                          
           1
     8.280513    4.768951    0.000000
    -8.286496    4.779301    0.000000
     0.000000    0.000000   30.000000
   V    Mo   W    S 
   3   3   3  18
Direct configuration=     9
   0.33345548 -0.00845756  0.00001553
   0.32703138  0.33165290  0.00076764
   0.66572218  0.32483152  0.00016411
   0.33843041  0.67633609 -0.00017250
   0.67371510 -0.01196118 -0.00001226
  -0.01959010 -0.00272856 -0.00005949
   0.99748528  0.32397936  0.00014829
   0.01419751  0.67169858 -0.00051851
   0.66789161  0.68934443 -0.00022850
   0.11582844  0.22384464  0.94809642
   0.22384690  0.11115409  0.04825941
   0.11149864  0.55368364  0.94793280
   0.22385400  0.44173233  0.05116815
   0.11680154  0.89383342  0.94939342
   0.22605183  0.78485468  0.05308421
   0.44352954  0.22108159  0.95194900
   0.55332742  0.11111449  0.04951936
   0.44379261  0.55148692  0.94893833
   0.55497626  0.44404199  0.04739148
   0.44434059  0.89443540  0.94788157
   0.55484684  0.77778572  0.05526803
   0.77495514  0.22255374  0.94877540
   0.88726601  0.11136927  0.05467082
   0.77498760  0.55345338  0.95158743
   0.88555176  0.44245448  0.05069877
   0.77700825  0.88854947  0.94295584
   0.88741226  0.77608963  0.05232513
unknown system                          
           1
     8.277611    4.769165    0.000000
    -8.284066    4.780338    0.000000
     0.000000    0.000000   30.000000
   V    Mo   W    S 
   3   3   3  18
Direct configuration=    10
   0.33253787 -0.00700188  0.00008275
   0.32767489  0.33233707  0.00057879
   0.66744648  0.32813484  0.00019039
   0.33866736  0.67435723 -0.00019631
   0.67288559 -0.01241408 -0.00005451
  -0.01825108 -0.00484538  0.00003108
   0.99886363  0.32603363  0.00002054
   0.00993533  0.67225738 -0.00044593
   0.66946516  0.68778549 -0.00010542
   0.11610350  0.22392865  0.94821957
   0.22480416  0.11195918  0.04863407
   0.11090620  0.55427207  0.94806350
   0.22414925  0.44152201  0.05138876
   0.11691216  0.89353481  0.94899629
   0.22555563  0.78450271  0.05262509
   0.44363003  0.22137665  0.95185522
   0.55326007  0.11144173  0.04927646
   0.44383585  0.55095476  0.94886879
   0.55443189  0.44318445  0.04785053
   0.44367862  0.89406026  0.94805570
   0.55514343  0.77745669  0.05503580
   0.77479973  0.22277821  0.94893497
   0.88769617  0.11136006  0.05432538
   0.77442346  0.55258105  0.95073978
   0.88521585  0.44227466  0.05081619
   0.77714928  0.88829518  0.94326587
   0.88729393  0.77608701  0.05294656
unknown system                          
           1
     8.272108    4.766867    0.000000
    -8.278546    4.778012    0.000000
     0.000000    0.000000   30.000000
   V    Mo   W    S 
   3   3   3  18
Direct configuration=    11
   0.33184862 -0.00634900  0.00012666
   0.32788542  0.33292202  0.00046360
   0.66900019  0.33057798  0.00023084
   0.33884621  0.67310205 -0.00020293
   0.67250190 -0.01316255 -0.00008002
  -0.01809605 -0.00698833  0.00003735
   0.99983772  0.32723037 -0.00007881
   0.00696090  0.67306994 -0.00042451
   0.67113401  0.68748058 -0.00005639
   0.11607557  0.22368146  0.94829903
   0.22486096  0.11218419  0.04878100
   0.11055420  0.55467842  0.94817220
   0.22424864  0.44144726  0.05158015
   0.11688996  0.89348519  0.94869321
   0.22516682  0.78425306  0.05238525
   0.44373975  0.22159744  0.95185838
   0.55344149  0.11135938  0.04901588
   0.44410341  0.55089647  0.94886970
   0.55428614  0.44311989  0.04804583
   0.44350924  0.89386895  0.94816541
   0.55518828  0.77720388  0.05501815
   0.77462160  0.22258681  0.94907240
   0.88788637  0.11124902  0.05415694
   0.77405157  0.55227012  0.95021431
   0.88529648  0.44234388  0.05089513
   0.77718669  0.88803607  0.94323861
   0.88718835  0.77606989  0.05352254
unknown system                          
           1
     8.278491    4.769697    0.000000
    -8.284914    4.780812    0.000000
     0.000000    0.000000   30.000000
   V    Mo   W    S 
   3   3   3  18
Direct configuration=    12
   0.33175200 -0.00670684  0.00014491
   0.32747906  0.33306771  0.00050257
   0.66940430  0.33072169  0.00027762
   0.33923047  0.67326240 -0.00017458
   0.67262351 -0.01373810 -0.00007152
  -0.01884258 -0.00783427 -0.00000303
   0.99993599  0.32682261 -0.00009897
   0.00645604  0.67382442 -0.00041172
   0.67194534  0.68836197 -0.00002193
   0.11579709  0.22334152  0.94833442
   0.22425938  0.11185316  0.04861445
   0.11049783  0.55474799  0.94829140
   0.22409237  0.44147853  0.05159152
   0.11672584  0.89355927  0.94866395
   0.22498828  0.78417131  0.05236589
   0.44382981  0.22167570  0.95198099
   0.55370150  0.11111246  0.04886261
   0.44438054  0.55119545  0.94894780
   0.55451678  0.44361551  0.04787166
   0.44372189  0.89385537  0.94819698
   0.55510964  0.77708392  0.05507505
   0.77462694  0.22233272  0.94914898
   0.88782535  0.11108057  0.05413772
   0.77411559  0.55259778  0.95025593
   0.88573791  0.44267203  0.05083707
   0.77712860  0.88796672  0.94301625
   0.88717499  0.77609283  0.05366387
unknown system                          
           1
     8.281533    4.770931    0.000000
    -8.288122    4.782334    0.000000
     0.000000    0.000000   30.000000
   V    Mo   W    S 
   3   3   3  18
Direct configuration=    13
   0.33205589 -0.00731074  0.00011976
   0.32712243  0.33293931  0.00056225
   0.66904146  0.32968525  0.00028323
   0.33935099  0.67395929 -0.00017193
   0.67280163 -0.01367253 -0.00008525
  -0.01934128 -0.00736996 -0.00006143
   0.99945408  0.32595474 -0.00007439
   0.00756309  0.67398478 -0.00044317
   0.67162699  0.68895545 -0.00006873
   0.11569490  0.22325212  0.94825918
   0.22387884  0.11152714  0.04848599
   0.11063298  0.55458683  0.94831674
   0.22396664  0.44158072  0.05155874
   0.11672201  0.89371404  0.94874139
   0.22512474  0.78427624  0.05252435
   0.44382878  0.22161076  0.95202983
   0.55375590  0.11096259  0.04894508
   0.44442820  0.55140394  0.94897246
   0.55473234  0.44396387  0.04770682
   0.44393713  0.89395490  0.94812409
   0.55500755  0.77715015  0.05519179
   0.77467753  0.22223680  0.94908661
   0.88767494  0.11102731  0.05427669
   0.77425762  0.55288507  0.95049790
   0.88595253  0.44279103  0.05079768
   0.77705266  0.88804049  0.94286313
   0.88721387  0.77612488  0.05356111
unknown system                          
           1
     8.280004    4.770397    0.000000
    -8.286601    4.781815    0.000000
     0.000000    0.000000   30.000000
   V    Mo   W    S 
   3   3   3  18
Direct configuration=    14
   0.33230212 -0.00773458  0.00010582
   0.32677118  0.33288321  0.00061294
   0.66881518  0.32894062  0.00029932
   0.33951612  0.67445195 -0.00015239
   0.67293223 -0.01367006 -0.00008580
  -0.01975883 -0.00718435 -0.00009196
   0.99912252  0.32514799 -0.00004989
   0.00828026  0.67434540 -0.00045763
   0.67151440  0.68948566 -0.00007732
   0.11563140  0.22318431  0.94821742
   0.22358387  0.11130675  0.04835514
   0.11068622  0.55446408  0.94838095
   0.22385433  0.44164253  0.05151973
   0.11673507  0.89385566  0.94878844
   0.22519611  0.78433690  0.05261792
   0.44382858  0.22158679  0.95209503
   0.55380243  0.11082433  0.04899247
   0.44447249  0.55155607  0.94901091
   0.55487025  0.44424514  0.04754869
   0.44409564  0.89401122  0.94806965
   0.55496293  0.77719303  0.05525176
   0.77472433  0.22214882  0.94904538
   0.88756268  0.11094708  0.05435133
   0.77435089  0.55310467  0.95067562
   0.88616496  0.44289325  0.05074020
   0.77697390  0.88808143  0.94274546
   0.88722318  0.77616657  0.05349070
unknown system                          
           1
     8.275521    4.768080    0.000000
    -8.281800    4.778949    0.000000
     0.000000    0.000000   30.000000
   V    Mo   W    S 
   3   3   3  18
Direct configuration=    15
   0.33200710 -0.00733579  0.00011921
   0.32706302  0.33292607  0.00057307
   0.66899232  0.32968880  0.00028329
   0.33930831  0.67389995 -0.00015817
   0.67286503 -0.01378283 -0.00006933
  -0.01946130 -0.00735520 -0.00004980
   0.99957826  0.32604588 -0.00006516
   0.00762833  0.67384554 -0.00043180
   0.67163107  0.68906666 -0.00005148
   0.11570318  0.22324647  0.94826551
   0.22378902  0.11151040  0.04846314
   0.11068366  0.55461196  0.94828592
   0.22398222  0.44157816  0.05155049
   0.11666868  0.89369267  0.94875315
   0.22510762  0.78424929  0.05254205
   0.44381803  0.22162791  0.95203752
   0.55380099  0.11094321  0.04893988
   0.44444237  0.55141152  0.94897979
   0.55473240  0.44402186  0.04768234
   0.44398577  0.89397726  0.94811098
   0.55499382  0.77712947  0.05519785
   0.77466855  0.22220813  0.94908382
   0.88766927  0.11103609  0.05428115
   0.77429560  0.55295902  0.95051247
   0.88599450  0.44284381  0.05081158
   0.77704918  0.88804199  0.94281920
   0.88721746  0.77612616  0.05353323
unknown system                          
           1
     8.280688    4.770276    0.000000
    -8.287159    4.781475    0.000000
     0.000000    0.000000   30.000000
   V    Mo   W    S 
   3   3   3  18
Direct configuration=    16
   0.33208663 -0.00748510  0.00010523
   0.32713560  0.33280233  0.00056085
   0.66903308  0.32954905  0.00027325
   0.33916171  0.67410145 -0.00016951
   0.67297381 -0.01389085 -0.00008902
  -0.01983225 -0.00732538 -0.00008417
   0.99934813  0.32612677 -0.00007525
   0.00797657  0.67353211 -0.00045126
   0.67163418  0.68938520 -0.00008226
   0.11561838  0.22319545  0.94826094
   0.22357305  0.11131361  0.04842690
   0.11076742  0.55460111  0.94826838
   0.22396069  0.44165311  0.05156526
   0.11659523  0.89366187  0.94882973
   0.22513439  0.78425904  0.05257706
   0.44387304  0.22161380  0.95207088
   0.55386754  0.11094798  0.04889645
   0.44450390  0.55152668  0.94900083
   0.55488857  0.44417089  0.04762973
   0.44406428  0.89401512  0.94813431
   0.55493833  0.77710997  0.05523236
   0.77467031  0.22220660  0.94913850
   0.88763418  0.11108221  0.05430111
   0.77433960  0.55303833  0.95061095
   0.88600229  0.44285504  0.05080273
   0.77703439  0.88803784  0.94279029
   0.88723141  0.77613021  0.05347563
unknown system                          
           1
     8.270077    4.766026    0.000000
    -8.275670    4.775705    0.000000
     0.000000    0.000000   30.000000
   V    Mo   W    S 
   3   3   3  18
Direct configuration=    17
   0.33242585 -0.00791418  0.00009395
   0.32672868  0.33277261  0.00062391
   0.66869825  0.32860335  0.00029532
   0.33944041  0.67469719 -0.00014945
   0.67304194 -0.01368757 -0.00008937
  -0.02004102 -0.00701495 -0.00011084
   0.99890971  0.32498727 -0.00004108
   0.00877598  0.67419123 -0.00046947
   0.67139893  0.68976672 -0.00009297
   0.11558660  0.22316549  0.94820488
   0.22341214  0.11115921  0.04830050
   0.11076504  0.55441210  0.94837106
   0.22382144  0.44169249  0.05150607
   0.11670258  0.89387247  0.94885400
   0.22524655  0.78436746  0.05266852
   0.44384646  0.22156413  0.95212469
   0.55383595  0.11080142  0.04899398
   0.44449324  0.55164100  0.94902968
   0.55497687  0.44437968  0.04747862
   0.44417941  0.89405727  0.94806175
   0.55492458  0.77720755  0.05527975
   0.77473845  0.22213564  0.94905522
   0.88751185  0.11096296  0.05438319
   0.77441035  0.55320464  0.95078834
   0.88620086  0.44291051  0.05072293
   0.77694779  0.88810050  0.94270553
   0.88723557  0.77617824  0.05341119
unknown system                          
           1
     8.280338    4.770044    0.000000
    -8.286719    4.781088    0.000000
     0.000000    0.000000   30.000000
   V    Mo   W    S 
   3   3   3  18
Direct configuration=    18
   0.33116813 -0.00629615  0.00014725
   0.32797544  0.33270532  0.00042975
   0.66999891  0.33228891  0.00024102
   0.33800008  0.67217446 -0.00012934
   0.67299893 -0.01460110  0.00000454
  -0.01958137 -0.00790151  0.00001422
   1.00099400  0.32969800 -0.00011019
   0.00609082  0.67104007 -0.00035397
   0.67225361  0.68855438  0.00001670
   0.11570807  0.22323999  0.94840029
   0.22358910  0.11156209  0.04868490
   0.11098775  0.55510794  0.94778934
   0.22435569  0.44149774  0.05172308
   0.11619906  0.89314410  0.94877619
   0.22485496  0.78397635  0.05244323
   0.44397172  0.22180989  0.95193333
   0.55415679  0.11123545  0.04861439
   0.44456470  0.55121283  0.94891176
   0.55471771  0.44383333  0.04795410
   0.44394668  0.89403754  0.94824662
   0.55489107  0.77682876  0.05517844
   0.77434815  0.22220362  0.94931916
   0.88786318  0.11140715  0.05410258
   0.77415736  0.55270975  0.95013090
   0.88550198  0.44276388  0.05114495
   0.77723876  0.88792139  0.94275121
   0.88726319  0.77606028  0.05363543
unknown system                          
           1
     8.279898    4.768586    0.000000
    -8.286700    4.780358    0.000000
     0.000000    0.000000   30.000000
   V    Mo   W    S 
   3   3   3  18
Direct configuration=    19
   0.33122947 -0.00676912  0.00010690
   0.32761137  0.33248710  0.00043582
   0.66987957  0.33201575  0.00021642
   0.33752836  0.67237443 -0.00016875
   0.67301495 -0.01500515 -0.00007256
  -0.02014344 -0.00766578 -0.00006617
   1.00122159  0.33012199 -0.00013918
   0.00711621  0.67055714 -0.00038872
   0.67218229  0.68920342 -0.00005807
   0.11560022  0.22326670  0.94842159
   0.22326358  0.11132796  0.04857553
   0.11116299  0.55506869  0.94772437
   0.22427085  0.44146317  0.05173582
   0.11614836  0.89310050  0.94890922
   0.22491716  0.78406179  0.05252177
   0.44397619  0.22179503  0.95199546
   0.55423078  0.11108245  0.04861419
   0.44460860  0.55135293  0.94899674
   0.55481521  0.44411376  0.04785807
   0.44404673  0.89404139  0.94830437
   0.55480634  0.77680012  0.05523444
   0.77446875  0.22213396  0.94937367
   0.88780444  0.11151182  0.05413405
   0.77432954  0.55297051  0.95026523
   0.88565052  0.44279836  0.05121510
   0.77712174  0.88791088  0.94272442
   0.88735207  0.77609465  0.05353018
unknown system                          
           1
     8.280900    4.768572    0.000000
    -8.287892    4.780672    0.000000
     0.000000    0.000000   30.000000
   V    Mo   W    S 
   3   3   3  18
Direct configuration=    20
   0.33140689 -0.00705114  0.00009997
   0.32736380  0.33226406  0.00047471
   0.66969120  0.33168075  0.00021936
   0.33713125  0.67253517 -0.00012788
   0.67304452 -0.01520418 -0.00002195
  -0.02052393 -0.00734277 -0.00003951
   1.00132039  0.33035156 -0.00009280
   0.00795799  0.67014354 -0.00037761
   0.67201837  0.68958863 -0.00002784
   0.11553892  0.22329705  0.94841800
   0.22305910  0.11117029  0.04846357
   0.11128390  0.55501322  0.94764568
   0.22422084  0.44147478  0.05170399
   0.11611729  0.89307709  0.94901324
   0.22498538  0.78411044  0.05257625
   0.44396683  0.22176977  0.95205466
   0.55426529  0.11099798  0.04859747
   0.44461205  0.55144812  0.94905126
   0.55489418  0.44430489  0.04774683
   0.44410605  0.89405952  0.94829901
   0.55475995  0.77680205  0.05520885
   0.77455107  0.22210486  0.94940620
   0.88772500  0.11155188  0.05408832
   0.77448940  0.55316771  0.95040696
   0.88575893  0.44283795  0.05120841
   0.77706757  0.88793337  0.94264373
   0.88740222  0.77612785  0.05336100
unknown system                          
           1
     8.281839    4.770246    0.000000
    -8.288573    4.781900    0.000000
     0.000000    0.000000   30.000000
   V    Mo   W    S 
   3   3   3  18
Direct configuration=    21
   0.33160314 -0.00729492  0.00009390
   0.32717201  0.33217346  0.00050958
   0.66949038  0.33120187  0.00022663
   0.33710434  0.67283129 -0.00010816
   0.67306673 -0.01517188 -0.00000356
  -0.02070036 -0.00711788 -0.00003639
   1.00114932  0.33000195 -0.00006344
   0.00853126  0.67025534 -0.00038162
   0.67186258  0.68982483 -0.00002130
   0.11550733  0.22330099  0.94839551
   0.22296499  0.11106966  0.04838609
   0.11131452  0.55492543  0.94766084
   0.22415805  0.44150174  0.05167012
   0.11615462  0.89314129  0.94905978
   0.22505389  0.78416890  0.05262172
   0.44395353  0.22173415  0.95209305
   0.55424763  0.11093237  0.04862606
   0.44460264  0.55152064  0.94907850
   0.55495336  0.44442472  0.04766007
   0.44415127  0.89407732  0.94827295
   0.55474218  0.77684025  0.05520904
   0.77460736  0.22208784  0.94939041
   0.88765839  0.11152526  0.05409726
   0.77456931  0.55328092  0.95052345
   0.88585312  0.44286381  0.05116674
   0.77702490  0.88796364  0.94260004
   0.88741796  0.77615149  0.05327264
unknown system                          
           1
     8.287295    4.772936    0.000000
    -8.294456    4.785333    0.000000
     0.000000    0.000000   30.000000
   V    Mo   W    S 
   3   3   3  18
Direct configuration=    22
   0.33114770 -0.00681580  0.00011297
   0.32755154  0.33205627  0.00044643
   0.66982220  0.33230055  0.00021930
   0.33670081  0.67217125 -0.00010697
   0.67301906 -0.01542537  0.00001023
  -0.02048804 -0.00754987  0.00000319
   1.00172769  0.33135134 -0.00008206
   0.00769422  0.66957737 -0.00033908
   0.67226975  0.68943365  0.00001169
   0.11552653  0.22332703  0.94846409
   0.22303119  0.11115331  0.04845340
   0.11136408  0.55514262  0.94751244
   0.22427701  0.44140100  0.05172098
   0.11612440  0.89296944  0.94906208
   0.22497159  0.78413466  0.05251683
   0.44397960  0.22175320  0.95208846
   0.55425923  0.11101132  0.04846511
   0.44463255  0.55138910  0.94906889
   0.55485347  0.44427354  0.04777334
   0.44401721  0.89410193  0.94837271
   0.55473316  0.77671493  0.05517402
   0.77452002  0.22211380  0.94949413
   0.88777264  0.11165589  0.05399227
   0.77448904  0.55313105  0.95033615
   0.88570492  0.44280137  0.05126895
   0.77708871  0.88790093  0.94261341
   0.88742416  0.77613992  0.05334693
unknown system                          
           1
     8.287522    4.772729    0.000000
    -8.294821    4.785362    0.000000
     0.000000    0.000000   30.000000
   V    Mo   W    S 
   3   3   3  18
Direct configuration=    23
   0.33118873 -0.00694335  0.00007716
   0.32751348  0.33161786  0.00039224
   0.66987507  0.33256408  0.00018264
   0.33565660  0.67196537 -0.00013548
   0.67299515 -0.01597386 -0.00004530
  -0.02104359 -0.00737802 -0.00010172
   1.00222233  0.33278147 -0.00012448
   0.00848542  0.66832048 -0.00036802
   0.67229329  0.68991279 -0.00007832
   0.11540418  0.22338824  0.94852491
   0.22277315  0.11093964  0.04843277
   0.11155967  0.55521147  0.94733373
   0.22432726  0.44142218  0.05174982
   0.11599275  0.89278657  0.94920492
   0.22501742  0.78417906  0.05261804
   0.44406051  0.22175726  0.95212140
   0.55437805  0.11102448  0.04839423
   0.44464861  0.55149552  0.94918185
   0.55496306  0.44441819  0.04774568
   0.44403093  0.89410115  0.94843077
   0.55456563  0.77657220  0.05518484
   0.77456175  0.22214840  0.94964095
   0.88773353  0.11186027  0.05395103
   0.77470174  0.55327740  0.95044850
   0.88567603  0.44282113  0.05136042
   0.77704860  0.88785985  0.94264441
   0.88758511  0.77608464  0.05323289
unknown system                          
           1
     8.282214    4.775950    0.000000
    -8.287781    4.785595    0.000000
     0.000000    0.000000   30.000000
   V    Mo   W    S 
   3   3   3  18
Direct configuration=    24
   0.33118537 -0.00693269  0.00007740
   0.32750091  0.33153247  0.00039172
   0.66985855  0.33263041  0.00018070
   0.33547556  0.67189454 -0.00012724
   0.67298070 -0.01606791 -0.00003412
  -0.02110308 -0.00732980 -0.00009206
   1.00236550  0.33306396 -0.00011927
   0.00859749  0.66809404 -0.00035899
   0.67229062  0.68995453 -0.00006788
   0.11539802  0.22340766  0.94853446
   0.22274266  0.11092631  0.04842406
   0.11159659  0.55522482  0.94728628
   0.22434039  0.44141340  0.05174817
   0.11596877  0.89274910  0.94922641
   0.22501859  0.78417895  0.05262545
   0.44406248  0.22175875  0.95212451
   0.55439596  0.11102454  0.04837820
   0.44464436  0.55149500  0.94919616
   0.55496148  0.44443342  0.04774003
   0.44403014  0.89410036  0.94843761