   27   27  100    1
  0.9710400E+02  0.1002848E-08  0.1002848E-08  0.3000000E-08  0.5000000E-15
  1.000000000000000E-004
  CAR 
 unknown system                          
    159     34    120
 
  0.0000000E+00  0.0000000E+00  0.0000000E+00  0.1562500E-01
    1      -17.789253   1.000000
    2      -16.664509   1.000000
    3      -16.641473   1.000000
    4      -16.572720   1.000000
    5      -16.487584   1.000000
    6      -16.419527   1.000000
    7      -16.358264   1.000000
    8      -16.340026   1.000000
    9      -16.154917   1.000000
   10      -16.072347   1.000000
   11      -16.039973   1.000000
   12      -16.010729   1.000000
   13      -15.915117   1.000000
   14      -15.816880   1.000000
   15      -15.541033   1.000000
   16      -15.527889   1.000000
   17      -15.368452   1.000000
   18      -15.338379   1.000000
   19       -9.274439   1.000000
   20       -8.883484   1.000000
   21       -8.840153   1.000000
   22       -8.825590   1.000000
   23       -8.760173   1.000000
   24       -8.684236   1.000000
   25       -8.629897   1.000000
   26       -8.547694   1.000000
   27       -8.465377   1.000000
   28       -8.428057   1.000000
   29       -8.397078   1.000000
   30       -8.333917   1.000000
   31       -8.320534   1.000000
   32       -8.294190   1.000000
   33       -8.290829   1.000000
   34       -8.091339   1.000000
   35       -7.785903   1.000000
   36       -7.764926   1.000000
   37       -7.726633   1.000000
   38       -7.555745   1.000000
   39       -7.531841   1.000000
   40       -7.396663   1.000000
   41       -7.291912   1.000000
   42       -7.214915   1.000000
   43       -7.148624   1.000000
   44       -6.868923   1.000000
   45       -6.818794   1.000000
   46       -6.733372   1.000000
   47       -6.647505   1.000000
   48       -6.606539   1.000000
   49       -6.588711   1.000000
   50       -6.498854   1.000000
   51       -6.470631   1.000000
   52       -6.411790   1.000000
   53       -6.360672   1.000000
   54       -6.321014   1.000000
   55       -6.283555   1.000000
   56       -6.040635   1.000000
   57       -5.993758   1.000000
   58       -5.964760   1.000000
   59       -5.647783   1.000000
   60       -5.583489   1.000000
   61       -5.550350   1.000000
   62       -5.423229   1.000000
   63       -5.309024   1.000000
   64       -5.245031   1.000000
   65       -5.001514   1.000000
   66       -4.955263   1.000000
   67       -4.914113   1.000000
   68       -4.899615   1.000000
   69       -4.824301   1.000000
   70       -4.763548   1.000000
   71       -4.618078   1.000000
   72       -4.549630   1.000000
   73       -4.459629   1.000000
   74       -4.353277   1.000000
   75       -4.220849   1.000000
   76       -3.971983   0.999997
   77       -3.789983   0.999429
   78       -3.531399   0.922819
   79       -3.518885   0.909193
   80       -3.473181   0.844382
   81       -3.323000   0.480337
   82       -2.891631   0.000969
   83       -2.683893   0.000002
   84       -2.667324   0.000001
   85       -2.596586   0.000000
   86       -2.456985   0.000000
   87       -2.329996   0.000000
   88       -2.281124   0.000000
   89       -2.123509   0.000000
   90       -2.069789   0.000000
   91       -1.944253   0.000000
   92       -1.608612   0.000000
   93       -1.446689   0.000000
   94       -1.427563   0.000000
   95       -1.282142   0.000000
   96       -1.271762   0.000000
   97       -0.978834   0.000000
   98       -0.971508   0.000000
   99       -0.628532   0.000000
  100       -0.598945   0.000000
  101       -0.577980   0.000000
  102       -0.517945   0.000000
  103       -0.423477   0.000000
  104       -0.364081   0.000000
  105       -0.243872   0.000000
  106       -0.111969   0.000000
  107        0.015233   0.000000
  108        0.023097   0.000000
  109        0.123114   0.000000
  110        0.197183   0.000000
  111        0.246620   0.000000
  112        0.512287   0.000000
  113        0.568000   0.000000
  114        0.895370   0.000000
  115        0.973985   0.000000
  116        1.031517   0.000000
  117        1.085338   0.000000
  118        1.642515   0.000000
  119        1.831861   0.000000
  120        2.146818   0.000000
 
  0.1250000E+00  0.2775558E-16  0.0000000E+00  0.3125000E-01
    1      -17.764637   1.000000
    2      -16.761021   1.000000
    3      -16.621744   1.000000
    4      -16.607264   1.000000
    5      -16.551383   1.000000
    6      -16.430509   1.000000
    7      -16.290989   1.000000
    8      -16.289035   1.000000
    9      -16.153806   1.000000
   10      -16.081757   1.000000
   11      -16.072931   1.000000
   12      -15.901983   1.000000
   13      -15.898647   1.000000
   14      -15.804926   1.000000
   15      -15.555103   1.000000
   16      -15.546828   1.000000
   17      -15.372396   1.000000
   18      -15.342065   1.000000
   19       -9.277180   1.000000
   20       -9.080802   1.000000
   21       -8.952957   1.000000
   22       -8.916426   1.000000
   23       -8.791629   1.000000
   24       -8.732105   1.000000
   25       -8.657356   1.000000
   26       -8.503758   1.000000
   27       -8.472944   1.000000
   28       -8.419238   1.000000
   29       -8.389992   1.000000
   30       -8.284724   1.000000
   31       -8.225229   1.000000
   32       -8.198316   1.000000
   33       -8.089983   1.000000
   34       -7.928729   1.000000
   35       -7.840794   1.000000
   36       -7.758018   1.000000
   37       -7.628698   1.000000
   38       -7.578328   1.000000
   39       -7.557941   1.000000
   40       -7.348293   1.000000
   41       -7.299865   1.000000
   42       -7.216505   1.000000
   43       -7.149788   1.000000
   44       -6.932181   1.000000
   45       -6.828935   1.000000
   46       -6.795042   1.000000
   47       -6.722700   1.000000
   48       -6.580278   1.000000
   49       -6.563074   1.000000
   50       -6.461381   1.000000
   51       -6.437480   1.000000
   52       -6.400845   1.000000
   53       -6.397249   1.000000
   54       -6.313575   1.000000
   55       -6.240992   1.000000
   56       -6.118826   1.000000
   57       -5.972068   1.000000
   58       -5.896698   1.000000
   59       -5.639706   1.000000
   60       -5.599081   1.000000
   61       -5.521192   1.000000
   62       -5.400927   1.000000
   63       -5.356308   1.000000
   64       -5.331058   1.000000
   65       -5.185448   1.000000
   66       -5.048553   1.000000
   67       -4.937190   1.000000
   68       -4.812884   1.000000
   69       -4.771181   1.000000
   70       -4.723344   1.000000
   71       -4.654550   1.000000
   72       -4.550093   1.000000
   73       -4.354797   1.000000
   74       -4.340482   1.000000
   75       -4.159309   1.000000
   76       -3.879887   0.999950
   77       -3.866566   0.999926
   78       -3.659479   0.990096
   79       -3.645204   0.987094
   80       -3.393880   0.674324
   81       -3.221359   0.221237
   82       -2.888944   0.000909
   83       -2.693622   0.000003
   84       -2.671296   0.000002
   85       -2.559480   0.000000
   86       -2.464641   0.000000
   87       -2.317136   0.000000
   88       -2.252958   0.000000
   89       -2.133509   0.000000
   90       -2.091085   0.000000
   91       -1.928418   0.000000
   92       -1.572372   0.000000
   93       -1.473945   0.000000
   94       -1.400931   0.000000
   95       -1.263617   0.000000
   96       -1.256868   0.000000
   97       -0.991925   0.000000
   98       -0.963015   0.000000
   99       -0.753935   0.000000
  100       -0.692313   0.000000
  101       -0.650418   0.000000
  102       -0.510841   0.000000
  103       -0.443182   0.000000
  104       -0.360115   0.000000
  105       -0.274882   0.000000
  106       -0.264904   0.000000
  107       -0.039806   0.000000
  108        0.061340   0.000000
  109        0.178605   0.000000
  110        0.194474   0.000000
  111        0.312632   0.000000
  112        0.523439   0.000000
  113        0.617010   0.000000
  114        0.897214   0.000000
  115        0.994447   0.000000
  116        1.013141   0.000000
  117        1.107939   0.000000
  118        1.686282   0.000000
  119        1.869070   0.000000
  120        2.181956   0.000000
 
  0.2500000E+00  0.5551115E-16  0.0000000E+00  0.3125000E-01
    1      -17.692666   1.000000
    2      -16.949799   1.000000
    3      -16.669109   1.000000
    4      -16.663627   1.000000
    5      -16.564670   1.000000
    6      -16.418350   1.000000
    7      -16.248991   1.000000
    8      -16.194533   1.000000
    9      -16.170490   1.000000
   10      -16.091848   1.000000
   11      -16.029968   1.000000
   12      -15.867234   1.000000
   13      -15.810433   1.000000
   14      -15.725490   1.000000
   15      -15.596323   1.000000
   16      -15.586468   1.000000
   17      -15.384721   1.000000
   18      -15.352892   1.000000
   19       -9.478834   1.000000
   20       -9.164755   1.000000
   21       -9.092790   1.000000
   22       -9.088290   1.000000
   23       -8.837134   1.000000
   24       -8.813113   1.000000
   25       -8.653509   1.000000
   26       -8.483917   1.000000
   27       -8.423029   1.000000
   28       -8.405215   1.000000
   29       -8.347358   1.000000
   30       -8.239241   1.000000
   31       -8.082575   1.000000
   32       -7.987560   1.000000
   33       -7.975476   1.000000
   34       -7.880208   1.000000
   35       -7.782248   1.000000
   36       -7.673562   1.000000
   37       -7.609326   1.000000
   38       -7.541192   1.000000
   39       -7.410400   1.000000
   40       -7.344855   1.000000
   41       -7.291597   1.000000
   42       -7.211548   1.000000
   43       -7.053399   1.000000
   44       -6.948453   1.000000
   45       -6.865373   1.000000
   46       -6.849622   1.000000
   47       -6.763320   1.000000
   48       -6.619088   1.000000
   49       -6.606485   1.000000
   50       -6.533943   1.000000
   51       -6.453311   1.000000
   52       -6.328831   1.000000
   53       -6.287751   1.000000
   54       -6.223460   1.000000
   55       -6.196691   1.000000
   56       -6.139876   1.000000
   57       -5.979940   1.000000
   58       -5.865671   1.000000
   59       -5.699122   1.000000
   60       -5.690980   1.000000
   61       -5.612272   1.000000
   62       -5.479757   1.000000
   63       -5.476263   1.000000
   64       -5.350915   1.000000
   65       -5.272023   1.000000
   66       -5.207877   1.000000
   67       -4.919882   1.000000
   68       -4.818755   1.000000
   69       -4.749935   1.000000
   70       -4.708888   1.000000
   71       -4.571296   1.000000
   72       -4.427593   1.000000
   73       -4.379866   1.000000
   74       -4.212566   1.000000
   75       -4.184817   1.000000
   76       -3.973248   0.999997
   77       -3.900916   0.999973
   78       -3.657037   0.989630
   79       -3.648635   0.987879
   80       -3.379377   0.636581
   81       -3.146528   0.097288
   82       -2.869713   0.000568
   83       -2.720401   0.000008
   84       -2.641229   0.000001
   85       -2.501244   0.000000
   86       -2.498244   0.000000
   87       -2.275869   0.000000
   88       -2.199650   0.000000
   89       -2.117287   0.000000
   90       -2.116003   0.000000
   91       -1.910337   0.000000
   92       -1.530094   0.000000
   93       -1.489826   0.000000
   94       -1.354665   0.000000
   95       -1.250289   0.000000
   96       -1.217044   0.000000
   97       -1.101636   0.000000
   98       -0.950048   0.000000
   99       -0.895998   0.000000
  100       -0.853785   0.000000
  101       -0.765317   0.000000
  102       -0.603501   0.000000
  103       -0.560219   0.000000
  104       -0.456968   0.000000
  105       -0.310330   0.000000
  106       -0.298723   0.000000
  107       -0.119474   0.000000
  108        0.035751   0.000000
  109        0.173992   0.000000
  110        0.200862   0.000000
  111        0.296494   0.000000
  112        0.569193   0.000000
  113        0.683421   0.000000
  114        0.984431   0.000000
  115        0.986841   0.000000
  116        1.067498   0.000000
  117        1.183040   0.000000
  118        1.808970   0.000000
  119        1.976543   0.000000
  120        2.286345   0.000000
 
  0.3750000E+00  0.0000000E+00  0.0000000E+00  0.3125000E-01
    1      -17.582529   1.000000
    2      -17.152796   1.000000
    3      -16.713467   1.000000
    4      -16.704254   1.000000
    5      -16.540752   1.000000
    6      -16.430860   1.000000
    7      -16.224225   1.000000
    8      -16.187495   1.000000
    9      -16.146216   1.000000
   10      -16.047417   1.000000
   11      -15.959308   1.000000
   12      -15.850758   1.000000
   13      -15.786625   1.000000
   14      -15.681329   1.000000
   15      -15.649129   1.000000
   16      -15.560833   1.000000
   17      -15.400998   1.000000
   18      -15.368404   1.000000
   19       -9.698106   1.000000
   20       -9.261841   1.000000
   21       -9.212201   1.000000
   22       -9.042197   1.000000
   23       -8.917192   1.000000
   24       -8.812158   1.000000
   25       -8.625469   1.000000
   26       -8.474112   1.000000
   27       -8.401763   1.000000
   28       -8.377022   1.000000
   29       -8.297936   1.000000
   30       -8.225415   1.000000
   31       -8.062851   1.000000
   32       -7.977452   1.000000
   33       -7.878428   1.000000
   34       -7.817706   1.000000
   35       -7.806197   1.000000
   36       -7.685216   1.000000
   37       -7.569034   1.000000
   38       -7.463664   1.000000
   39       -7.406513   1.000000
   40       -7.297738   1.000000
   41       -7.156150   1.000000
   42       -7.103525   1.000000
   43       -6.985077   1.000000
   44       -6.926989   1.000000
   45       -6.889747   1.000000
   46       -6.744407   1.000000
   47       -6.705722   1.000000
   48       -6.650548   1.000000
   49       -6.579433   1.000000
   50       -6.557207   1.000000
   51       -6.384020   1.000000
   52       -6.349210   1.000000
   53       -6.283075   1.000000
   54       -6.243890   1.000000
   55       -6.042026   1.000000
   56       -6.029431   1.000000
   57       -6.011753   1.000000
   58       -5.989415   1.000000
   59       -5.920651   1.000000
   60       -5.832144   1.000000
   61       -5.712503   1.000000
   62       -5.679850   1.000000
   63       -5.485952   1.000000
   64       -5.423554   1.000000
   65       -5.281407   1.000000
   66       -5.123110   1.000000
   67       -4.874078   1.000000
   68       -4.840950   1.000000
   69       -4.805236   1.000000
   70       -4.758661   1.000000
   71       -4.630859   1.000000
   72       -4.428307   1.000000
   73       -4.321578   1.000000
   74       -4.223047   1.000000
   75       -4.116843   1.000000
   76       -4.037829   1.000000
   77       -3.876123   0.999944
   78       -3.598212   0.971068
   79       -3.487866   0.867889
   80       -3.419684   0.737073
   81       -3.170854   0.130264
   82       -2.840262   0.000267
   83       -2.722356   0.000009
   84       -2.613316   0.000000
   85       -2.530264   0.000000
   86       -2.454899   0.000000
   87       -2.240082   0.000000
   88       -2.166964   0.000000
   89       -2.119176   0.000000
   90       -2.053228   0.000000
   91       -1.895628   0.000000
   92       -1.542588   0.000000
   93       -1.440055   0.000000
   94       -1.346356   0.000000
   95       -1.294225   0.000000
   96       -1.261518   0.000000
   97       -1.202864   0.000000
   98       -1.036632   0.000000
   99       -0.943987   0.000000
  100       -0.899311   0.000000
  101       -0.805391   0.000000
  102       -0.692729   0.000000
  103       -0.684740   0.000000
  104       -0.485607   0.000000
  105       -0.371207   0.000000
  106       -0.341237   0.000000
  107       -0.168378   0.000000
  108       -0.037967   0.000000
  109        0.153470   0.000000
  110        0.167519   0.000000
  111        0.244001   0.000000
  112        0.601399   0.000000
  113        0.712867   0.000000
  114        0.975668   0.000000
  115        1.110763   0.000000
  116        1.150256   0.000000
  117        1.273240   0.000000
  118        1.993682   0.000000
  119        2.146354   0.000000
  120        2.457116   0.000000
 
  0.5000000E+00  0.1110223E-15  0.0000000E+00  0.1562500E-01
    1      -17.496204   1.000000
    2      -17.272727   1.000000
    3      -16.728616   1.000000
    4      -16.718568   1.000000
    5      -16.525540   1.000000
    6      -16.444037   1.000000
    7      -16.214532   1.000000
    8      -16.193783   1.000000
    9      -16.144471   1.000000
   10      -15.996740   1.000000
   11      -15.921401   1.000000
   12      -15.859322   1.000000
   13      -15.776439   1.000000
   14      -15.706110   1.000000
   15      -15.671021   1.000000
   16      -15.517801   1.000000
   17      -15.409082   1.000000
   18      -15.378273   1.000000
   19       -9.778247   1.000000
   20       -9.302993   1.000000
   21       -9.255211   1.000000
   22       -9.012643   1.000000
   23       -8.946735   1.000000
   24       -8.775835   1.000000
   25       -8.597720   1.000000
   26       -8.524068   1.000000
   27       -8.447659   1.000000
   28       -8.347268   1.000000
   29       -8.275511   1.000000
   30       -8.189850   1.000000
   31       -8.019344   1.000000
   32       -7.942056   1.000000
   33       -7.881233   1.000000
   34       -7.846989   1.000000
   35       -7.802792   1.000000
   36       -7.687511   1.000000
   37       -7.654582   1.000000
   38       -7.497428   1.000000
   39       -7.368478   1.000000
   40       -7.273053   1.000000
   41       -7.016846   1.000000
   42       -6.973523   1.000000
   43       -6.924137   1.000000
   44       -6.900205   1.000000
   45       -6.872650   1.000000
   46       -6.741375   1.000000
   47       -6.697650   1.000000
   48       -6.635341   1.000000
   49       -6.602485   1.000000
   50       -6.573583   1.000000
   51       -6.426535   1.000000
   52       -6.353637   1.000000
   53       -6.218930   1.000000
   54       -6.195595   1.000000
   55       -6.169037   1.000000
   56       -6.099307   1.000000
   57       -5.974691   1.000000
   58       -5.906758   1.000000
   59       -5.886619   1.000000
   60       -5.857951   1.000000
   61       -5.834439   1.000000
   62       -5.694931   1.000000
   63       -5.477387   1.000000
   64       -5.458800   1.000000
   65       -5.381207   1.000000
   66       -5.103508   1.000000
   67       -4.988875   1.000000
   68       -4.852476   1.000000
   69       -4.847254   1.000000
   70       -4.758102   1.000000
   71       -4.587035   1.000000
   72       -4.401765   1.000000
   73       -4.284081   1.000000
   74       -4.206691   1.000000
   75       -4.168787   1.000000
   76       -4.026086   1.000000
   77       -3.838798   0.999840
   78       -3.523651   0.914579
   79       -3.480310   0.856118
   80       -3.398188   0.685221
   81       -3.220745   0.219950
   82       -2.825876   0.000182
   83       -2.717581   0.000007
   84       -2.605583   0.000000
   85       -2.537573   0.000000
   86       -2.438691   0.000000
   87       -2.229577   0.000000
   88       -2.147540   0.000000
   89       -2.112816   0.000000
   90       -2.030292   0.000000
   91       -1.884062   0.000000
   92       -1.527792   0.000000
   93       -1.430790   0.000000
   94       -1.385004   0.000000
   95       -1.348666   0.000000
   96       -1.285127   0.000000
   97       -1.216655   0.000000
   98       -1.085635   0.000000
   99       -0.956907   0.000000
  100       -0.896782   0.000000
  101       -0.799845   0.000000
  102       -0.721305   0.000000
  103       -0.709830   0.000000
  104       -0.520457   0.000000
  105       -0.407281   0.000000
  106       -0.353203   0.000000
  107       -0.179226   0.000000
  108       -0.077757   0.000000
  109        0.128870   0.000000
  110        0.165106   0.000000
  111        0.220153   0.000000
  112        0.611145   0.000000
  113        0.725800   0.000000
  114        0.973952   0.000000
  115        1.154815   0.000000
  116        1.186959   0.000000
  117        1.311784   0.000000
  118        2.203864   0.000000
  119        2.257259   0.000000
  120        2.354699   0.000000
 
  0.0000000E+00  0.1250000E+00  0.0000000E+00  0.3125000E-01
    1      -17.764058   1.000000
    2      -16.765632   1.000000
    3      -16.657765   1.000000
    4      -16.620021   1.000000
    5      -16.475458   1.000000
    6      -16.391843   1.000000
    7      -16.350779   1.000000
    8      -16.300799   1.000000
    9      -16.168856   1.000000
   10      -16.059855   1.000000
   11      -16.011000   1.000000
   12      -15.975052   1.000000
   13      -15.900941   1.000000
   14      -15.794671   1.000000
   15      -15.567819   1.000000
   16      -15.521384   1.000000
   17      -15.383015   1.000000
   18      -15.338705   1.000000
   19       -9.267271   1.000000
   20       -9.115778   1.000000
   21       -8.943678   1.000000
   22       -8.893289   1.000000
   23       -8.777713   1.000000
   24       -8.683247   1.000000
   25       -8.609895   1.000000
   26       -8.595411   1.000000
   27       -8.475332   1.000000
   28       -8.424678   1.000000
   29       -8.381906   1.000000
   30       -8.331535   1.000000
   31       -8.276519   1.000000
   32       -8.119006   1.000000
   33       -8.066082   1.000000
   34       -7.971789   1.000000
   35       -7.834788   1.000000
   36       -7.741084   1.000000
   37       -7.668149   1.000000
   38       -7.584414   1.000000
   39       -7.518974   1.000000
   40       -7.384938   1.000000
   41       -7.292532   1.000000
   42       -7.209678   1.000000
   43       -7.124688   1.000000
   44       -6.920639   1.000000
   45       -6.892662   1.000000
   46       -6.778239   1.000000
   47       -6.663920   1.000000
   48       -6.584532   1.000000
   49       -6.536638   1.000000
   50       -6.519271   1.000000
   51       -6.437159   1.000000
   52       -6.404600   1.000000
   53       -6.362299   1.000000
   54       -6.335384   1.000000
   55       -6.294318   1.000000
   56       -6.075869   1.000000
   57       -5.989291   1.000000
   58       -5.913611   1.000000
   59       -5.643248   1.000000
   60       -5.573886   1.000000
   61       -5.483847   1.000000
   62       -5.389475   1.000000
   63       -5.344314   1.000000
   64       -5.315255   1.000000
   65       -5.165144   1.000000
   66       -5.061290   1.000000
   67       -5.004385   1.000000
   68       -4.921992   1.000000
   69       -4.835285   1.000000
   70       -4.636537   1.000000
   71       -4.609408   1.000000
   72       -4.481150   1.000000
   73       -4.414941   1.000000
   74       -4.237541   1.000000
   75       -4.179525   1.000000
   76       -3.936358   0.999991
   77       -3.862481   0.999917
   78       -3.675645   0.992743
   79       -3.632246   0.983717
   80       -3.375815   0.627088
   81       -3.240790   0.264143
   82       -2.870816   0.000584
   83       -2.738118   0.000014
   84       -2.654607   0.000001
   85       -2.544795   0.000000
   86       -2.438782   0.000000
   87       -2.311494   0.000000
   88       -2.278695   0.000000
   89       -2.152656   0.000000
   90       -2.055369   0.000000
   91       -1.932625   0.000000
   92       -1.589073   0.000000
   93       -1.485875   0.000000
   94       -1.383976   0.000000
   95       -1.281954   0.000000
   96       -1.253622   0.000000
   97       -1.000918   0.000000
   98       -0.946954   0.000000
   99       -0.709302   0.000000
  100       -0.686579   0.000000
  101       -0.622831   0.000000
  102       -0.548730   0.000000
  103       -0.453291   0.000000
  104       -0.376814   0.000000
  105       -0.258686   0.000000
  106       -0.217604   0.000000
  107       -0.095499   0.000000
  108        0.083532   0.000000
  109        0.166397   0.000000
  110        0.230729   0.000000
  111        0.259613   0.000000
  112        0.388167   0.000000
  113        0.753563   0.000000
  114        0.906313   0.000000
  115        0.952231   0.000000
  116        1.027532   0.000000
  117        1.113219   0.000000
  118        1.686100   0.000000
  119        1.871483   0.000000
  120        2.181737   0.000000
 
  0.1250000E+00  0.1250000E+00  0.0000000E+00  0.3125000E-01
    1      -17.715469   1.000000
    2      -16.875216   1.000000
    3      -16.771316   1.000000
    4      -16.590732   1.000000
    5      -16.494555   1.000000
    6      -16.394489   1.000000
    7      -16.310426   1.000000
    8      -16.250962   1.000000
    9      -16.169247   1.000000
   10      -16.070926   1.000000
   11      -16.019644   1.000000
   12      -15.899176   1.000000
   13      -15.814637   1.000000
   14      -15.767441   1.000000
   15      -15.592504   1.000000
   16      -15.554838   1.000000
   17      -15.391841   1.000000
   18      -15.343523   1.000000
   19       -9.357524   1.000000
   20       -9.257365   1.000000
   21       -9.115108   1.000000
   22       -8.952182   1.000000
   23       -8.834071   1.000000
   24       -8.741695   1.000000
   25       -8.611936   1.000000
   26       -8.531194   1.000000
   27       -8.440627   1.000000
   28       -8.383949   1.000000
   29       -8.354484   1.000000
   30       -8.288727   1.000000
   31       -8.157406   1.000000
   32       -8.061059   1.000000
   33       -7.979085   1.000000
   34       -7.906338   1.000000
   35       -7.759323   1.000000
   36       -7.723005   1.000000
   37       -7.609242   1.000000
   38       -7.517232   1.000000
   39       -7.418947   1.000000
   40       -7.336571   1.000000
   41       -7.298093   1.000000
   42       -7.244449   1.000000
   43       -7.116437   1.000000
   44       -6.978038   1.000000
   45       -6.895962   1.000000
   46       -6.800135   1.000000
   47       -6.750115   1.000000
   48       -6.621224   1.000000
   49       -6.559357   1.000000
   50       -6.523196   1.000000
   51       -6.438512   1.000000
   52       -6.348118   1.000000
   53       -6.330085   1.000000
   54       -6.280757   1.000000
   55       -6.194481   1.000000
   56       -6.135914   1.000000
   57       -5.998240   1.000000
   58       -5.846269   1.000000
   59       -5.682648   1.000000
   60       -5.618100   1.000000
   61       -5.549405   1.000000
   62       -5.495585   1.000000
   63       -5.406099   1.000000
   64       -5.336331   1.000000
   65       -5.206613   1.000000
   66       -5.164140   1.000000
   67       -5.074616   1.000000
   68       -4.888217   1.000000
   69       -4.745925   1.000000
   70       -4.658018   1.000000
   71       -4.586120   1.000000
   72       -4.435086   1.000000
   73       -4.287991   1.000000
   74       -4.229357   1.000000
   75       -4.158571   1.000000
   76       -4.031410   1.000000
   77       -3.875024   0.999942
   78       -3.732891   0.997808
   79       -3.627760   0.982383
   80       -3.332301   0.506564
   81       -3.188675   0.158865
   82       -2.865512   0.000511
   83       -2.738801   0.000015
   84       -2.649655   0.000001
   85       -2.529484   0.000000
   86       -2.447410   0.000000
   87       -2.289187   0.000000
   88       -2.220277   0.000000
   89       -2.150670   0.000000
   90       -2.078887   0.000000
   91       -1.917928   0.000000
   92       -1.549458   0.000000
   93       -1.497433   0.000000
   94       -1.358192   0.000000
   95       -1.267183   0.000000
   96       -1.220272   0.000000
   97       -1.035768   0.000000
   98       -0.948181   0.000000
   99       -0.875106   0.000000
  100       -0.797286   0.000000
  101       -0.742879   0.000000
  102       -0.577275   0.000000
  103       -0.507674   0.000000
  104       -0.399229   0.000000
  105       -0.332528   0.000000
  106       -0.276912   0.000000
  107       -0.121931   0.000000
  108        0.044313   0.000000
  109        0.130008   0.000000
  110        0.235454   0.000000
  111        0.284775   0.000000
  112        0.487467   0.000000
  113        0.783756   0.000000
  114        0.924755   0.000000
  115        0.974555   0.000000
  116        1.077133   0.000000
  117        1.137536   0.000000
  118        1.769554   0.000000
  119        1.943546   0.000000
  120        2.251512   0.000000
 
  0.2500000E+00  0.1250000E+00  0.0000000E+00  0.3125000E-01
    1      -17.622745   1.000000
    2      -17.046016   1.000000
    3      -16.880359   1.000000
    4      -16.562025   1.000000
    5      -16.508933   1.000000
    6      -16.400508   1.000000
    7      -16.247916   1.000000
    8      -16.226375   1.000000
    9      -16.149486   1.000000
   10      -16.065400   1.000000
   11      -15.993782   1.000000
   12      -15.864534   1.000000
   13      -15.776018   1.000000
   14      -15.688750   1.000000
   15      -15.629091   1.000000
   16      -15.576856   1.000000
   17      -15.406132   1.000000
   18      -15.351900   1.000000
   19       -9.583957   1.000000
   20       -9.403681   1.000000
   21       -9.152711   1.000000
   22       -9.030979   1.000000
   23       -8.869754   1.000000
   24       -8.709293   1.000000
   25       -8.610864   1.000000
   26       -8.466502   1.000000
   27       -8.383961   1.000000
   28       -8.369329   1.000000
   29       -8.334139   1.000000
   30       -8.235228   1.000000
   31       -8.106378   1.000000
   32       -8.029346   1.000000
   33       -7.980932   1.000000
   34       -7.907248   1.000000
   35       -7.787546   1.000000
   36       -7.631146   1.000000
   37       -7.507311   1.000000
   38       -7.438974   1.000000
   39       -7.394963   1.000000
   40       -7.317569   1.000000
   41       -7.235270   1.000000
   42       -7.148600   1.000000
   43       -7.026396   1.000000
   44       -6.935292   1.000000
   45       -6.857321   1.000000
   46       -6.814344   1.000000
   47       -6.724749   1.000000