       N       E                     dE             d eps       ncg     rms          rms(c)
DAV:   1     0.112402417613E+04    0.11240E+04   -0.35864E+04  8160   0.577E+02
DAV:   2     0.163992765543E+01   -0.11224E+04   -0.10749E+04 11160   0.173E+02
DAV:   3    -0.199485848015E+03   -0.20113E+03   -0.19293E+03 10880   0.826E+01
DAV:   4    -0.208939311970E+03   -0.94535E+01   -0.91730E+01 12120   0.265E+01
DAV:   5    -0.209272097739E+03   -0.33279E+00   -0.33185E+00 11280   0.368E+00    0.275E+01
DAV:   6    -0.237521288841E+03   -0.28249E+02   -0.10922E+02 12360   0.599E+01    0.594E+01
DAV:   7    -0.196667083179E+03    0.40854E+02   -0.17503E+02 13440   0.152E+02    0.202E+01
DAV:   8    -0.189677335762E+03    0.69897E+01   -0.18303E+01 11880   0.129E+01    0.129E+01
DAV:   9    -0.188191305242E+03    0.14860E+01   -0.32365E+00 12960   0.622E+00    0.934E+00
DAV:  10    -0.186927966006E+03    0.12633E+01   -0.17710E+00 13360   0.798E+00    0.213E+00
DAV:  11    -0.187017481457E+03   -0.89515E-01   -0.56491E-01 13520   0.284E+00    0.355E+00
DAV:  12    -0.186954237122E+03    0.63244E-01   -0.60547E-01 12720   0.422E+00    0.341E+00
DAV:  13    -0.186856822536E+03    0.97415E-01   -0.28001E-01 13280   0.291E+00    0.182E+00
DAV:  14    -0.186822155442E+03    0.34667E-01   -0.91759E-02 12920   0.153E+00    0.579E-01
DAV:  15    -0.186817509425E+03    0.46460E-02   -0.12552E-02 11720   0.395E-01    0.381E-01
DAV:  16    -0.186818864773E+03   -0.13553E-02   -0.11531E-02 12960   0.572E-01    0.645E-01
DAV:  17    -0.186815309556E+03    0.35552E-02   -0.86795E-03 12720   0.506E-01    0.194E-01
DAV:  18    -0.186815072615E+03    0.23694E-03   -0.14231E-03 11560   0.155E-01    0.963E-02
DAV:  19    -0.186815093659E+03   -0.21044E-04   -0.58003E-04  9760   0.674E-02
   1 F= -.18681509E+03 E0= -.18664368E+03  d E =-.186815E+03
       N       E                     dE             d eps       ncg     rms          rms(c)
DAV:   1    -0.187481598657E+03   -0.66653E+00   -0.27580E+02  8160   0.353E+01    0.469E+00
DAV:   2    -0.189422211608E+03   -0.19406E+01   -0.20273E+01 11960   0.154E+01    0.909E+00
DAV:   3    -0.189316024311E+03    0.10619E+00   -0.39295E+00 12400   0.122E+01    0.647E+00
DAV:   4    -0.188725569128E+03    0.59046E+00   -0.63499E-01 12560   0.463E+00    0.174E+00
DAV:   5    -0.188751202018E+03   -0.25633E-01   -0.35549E-01 12480   0.243E+00    0.337E+00
DAV:   6    -0.188725676535E+03    0.25525E-01   -0.54243E-01 12320   0.397E+00    0.290E+00
DAV:   7    -0.188661831819E+03    0.63845E-01   -0.17852E-01 12600   0.219E+00    0.113E+00
DAV:   8    -0.188640066958E+03    0.21765E-01   -0.48965E-02  9960   0.767E-01    0.462E-01
DAV:   9    -0.188638839260E+03    0.12277E-02   -0.80769E-03 11640   0.376E-01    0.388E-01
DAV:  10    -0.188638744649E+03    0.94612E-04   -0.51667E-03 12920   0.403E-01    0.341E-01
DAV:  11    -0.188637865301E+03    0.87935E-03   -0.29755E-03 11440   0.256E-01    0.108E-01
DAV:  12    -0.188638138347E+03   -0.27305E-03   -0.79511E-04 11240   0.840E-02    0.839E-02
DAV:  13    -0.188638137087E+03    0.12592E-05   -0.23226E-04  6720   0.591E-02
   2 F= -.18863814E+03 E0= -.18849830E+03  d E =-.182304E+01
       N       E                     dE             d eps       ncg     rms          rms(c)
DAV:   1    -0.190596555765E+03   -0.19584E+01   -0.32045E+01  9160   0.144E+01    0.447E+00
DAV:   2    -0.190524534228E+03    0.72022E-01   -0.27865E+00 12360   0.944E+00    0.712E+00
DAV:   3    -0.190071801480E+03    0.45273E+00   -0.13144E+00 12280   0.863E+00    0.424E+00
DAV:   4    -0.189855780658E+03    0.21602E+00   -0.69617E-01 13120   0.438E+00    0.248E+00
DAV:   5    -0.189765198394E+03    0.90582E-01   -0.29686E-01 12240   0.201E+00    0.921E-01
DAV:   6    -0.189753904542E+03    0.11294E-01   -0.48994E-02 11680   0.108E+00    0.747E-01
DAV:   7    -0.189750309284E+03    0.35953E-02   -0.13978E-02 11360   0.673E-01    0.269E-01
DAV:   8    -0.189749802886E+03    0.50640E-03   -0.20738E-03 11720   0.187E-01    0.137E-01
DAV:   9    -0.189750234766E+03   -0.43188E-03   -0.12160E-03 11760   0.168E-01    0.193E-01
DAV:  10    -0.189750409543E+03   -0.17478E-03   -0.17176E-03 10200   0.269E-01    0.232E-01
DAV:  11    -0.189749927804E+03    0.48174E-03   -0.79691E-04  8760   0.170E-01    0.253E-02
DAV:  12    -0.189749974553E+03   -0.46748E-04   -0.70236E-05  5960   0.285E-02
   3 F= -.18974997E+03 E0= -.18963157E+03  d E =-.111184E+01
       N       E                     dE             d eps       ncg     rms          rms(c)
DAV:   1    -0.191349337111E+03   -0.15994E+01   -0.79786E+01  8160   0.203E+01    0.461E+00
DAV:   2    -0.191153170610E+03    0.19617E+00   -0.53862E+00 13000   0.755E+00    0.445E+00
DAV:   3    -0.191298988580E+03   -0.14582E+00   -0.14962E+00 12360   0.905E+00    0.652E+00
DAV:   4    -0.190899589334E+03    0.39940E+00   -0.12577E+00 13000   0.769E+00    0.274E+00
DAV:   5    -0.190780564323E+03    0.11903E+00   -0.30639E-01 12120   0.227E+00    0.897E-01
DAV:   6    -0.190764593156E+03    0.15971E-01   -0.69994E-02 10720   0.970E-01    0.509E-01
DAV:   7    -0.190769744017E+03   -0.51509E-02   -0.28949E-02 12000   0.105E+00    0.933E-01
DAV:   8    -0.190761542500E+03    0.82015E-02   -0.12460E-02 11760   0.771E-01    0.166E-01
DAV:   9    -0.190761937562E+03   -0.39506E-03   -0.17305E-03 11720   0.209E-01    0.206E-01
DAV:  10    -0.190762082172E+03   -0.14461E-03   -0.21198E-03 12000   0.303E-01    0.228E-01
DAV:  11    -0.190761635463E+03    0.44671E-03   -0.10706E-03 10240   0.200E-01    0.533E-02
DAV:  12    -0.190761633690E+03    0.17721E-05   -0.12207E-04  6200   0.464E-02
   4 F= -.19076163E+03 E0= -.19065819E+03  d E =-.101166E+01
       N       E                     dE             d eps       ncg     rms          rms(c)
DAV:   1    -0.192111885263E+03   -0.13502E+01   -0.16740E+02  8160   0.288E+01    0.562E+00
DAV:   2    -0.191840582183E+03    0.27130E+00   -0.92079E+00 11320   0.795E+00    0.375E+00
DAV:   3    -0.191970290059E+03   -0.12971E+00   -0.19361E+00 12080   0.805E+00    0.755E+00
DAV:   4    -0.191773454072E+03    0.19684E+00   -0.25342E+00 11160   0.106E+01    0.459E+00
DAV:   5    -0.191578103625E+03    0.19535E+00   -0.65482E-01 12440   0.575E+00    0.332E+00
DAV:   6    -0.191440320923E+03    0.13778E+00   -0.27022E-01 12480   0.390E+00    0.137E+00
DAV:   7    -0.191423718383E+03    0.16603E-01   -0.58330E-02 12320   0.128E+00    0.546E-01
DAV:   8    -0.191419091728E+03    0.46267E-02   -0.10316E-02 10680   0.451E-01    0.232E-01
DAV:   9    -0.191421089783E+03   -0.19981E-02   -0.51463E-03 12720   0.474E-01    0.462E-01
DAV:  10    -0.191419324099E+03    0.17657E-02   -0.44265E-03 11600   0.467E-01    0.141E-01
DAV:  11    -0.191419132272E+03    0.19183E-03   -0.75333E-04 10560   0.132E-01    0.527E-02
DAV:  12    -0.191419120971E+03    0.11301E-04   -0.12038E-04  6720   0.480E-02
   5 F= -.19141912E+03 E0= -.19131762E+03  d E =-.657487E+00
       N       E                     dE             d eps       ncg     rms          rms(c)
DAV:   1    -0.191460232120E+03   -0.41100E-01   -0.31406E+00  8160   0.376E+00    0.546E-01
DAV:   2    -0.191495970958E+03   -0.35739E-01   -0.19806E-01 13280   0.229E+00    0.162E+00
DAV:   3    -0.191468760352E+03    0.27211E-01   -0.55468E-02 12560   0.174E+00    0.363E-01
DAV:   4    -0.191470030931E+03   -0.12706E-02   -0.10761E-02 11640   0.685E-01    0.582E-01
DAV:   5    -0.191466826358E+03    0.32046E-02   -0.79151E-03 10400   0.594E-01    0.221E-01
DAV:   6    -0.191466375718E+03    0.45064E-03   -0.24391E-03 11200   0.218E-01    0.822E-02
DAV:   7    -0.191466228963E+03    0.14675E-03   -0.62105E-04  9320   0.905E-02    0.362E-02
DAV:   8    -0.191466214423E+03    0.14540E-04   -0.10359E-04  6760   0.388E-02
   6 F= -.19146621E+03 E0= -.19136296E+03  d E =-.470935E-01
       N       E                     dE             d eps       ncg     rms          rms(c)
DAV:   1    -0.191519145616E+03   -0.52917E-01   -0.63150E+00  8160   0.531E+00    0.623E-01
DAV:   2    -0.191540867638E+03   -0.21722E-01   -0.19161E-01 13520   0.158E+00    0.118E+00
DAV:   3    -0.191529047594E+03    0.11820E-01   -0.54353E-02 12320   0.167E+00    0.692E-01
DAV:   4    -0.191526646657E+03    0.24009E-02   -0.16048E-02 11760   0.817E-01    0.568E-01
DAV:   5    -0.191524072861E+03    0.25738E-02   -0.10768E-02 10920   0.708E-01    0.347E-01
DAV:   6    -0.191523058173E+03    0.10147E-02   -0.40384E-03 10440   0.344E-01    0.140E-01
DAV:   7    -0.191523007677E+03    0.50496E-04   -0.16520E-03 11960   0.223E-01    0.166E-01
DAV:   8    -0.191522786804E+03    0.22087E-03   -0.79727E-04  8600   0.196E-01    0.748E-02
DAV:   9    -0.191522738017E+03    0.48787E-04   -0.12598E-04  5920   0.719E-02
   7 F= -.19152274E+03 E0= -.19141796E+03  d E =-.565236E-01
       N       E                     dE             d eps       ncg     rms          rms(c)
DAV:   1    -0.191543058326E+03   -0.20272E-01   -0.68209E-01  8160   0.178E+00    0.268E-01
DAV:   2    -0.191545950162E+03   -0.28918E-02   -0.27480E-02 13440   0.748E-01    0.520E-01
DAV:   3    -0.191543185824E+03    0.27643E-02   -0.85683E-03 11840   0.668E-01    0.204E-01
DAV:   4    -0.191542735534E+03    0.45029E-03   -0.22548E-03 12000   0.254E-01    0.152E-01
DAV:   5    -0.191542836140E+03   -0.10061E-03   -0.18421E-03 11080   0.269E-01    0.219E-01
DAV:   6    -0.191542422589E+03    0.41355E-03   -0.11606E-03  9280   0.229E-01    0.696E-02
DAV:   7    -0.191542380957E+03    0.41632E-04   -0.17431E-04  5800   0.709E-02
   8 F= -.19154238E+03 E0= -.19143725E+03  d E =-.196429E-01
       N       E                     dE             d eps       ncg     rms          rms(c)
DAV:   1    -0.191584942030E+03   -0.42519E-01   -0.31076E+00  8160   0.373E+00    0.421E-01
DAV:   2    -0.191599499020E+03   -0.14557E-01   -0.96997E-02 13600   0.148E+00    0.988E-01
DAV:   3    -0.191588950506E+03    0.10549E-01   -0.27610E-02 12880   0.119E+00    0.302E-01
DAV:   4    -0.191588826798E+03    0.12371E-03   -0.54534E-03 11200   0.421E-01    0.351E-01
DAV:   5    -0.191587969250E+03    0.85755E-03   -0.38969E-03 11400   0.425E-01    0.222E-01
DAV:   6    -0.191587658316E+03    0.31093E-03   -0.17050E-03 10320   0.244E-01    0.102E-01
DAV:   7    -0.191587580469E+03    0.77847E-04   -0.70581E-04 10720   0.142E-01
   9 F= -.19158758E+03 E0= -.19148228E+03  d E =-.451995E-01
       N       E                     dE             d eps       ncg     rms          rms(c)
DAV:   1    -0.191528597960E+03    0.59060E-01   -0.48329E+00  8160   0.464E+00    0.486E-01
DAV:   2    -0.191546642138E+03   -0.18044E-01   -0.13059E-01 13480   0.148E+00    0.106E+00
DAV:   3    -0.191535250361E+03    0.11392E-01   -0.35496E-02 12200   0.130E+00    0.483E-01
DAV:   4    -0.191535222249E+03    0.28113E-04   -0.11829E-02 11240   0.661E-01    0.510E-01
DAV:   5    -0.191532885849E+03    0.23364E-02   -0.61215E-03 11040   0.561E-01    0.220E-01
DAV:   6    -0.191532500009E+03    0.38584E-03   -0.20728E-03 11520   0.266E-01    0.117E-01
DAV:   7    -0.191532754780E+03   -0.25477E-03   -0.15339E-03 11480   0.247E-01    0.209E-01
DAV:   8    -0.191532312171E+03    0.44261E-03   -0.86590E-04  8720   0.205E-01    0.470E-02
DAV:   9    -0.191532301233E+03    0.10938E-04   -0.75982E-05  6000   0.444E-02
  10 F= -.19153230E+03 E0= -.19142674E+03  d E =0.552792E-01
       N       E                     dE             d eps       ncg     rms          rms(c)
DAV:   1    -0.191464874153E+03    0.67438E-01   -0.11757E+01  8160   0.724E+00    0.812E-01
DAV:   2    -0.191513616789E+03   -0.48743E-01   -0.33659E-01 13000   0.265E+00    0.178E+00
DAV:   3    -0.191479799318E+03    0.33817E-01   -0.96052E-02 11520   0.215E+00    0.823E-01
DAV:   4    -0.191478723630E+03    0.10757E-02   -0.35128E-02 12200   0.110E+00    0.803E-01
DAV:   5    -0.191473611813E+03    0.51118E-02   -0.17619E-02 11520   0.924E-01    0.432E-01
DAV:   6    -0.191471503703E+03    0.21081E-02   -0.60451E-03 12160   0.498E-01    0.161E-01
DAV:   7    -0.191471302305E+03    0.20140E-03   -0.20250E-03 11880   0.177E-01    0.829E-02
DAV:   8    -0.191471164858E+03    0.13745E-03   -0.43196E-04 10280   0.941E-02    0.573E-02
DAV:   9    -0.191471171138E+03   -0.62796E-05   -0.20123E-04  7040   0.958E-02
  11 F= -.19147117E+03 E0= -.19136564E+03  d E =0.611301E-01
       N       E                     dE             d eps       ncg     rms          rms(c)
DAV:   1    -0.191454487255E+03    0.16678E-01   -0.33850E+00  8160   0.385E+00    0.375E-01
DAV:   2    -0.191463423702E+03   -0.89364E-02   -0.75366E-02 12680   0.967E-01    0.727E-01
DAV:   3    -0.191460079936E+03    0.33438E-02   -0.23402E-02 12480   0.994E-01    0.552E-01
DAV:   4    -0.191457643710E+03    0.24362E-02   -0.77037E-03 11920   0.500E-01    0.206E-01
DAV:   5    -0.191456932708E+03    0.71100E-03   -0.15248E-03 10120   0.155E-01    0.829E-02
DAV:   6    -0.191457103740E+03   -0.17103E-03   -0.91376E-04 11520   0.156E-01    0.131E-01
DAV:   7    -0.191456976981E+03    0.12676E-03   -0.73434E-04  9440   0.195E-01    0.966E-02
DAV:   8    -0.191456872852E+03    0.10413E-03   -0.19554E-04  6240   0.931E-02    0.337E-02
DAV:   9    -0.191456873687E+03   -0.83444E-06   -0.57690E-05  5800   0.487E-02
  12 F= -.19145687E+03 E0= -.19135044E+03  d E =0.142975E-01
       N       E                     dE             d eps       ncg     rms          rms(c)
DAV:   1    -0.191476468875E+03   -0.19596E-01   -0.14903E+00  8160   0.259E+00    0.308E-01
DAV:   2    -0.191487155241E+03   -0.10686E-01   -0.61433E-02 12240   0.108E+00    0.906E-01
DAV:   3    -0.191479923723E+03    0.72315E-02   -0.22535E-02 12240   0.995E-01    0.336E-01
DAV:   4    -0.191479333334E+03    0.59039E-03   -0.40362E-03 10320   0.360E-01    0.235E-01
DAV:   5    -0.191478839826E+03    0.49351E-03   -0.17801E-03 10600   0.299E-01    0.139E-01
DAV:   6    -0.191478647577E+03    0.19225E-03   -0.67961E-04 10440   0.151E-01    0.654E-02
DAV:   7    -0.191478655815E+03   -0.82382E-05   -0.32133E-04  7560   0.987E-02
  13 F= -.19147866E+03 E0= -.19136969E+03  d E =-.217821E-01
       N       E                     dE             d eps       ncg     rms          rms(c)
DAV:   1    -0.191485736509E+03   -0.70889E-02   -0.19629E-01  8160   0.959E-01    0.131E-01
DAV:   2    -0.191486658197E+03   -0.92169E-03   -0.75281E-03 13600   0.387E-01    0.276E-01
DAV:   3    -0.191485922429E+03    0.73577E-03   -0.24259E-03 11240   0.346E-01    0.119E-01
DAV:   4    -0.191485893970E+03    0.28459E-04   -0.73023E-04  8680   0.171E-01
  14 F= -.19148589E+03 E0= -.19137625E+03  d E =-.723816E-02
       N       E                     dE             d eps       ncg     rms          rms(c)
DAV:   1    -0.191499070506E+03   -0.13148E-01   -0.65575E-01  8160   0.175E+00    0.279E-01
DAV:   2    -0.191508615387E+03   -0.95449E-02   -0.39159E-02 13240   0.104E+00    0.985E-01
DAV:   3    -0.191499712744E+03    0.89026E-02   -0.20878E-02 11640   0.949E-01    0.225E-01
DAV:   4    -0.191499295984E+03    0.41676E-03   -0.20067E-03 10360   0.227E-01    0.128E-01
DAV:   5    -0.191499293431E+03    0.25536E-05   -0.12770E-03 11320   0.237E-01    0.161E-01
DAV:   6    -0.191499015902E+03    0.27753E-03   -0.76833E-04  8800   0.188E-01    0.558E-02
DAV:   7    -0.191498981408E+03    0.34494E-04   -0.16200E-04  6040   0.650E-02
  15 F= -.19149898E+03 E0= -.19138753E+03  d E =-.130874E-01
       N       E                     dE             d eps       ncg     rms          rms(c)
DAV:   1    -0.191507561271E+03   -0.85454E-02   -0.63657E-01  8160   0.170E+00    0.242E-01
DAV:   2    -0.191515371520E+03   -0.78102E-02   -0.31830E-02 12720   0.949E-01    0.868E-01
DAV:   3    -0.191508121548E+03    0.72500E-02   -0.15633E-02 11040   0.817E-01    0.188E-01
DAV:   4    -0.191508045650E+03    0.75898E-04   -0.16678E-03  9680   0.249E-01    0.165E-01
DAV:   5    -0.191507859673E+03    0.18598E-03   -0.12078E-03 10520   0.246E-01    0.126E-01
DAV:   6    -0.191507699090E+03    0.16058E-03   -0.53050E-04  8760   0.139E-01    0.402E-02
DAV:   7    -0.191507685120E+03    0.13970E-04   -0.13359E-04  6680   0.547E-02
  16 F= -.19150769E+03 E0= -.19139528E+03  d E =-.870371E-02
       N       E                     dE             d eps       ncg     rms          rms(c)
DAV:   1    -0.191523679674E+03   -0.15981E-01   -0.10388E+00  8160   0.219E+00    0.264E-01
DAV:   2    -0.191526957220E+03   -0.32775E-02   -0.31640E-02 13320   0.728E-01    0.507E-01
DAV:   3    -0.191524879878E+03    0.20773E-02   -0.10662E-02 11560   0.670E-01    0.299E-01
DAV:   4    -0.191524531863E+03    0.34801E-03   -0.40317E-03 10920   0.381E-01    0.267E-01
DAV:   5    -0.191524008594E+03    0.52327E-03   -0.23049E-03  9600   0.321E-01    0.167E-01
DAV:   6    -0.191523733192E+03    0.27540E-03   -0.10507E-03  9920   0.194E-01    0.756E-02
DAV:   7    -0.191523816360E+03   -0.83168E-04   -0.58697E-04  8360   0.150E-01
  17 F= -.19152382E+03 E0= -.19141030E+03  d E =-.161312E-01
       N       E                     dE             d eps       ncg     rms          rms(c)
DAV:   1    -0.191555748701E+03   -0.32016E-01   -0.25357E+00  8160   0.344E+00    0.419E-01
DAV:   2    -0.191561631024E+03   -0.58823E-02   -0.78450E-02 12440   0.943E-01    0.615E-01
DAV:   3    -0.191560793519E+03    0.83751E-03   -0.23130E-02 12320   0.101E+00    0.604E-01
DAV:   4    -0.191558269116E+03    0.25244E-02   -0.10659E-02 11600   0.651E-01    0.367E-01
DAV:   5    -0.191557313150E+03    0.95597E-03   -0.61364E-03  9920   0.485E-01    0.277E-01
DAV:   6    -0.191556596813E+03    0.71634E-03   -0.25601E-03 11920   0.298E-01    0.104E-01
DAV:   7    -0.191556482767E+03    0.11405E-03   -0.69718E-04  9880   0.121E-01    0.708E-02
DAV:   8    -0.191556465667E+03    0.17100E-04   -0.29589E-04  7960   0.115E-01
  18 F= -.19155647E+03 E0= -.19144115E+03  d E =-.326493E-01
       N       E                     dE             d eps       ncg     rms          rms(c)
DAV:   1    -0.191544952928E+03    0.11530E-01   -0.37996E-01  8160   0.132E+00    0.137E-01
DAV:   2    -0.191545581357E+03   -0.62843E-03   -0.93822E-03 12240   0.283E-01    0.162E-01
DAV:   3    -0.191545702430E+03   -0.12107E-03   -0.24798E-03 12360   0.306E-01    0.228E-01
DAV:   4    -0.191545287118E+03    0.41531E-03   -0.13805E-03  9240   0.234E-01    0.969E-02
DAV:   5    -0.191545173309E+03    0.11381E-03   -0.31676E-04  6640   0.935E-02    0.608E-02
DAV:   6    -0.191545225680E+03   -0.52371E-04   -0.36162E-04  8120   0.126E-01
  19 F= -.19154523E+03 E0= -.19143009E+03  d E =0.112400E-01
       N       E                     dE             d eps       ncg     rms          rms(c)
DAV:   1    -0.191543738644E+03    0.14347E-02   -0.12405E+00  8160   0.232E+00    0.266E-01
DAV:   2    -0.191552983839E+03   -0.92452E-02   -0.39739E-02 13480   0.107E+00    0.901E-01
DAV:   3    -0.191544898787E+03    0.80851E-02   -0.17998E-02 11560   0.902E-01    0.206E-01
DAV:   4    -0.191545029694E+03   -0.13091E-03   -0.27094E-03 10520   0.305E-01    0.236E-01
DAV:   5    -0.191544596816E+03    0.43288E-03   -0.17487E-03 10160   0.285E-01    0.136E-01
DAV:   6    -0.191544527170E+03    0.69646E-04   -0.74240E-04  8800   0.171E-01
  20 F= -.19154453E+03 E0= -.19142951E+03  d E =0.698510E-03
       N       E                     dE             d eps       ncg     rms          rms(c)
DAV:   1    -0.191544087284E+03    0.50953E-03   -0.19608E-02  8160   0.340E-01    0.102E-01
DAV:   2    -0.191546839069E+03   -0.27518E-02   -0.67665E-03 12080   0.533E-01    0.525E-01
DAV:   3    -0.191544006653E+03    0.28324E-02   -0.47313E-03 10120   0.456E-01    0.659E-02
DAV:   4    -0.191544008825E+03   -0.21720E-05   -0.16487E-04  6080   0.855E-02
  21 F= -.19154401E+03 E0= -.19142882E+03  d E =0.518345E-03
       N       E                     dE             d eps       ncg     rms          rms(c)
DAV:   1    -0.191543577408E+03    0.42924E-03   -0.48572E-04 11320   0.602E-02    0.148E-02
DAV:   2    -0.191543616466E+03   -0.39058E-04   -0.86599E-05  6440   0.628E-02
  22 F= -.19154362E+03 E0= -.19142845E+03  d E =0.392358E-03
       N       E                     dE             d eps       ncg     rms          rms(c)
DAV:   1    -0.191573325896E+03   -0.29748E-01   -0.18938E+00  8160   0.296E+00    0.360E-01
DAV:   2    -0.191580077813E+03   -0.67519E-02   -0.62576E-02 12440   0.917E-01    0.735E-01
DAV:   3    -0.191576861830E+03    0.32160E-02   -0.22497E-02 12160   0.957E-01    0.475E-01
DAV:   4    -0.191574824925E+03    0.20369E-02   -0.57305E-03 10920   0.425E-01    0.193E-01
DAV:   5    -0.191574916959E+03   -0.92034E-04   -0.33053E-03 11320   0.355E-01    0.266E-01
DAV:   6    -0.191574359664E+03    0.55729E-03   -0.22530E-03 10240   0.302E-01    0.123E-01
DAV:   7    -0.191574400414E+03   -0.40750E-04   -0.10146E-03  9520   0.201E-01    0.141E-01
DAV:   8    -0.191574171228E+03    0.22919E-03   -0.40222E-04  8080   0.139E-01    0.234E-02
DAV:   9    -0.191574170946E+03    0.28261E-06   -0.37122E-05  6320   0.280E-02
  23 F= -.19157417E+03 E0= -.19145868E+03  d E =-.305545E-01
       N       E                     dE             d eps       ncg     rms          rms(c)
DAV:   1    -0.191564575449E+03    0.95958E-02   -0.17596E-01  8160   0.897E-01    0.101E-01
DAV:   2    -0.191565073568E+03   -0.49812E-03   -0.50107E-03 11320   0.253E-01    0.191E-01
DAV:   3    -0.191564885804E+03    0.18776E-03   -0.17322E-03 10080   0.257E-01    0.145E-01
DAV:   4    -0.191564725549E+03    0.16025E-03   -0.52691E-04  8160   0.136E-01    0.702E-02
DAV:   5    -0.191564700155E+03    0.25394E-04   -0.23939E-04  6320   0.111E-01
  24 F= -.19156470E+03 E0= -.19144892E+03  d E =0.947079E-02
       N       E                     dE             d eps       ncg     rms          rms(c)
DAV:   1    -0.191497287604E+03    0.67438E-01   -0.10320E+01  8160   0.687E+00    0.830E-01
DAV:   2    -0.191574275478E+03   -0.76988E-01   -0.39314E-01 12560   0.283E+00    0.292E+00
DAV:   3    -0.191513124296E+03    0.61151E-01   -0.18118E-01 12160   0.263E+00    0.754E-01
DAV:   4    -0.191509298491E+03    0.38258E-02   -0.19135E-02 11480   0.780E-01    0.548E-01
DAV:   5    -0.191507039110E+03    0.22594E-02   -0.12865E-02 12200   0.818E-01    0.443E-01
DAV:   6    -0.191505609928E+03    0.14292E-02   -0.73936E-03 11960   0.515E-01    0.208E-01
DAV:   7    -0.191505217620E+03    0.39231E-03   -0.28531E-03 12280   0.297E-01    0.221E-01
DAV:   8    -0.191504767638E+03    0.44998E-03   -0.11939E-03  8960   0.223E-01    0.559E-02
DAV:   9    -0.191504757594E+03    0.10045E-04   -0.12159E-04  6120   0.557E-02
  25 F= -.19150476E+03 E0= -.19139164E+03  d E =0.599426E-01
       N       E                     dE             d eps       ncg     rms          rms(c)
DAV:   1    -0.191563337792E+03   -0.58570E-01   -0.11186E+01  8160   0.715E+00    0.895E-01
DAV:   2    -0.191638954000E+03   -0.75616E-01   -0.42975E-01 12640   0.313E+00    0.245E+00
DAV:   3    -0.191580231813E+03    0.58722E-01   -0.15729E-01 12080   0.264E+00    0.886E-01
DAV:   4    -0.191574860053E+03    0.53718E-02   -0.25286E-02 11240   0.967E-01    0.561E-01
DAV:   5    -0.191572719551E+03    0.21405E-02   -0.16401E-02 12480   0.900E-01    0.478E-01
DAV:   6    -0.191570508604E+03    0.22109E-02   -0.86327E-03 12360   0.554E-01    0.178E-01
DAV:   7    -0.191569934996E+03    0.57361E-03   -0.18744E-03 11800   0.180E-01    0.892E-02
DAV:   8    -0.191569941709E+03   -0.67123E-05   -0.55570E-04 10200   0.150E-01
  26 F= -.19156994E+03 E0= -.19145422E+03  d E =-.651841E-01
       N       E                     dE             d eps       ncg     rms          rms(c)
DAV:   1    -0.191563006975E+03    0.69280E-02   -0.31004E-01  8160   0.118E+00    0.140E-01
DAV:   2    -0.191565673108E+03   -0.26661E-02   -0.11357E-02 12320   0.555E-01    0.518E-01
DAV:   3    -0.191563270602E+03    0.24025E-02   -0.58040E-03 10800   0.467E-01    0.111E-01
DAV:   4    -0.191563345223E+03   -0.74621E-04   -0.69672E-04  8320   0.175E-01
  27 F= -.19156335E+03 E0= -.19144791E+03  d E =0.659649E-02
       N       E                     dE             d eps       ncg     rms          rms(c)
DAV:   1    -0.191580054374E+03   -0.16784E-01   -0.14152E+00  8160   0.253E+00    0.261E-01
DAV:   2    -0.191582664561E+03   -0.26102E-02   -0.37738E-02 12320   0.592E-01    0.291E-01
DAV:   3    -0.191583212785E+03   -0.54822E-03   -0.80533E-03 13080   0.581E-01    0.394E-01
DAV:   4    -0.191581738377E+03    0.14744E-02   -0.40339E-03 11600   0.420E-01    0.170E-01
DAV:   5    -0.191581657242E+03    0.81136E-04   -0.14692E-03  9960   0.249E-01    0.168E-01
DAV:   6    -0.191581474416E+03    0.18283E-03   -0.10516E-03 10080   0.215E-01    0.903E-02
DAV:   7    -0.191581507553E+03   -0.33136E-04   -0.55564E-04  8520   0.146E-01
  28 F= -.19158151E+03 E0= -.19146529E+03  d E =-.181623E-01
       N       E                     dE             d eps       ncg     rms          rms(c)
DAV:   1    -0.191586910683E+03   -0.54363E-02   -0.14944E+00  8160   0.257E+00    0.280E-01
DAV:   2    -0.191593838636E+03   -0.69280E-02   -0.40110E-02 13600   0.835E-01    0.752E-01
DAV:   3    -0.191588641758E+03    0.51969E-02   -0.16913E-02 11480   0.817E-01    0.306E-01
DAV:   4    -0.191588091497E+03    0.55026E-03   -0.31847E-03 10960   0.299E-01    0.198E-01
DAV:   5    -0.191587806257E+03    0.28524E-03   -0.16618E-03 10320   0.284E-01    0.144E-01
DAV:   6    -0.191587627623E+03    0.17863E-03   -0.82376E-04  9840   0.182E-01    0.625E-02
DAV:   7    -0.191587627034E+03    0.58884E-06   -0.32362E-04  7560   0.105E-01
  29 F= -.19158763E+03 E0= -.19147172E+03  d E =-.611948E-02
       N       E                     dE             d eps       ncg     rms          rms(c)
DAV:   1    -0.191613779559E+03   -0.26152E-01   -0.19008E+00  8160   0.295E+00    0.329E-01
DAV:   2    -0.191616498016E+03   -0.27185E-02   -0.51162E-02 12240   0.648E-01    0.315E-01
DAV:   3    -0.191618160560E+03   -0.16625E-02   -0.13044E-02 12840   0.694E-01    0.557E-01
DAV:   4    -0.191615478557E+03    0.26820E-02   -0.82118E-03 11160   0.575E-01    0.223E-01
DAV:   5    -0.191614998601E+03    0.47996E-03   -0.18810E-03 10000   0.246E-01    0.160E-01
DAV:   6    -0.191615036893E+03   -0.38292E-04   -0.16666E-03 11040   0.281E-01    0.164E-01
DAV:   7    -0.191614821156E+03    0.21574E-03   -0.79764E-04  8840   0.185E-01    0.930E-02
DAV:   8    -0.191614741319E+03    0.79837E-04   -0.28383E-04  7040   0.117E-01
  30 F= -.19161474E+03 E0= -.19149898E+03  d E =-.271143E-01
       N       E                     dE             d eps       ncg     rms          rms(c)
DAV:   1    -0.191638447838E+03   -0.23627E-01   -0.12750E+00  8160   0.241E+00    0.272E-01
DAV:   2    -0.191642238011E+03   -0.37902E-02   -0.36421E-02 11920   0.690E-01    0.504E-01
DAV:   3    -0.191640659061E+03    0.15789E-02   -0.11840E-02 11200   0.681E-01    0.364E-01
DAV:   4    -0.191639817863E+03    0.84120E-03   -0.37439E-03 11240   0.369E-01    0.211E-01
DAV:   5    -0.191639462578E+03    0.35528E-03   -0.17656E-03 10080   0.304E-01    0.140E-01
DAV:   6    -0.191639320990E+03    0.14159E-03   -0.69641E-04 10320   0.158E-01    0.571E-02
DAV:   7    -0.191639253238E+03    0.67752E-04   -0.17240E-04  6040   0.581E-02
  31 F= -.19163925E+03 E0= -.19152504E+03  d E =-.245119E-01
       N       E                     dE             d eps       ncg     rms          rms(c)
DAV:   1    -0.191622566452E+03    0.16755E-01   -0.10537E+00  8160   0.217E+00    0.232E-01
DAV:   2    -0.191627334819E+03   -0.47684E-02   -0.29918E-02 13560   0.668E-01    0.631E-01
DAV:   3    -0.191624069348E+03    0.32655E-02   -0.12335E-02 11920   0.673E-01    0.245E-01
DAV:   4    -0.191623659540E+03    0.40981E-03   -0.16327E-03 10360   0.214E-01    0.138E-01
DAV:   5    -0.191623533327E+03    0.12621E-03   -0.88460E-04  9800   0.209E-01    0.117E-01
DAV:   6    -0.191623468732E+03    0.64594E-04   -0.54885E-04  9560   0.161E-01
  32 F= -.19162347E+03 E0= -.19150811E+03  d E =0.157845E-01
       N       E                     dE             d eps       ncg     rms          rms(c)
DAV:   1    -0.191626131278E+03   -0.25980E-02   -0.32613E+00  8160   0.377E+00    0.408E-01
DAV:   2    -0.191646012864E+03   -0.19882E-01   -0.97885E-02 12240   0.148E+00    0.137E+00
DAV:   3    -0.191630307999E+03    0.15705E-01   -0.49663E-02 11400   0.132E+00    0.387E-01
DAV:   4    -0.191629815155E+03    0.49284E-03   -0.63954E-03 11080   0.452E-01    0.319E-01
DAV:   5    -0.191628895414E+03    0.91974E-03   -0.32922E-03 11520   0.416E-01    0.192E-01
DAV:   6    -0.191628559214E+03    0.33620E-03   -0.14770E-03 11040   0.237E-01    0.797E-02
DAV:   7    -0.191628542501E+03    0.16713E-04   -0.44489E-04 10400   0.956E-02
  33 F= -.19162854E+03 E0= -.19151254E+03  d E =-.507377E-02
       N       E                     dE             d eps       ncg     rms          rms(c)
DAV:   1    -0.191617923633E+03    0.10636E-01   -0.25562E-01  8160   0.108E+00    0.138E-01
DAV:   2    -0.191619045823E+03   -0.11222E-02   -0.88259E-03 12280   0.385E-01    0.305E-01
DAV:   3    -0.191618255078E+03    0.79074E-03   -0.32948E-03 12040   0.392E-01    0.148E-01
DAV:   4    -0.191618047065E+03    0.20801E-03   -0.63376E-04  9600   0.143E-01    0.547E-02
DAV:   5    -0.191618009113E+03    0.37952E-04   -0.16494E-04  6440   0.695E-02
  34 F= -.19161801E+03 E0= -.19150204E+03  d E =0.105334E-01
       N       E                     dE             d eps       ncg     rms          rms(c)
DAV:   1    -0.191589480285E+03    0.28567E-01   -0.19496E+00  8160   0.300E+00    0.414E-01
DAV:   2    -0.191593103707E+03   -0.36234E-02   -0.65423E-02 12200   0.896E-01    0.554E-01
DAV:   3    -0.191592780185E+03    0.32352E-03   -0.19312E-02 11880   0.962E-01    0.586E-01
DAV:   4    -0.191590155224E+03    0.26250E-02   -0.10606E-02 10800   0.657E-01    0.348E-01
DAV:   5    -0.191589614515E+03    0.54071E-03   -0.60809E-03  9960   0.484E-01    0.282E-01
DAV:   6    -0.191588867761E+03    0.74675E-03   -0.25375E-03 10520   0.294E-01    0.125E-01
DAV:   7    -0.191588989896E+03   -0.12214E-03   -0.13198E-03 10160   0.234E-01    0.170E-01
DAV:   8    -0.191588706329E+03    0.28357E-03   -0.62011E-04  8560   0.166E-01    0.355E-02
DAV:   9    -0.191588700889E+03    0.54400E-05   -0.59793E-05  5920   0.347E-02
  35 F= -.19158870E+03 E0= -.19147272E+03  d E =0.293082E-01
       N       E                     dE             d eps       ncg     rms          rms(c)
DAV:   1    -0.191647675850E+03   -0.58970E-01   -0.87680E+00  8160   0.637E+00    0.760E-01
DAV:   2    -0.191660193370E+03   -0.12518E-01   -0.25750E-01 12120   0.143E+00    0.712E-01
DAV:   3    -0.191670122229E+03   -0.99289E-02   -0.66156E-02 12320   0.167E+00    0.132E+00
DAV:   4    -0.191654487817E+03    0.15634E-01   -0.39388E-02 12000   0.131E+00    0.476E-01
DAV:   5    -0.191653672250E+03    0.81557E-03   -0.14533E-02 10240   0.737E-01    0.506E-01
DAV:   6    -0.191651587093E+03    0.20852E-02   -0.94057E-03 11560   0.636E-01    0.242E-01
DAV:   7    -0.191651593273E+03   -0.61798E-05   -0.35063E-03 11440   0.386E-01    0.260E-01
DAV:   8    -0.191650869710E+03    0.72356E-03   -0.16048E-03 10280   0.291E-01    0.756E-02
DAV:   9    -0.191650799687E+03    0.70023E-04   -0.22731E-04  7560   0.779E-02
  36 F= -.19165080E+03 E0= -.19153543E+03  d E =-.620988E-01
       N       E                     dE             d eps       ncg     rms          rms(c)
DAV:   1    -0.191690486925E+03   -0.39617E-01   -0.46188E+00  8160   0.459E+00    0.521E-01
DAV:   2    -0.191696013621E+03   -0.55267E-02   -0.12469E-01 12200   0.938E-01    0.385E-01
DAV:   3    -0.191700049012E+03   -0.40354E-02   -0.25097E-02 12560   0.954E-01    0.816E-01
DAV:   4    -0.191694116756E+03    0.59323E-02   -0.16376E-02 11600   0.860E-01    0.302E-01
DAV:   5    -0.191693527680E+03    0.58908E-03   -0.48545E-03 10440   0.397E-01    0.264E-01
DAV:   6    -0.191693196356E+03    0.33132E-03   -0.35730E-03 12640   0.417E-01    0.187E-01
DAV:   7    -0.191692780749E+03    0.41561E-03   -0.10750E-03 10160   0.214E-01    0.578E-02
DAV:   8    -0.191692748786E+03    0.31963E-04   -0.20141E-04  7280   0.894E-02
  37 F= -.19169275E+03 E0= -.19157916E+03  d E =-.419491E-01
       N       E                     dE             d eps       ncg     rms          rms(c)
DAV:   1    -0.191728489480E+03   -0.35709E-01   -0.47268E+00  8160   0.462E+00    0.522E-01
DAV:   2    -0.191735223083E+03   -0.67336E-02   -0.13250E-01 12240   0.104E+00    0.468E-01
DAV:   3    -0.191738611105E+03   -0.33880E-02   -0.29850E-02 12680   0.110E+00    0.800E-01
DAV:   4    -0.191732540299E+03    0.60708E-02   -0.15282E-02 12080   0.874E-01    0.306E-01
DAV:   5    -0.191732428173E+03    0.11213E-03   -0.55640E-03 10240   0.494E-01    0.340E-01
DAV:   6    -0.191731325187E+03    0.11030E-02   -0.39825E-03 11520   0.427E-01    0.118E-01
DAV:   7    -0.191731158747E+03    0.16644E-03   -0.62194E-04  9800   0.133E-01    0.423E-02
DAV:   8    -0.191731169158E+03   -0.10411E-04   -0.15478E-04  8080   0.901E-02
  38 F= -.19173117E+03 E0= -.19161929E+03  d E =-.384204E-01
       N       E                     dE             d eps       ncg     rms          rms(c)
DAV:   1    -0.191757935984E+03   -0.26777E-01   -0.36400E+00  8160   0.402E+00    0.439E-01
DAV:   2    -0.191764897945E+03   -0.69620E-02   -0.10319E-01 12240   0.989E-01    0.535E-01
DAV:   3    -0.191766145142E+03   -0.12472E-02   -0.27563E-02 12320   0.108E+00    0.697E-01
DAV:   4    -0.191761483236E+03    0.46619E-02   -0.96600E-03 11480   0.688E-01    0.207E-01
DAV:   5    -0.191761490558E+03   -0.73215E-05   -0.28657E-03 10880   0.372E-01    0.258E-01
DAV:   6    -0.191760939385E+03    0.55117E-03   -0.24644E-03 11760   0.361E-01    0.123E-01
DAV:   7    -0.191760973798E+03   -0.34413E-04   -0.78638E-04  9200   0.203E-01
  39 F= -.19176097E+03 E0= -.19165092E+03  d E =-.298046E-01
       N       E                     dE             d eps       ncg     rms          rms(c)
DAV:   1    -0.191772801740E+03   -0.11862E-01   -0.81262E-01  8160   0.192E+00    0.224E-01
DAV:   2    -0.191775458315E+03   -0.26566E-02   -0.28141E-02 13480   0.620E-01    0.399E-01
DAV:   3    -0.191774328798E+03    0.11295E-02   -0.76379E-03 12280   0.602E-01    0.267E-01
DAV:   4    -0.191773723853E+03    0.60494E-03   -0.18196E-03 10040   0.299E-01    0.134E-01
DAV:   5    -0.191773703237E+03    0.20616E-04   -0.10434E-03 10360   0.236E-01    0.142E-01
DAV:   6    -0.191773504410E+03    0.19883E-03   -0.70626E-04  9200   0.173E-01    0.510E-02
DAV:   7    -0.191773557788E+03   -0.53378E-04   -0.27041E-04  7360   0.113E-01
  40 F= -.19177356E+03 E0= -.19166364E+03  d E =-.125840E-01
       N       E                     dE             d eps       ncg     rms          rms(c)
DAV:   1    -0.191787216611E+03   -0.13712E-01   -0.11317E+00  8160   0.225E+00    0.254E-01
DAV:   2    -0.191790222468E+03   -0.30059E-02   -0.34762E-02 13320   0.663E-01    0.420E-01
DAV:   3    -0.191789215700E+03    0.10068E-02   -0.99029E-03 11680   0.676E-01    0.327E-01
DAV:   4    -0.191788217696E+03    0.99800E-03   -0.23191E-03 11360   0.339E-01    0.126E-01
DAV:   5    -0.191788219024E+03   -0.13276E-05   -0.10413E-03 10360   0.233E-01    0.150E-01
DAV:   6    -0.191788015208E+03    0.20382E-03   -0.82724E-04  9280   0.206E-01    0.658E-02
DAV:   7    -0.191788035617E+03   -0.20409E-04   -0.27315E-04  7680   0.113E-01
  41 F= -.19178804E+03 E0= -.19167875E+03  d E =-.144778E-01
       N       E                     dE             d eps       ncg     rms          rms(c)
DAV:   1    -0.191821269936E+03   -0.33255E-01   -0.26377E+01  8160   0.109E+01    0.121E+00
DAV:   2    -0.191888889482E+03   -0.67620E-01   -0.80668E-01 13120   0.311E+00    0.188E+00
DAV:   3    -0.191870895821E+03    0.17994E-01   -0.19708E-01 11920   0.317E+00    0.150E+00
DAV:   4    -0.191847426850E+03    0.23469E-01   -0.47956E-02 12440   0.162E+00    0.572E-01
DAV:   5    -0.191846380500E+03    0.10464E-02   -0.21273E-02 12240   0.108E+00    0.671E-01
DAV:   6    -0.191842292610E+03    0.40879E-02   -0.19442E-02 12680   0.100E+00    0.311E-01
DAV:   7    -0.191840983408E+03    0.13092E-02   -0.48438E-03 12560   0.339E-01    0.103E-01
DAV:   8    -0.191840732013E+03    0.25140E-03   -0.73053E-04 11440   0.970E-02    0.460E-02
DAV:   9    -0.191840766692E+03   -0.34679E-04   -0.28187E-04  8280   0.105E-01
  42 F= -.19184077E+03 E0= -.19173272E+03  d E =-.527311E-01
       N       E                     dE             d eps       ncg     rms          rms(c)
DAV:   1    -0.191837437382E+03    0.32946E-02   -0.12116E+00  8160   0.228E+00    0.228E-01
DAV:   2    -0.191838725179E+03   -0.12878E-02   -0.24946E-02 11680   0.485E-01    0.233E-01
DAV:   3    -0.191838843087E+03   -0.11791E-03   -0.63890E-03 11720   0.489E-01    0.316E-01
DAV:   4    -0.191837908517E+03    0.93457E-03   -0.21973E-03 10960   0.369E-01    0.121E-01
DAV:   5    -0.191837723716E+03    0.18480E-03   -0.68965E-04 10360   0.137E-01    0.661E-02
DAV:   6    -0.191837795688E+03   -0.71973E-04   -0.45228E-04  9880   0.159E-01
  43 F= -.19183780E+03 E0= -.19172990E+03  d E =0.297100E-02
       N       E                     dE             d eps       ncg     rms          rms(c)
DAV:   1    -0.191846287549E+03   -0.85638E-02   -0.84060E-01  8160   0.195E+00    0.212E-01
DAV:   2    -0.191848613577E+03   -0.23260E-02   -0.25240E-02 12400   0.552E-01    0.355E-01
DAV:   3    -0.191847758232E+03    0.85534E-03   -0.67844E-03 12160   0.568E-01    0.261E-01
DAV:   4    -0.191847071280E+03    0.68695E-03   -0.13020E-03 10600   0.264E-01    0.814E-02
DAV:   5    -0.191846981117E+03    0.90163E-04   -0.45429E-04  9320   0.800E-02
  44 F= -.19184698E+03 E0= -.19173966E+03  d E =-.918543E-02
       N       E                     dE             d eps       ncg     rms          rms(c)
DAV:   1    -0.191850165344E+03   -0.30941E-02   -0.10453E-01  8160   0.698E-01    0.963E-02
DAV:   2    -0.191850882213E+03   -0.71687E-03   -0.42563E-03 13320   0.299E-01    0.223E-01
DAV:   3    -0.191850294205E+03    0.58801E-03   -0.15526E-03 10600   0.291E-01    0.883E-02
DAV:   4    -0.191850259523E+03    0.34682E-04   -0.28453E-04  7840   0.115E-01
  45 F= -.19185026E+03 E0= -.19174324E+03  d E =-.327841E-02
       N       E                     dE             d eps       ncg     rms          rms(c)
DAV:   1    -0.191846401485E+03    0.38927E-02   -0.42038E-01  8160   0.138E+00    0.146E-01
DAV:   2    -0.191847979834E+03   -0.15783E-02   -0.13005E-02 12960   0.460E-01    0.285E-01
DAV:   3    -0.191847141870E+03    0.83796E-03   -0.27107E-03 11280   0.403E-01    0.129E-01
DAV:   4    -0.191847077743E+03    0.64128E-04   -0.59201E-04  8720   0.185E-01
  46 F= -.19184708E+03 E0= -.19173950E+03  d E =0.318178E-02
       N       E                     dE             d eps       ncg     rms          rms(c)
DAV:   1    -0.191837934410E+03    0.92075E-02   -0.24031E+00  8160   0.329E+00    0.348E-01
DAV:   2    -0.191841764343E+03   -0.38299E-02   -0.62824E-02 12440   0.732E-01    0.270E-01
DAV:   3    -0.191842186016E+03   -0.42167E-03   -0.77357E-03 11240   0.545E-01    0.366E-01
DAV:   4    -0.191840941616E+03    0.12444E-02   -0.48189E-03 11040   0.514E-01    0.225E-01
DAV:   5    -0.191840647589E+03    0.29403E-03   -0.21412E-03 10800   0.317E-01    0.175E-01
DAV:   6    -0.191840632585E+03    0.15004E-04   -0.15291E-03 11320   0.312E-01    0.152E-01
DAV:   7    -0.191840334473E+03    0.29811E-03   -0.52426E-04  8840   0.170E-01    0.303E-02
DAV:   8    -0.191840320057E+03    0.14417E-04   -0.65724E-05  6520   0.338E-02
  47 F= -.19184032E+03 E0= -.19173145E+03  d E =0.675769E-02
       N       E                     dE             d eps       ncg     rms          rms(c)
DAV:   1    -0.191838368860E+03    0.19656E-02   -0.44846E-01  8160   0.142E+00    0.141E-01
DAV:   2    -0.191839302179E+03   -0.93332E-03   -0.11605E-02 12640   0.374E-01    0.178E-01
DAV:   3    -0.191839258032E+03    0.44147E-04   -0.20385E-03 11520   0.326E-01    0.175E-01
DAV:   4    -0.191838954900E+03    0.30313E-03   -0.77333E-04  9160   0.202E-01    0.792E-02
DAV:   5    -0.191838962561E+03   -0.76604E-05   -0.32524E-04  7640   0.145E-01
  48 F= -.19183896E+03 E0= -.19172947E+03  d E =0.135750E-02
       N       E                     dE             d eps       ncg     rms          rms(c)
DAV:   1    -0.191846395464E+03   -0.74406E-02   -0.26494E+00  8160   0.347E+00    0.353E-01
DAV:   2    -0.191852039521E+03   -0.56441E-02   -0.69005E-02 12480   0.825E-01    0.453E-01
DAV:   3    -0.191851567069E+03    0.47245E-03   -0.13597E-02 12280   0.830E-01    0.464E-01
DAV:   4    -0.191849604951E+03    0.19621E-02   -0.51068E-03 12440   0.526E-01    0.189E-01
DAV:   5    -0.191849085335E+03    0.51962E-03   -0.16628E-03 10440   0.212E-01    0.106E-01
DAV:   6    -0.191849350264E+03   -0.26493E-03   -0.12029E-03 11360   0.262E-01    0.165E-01
DAV:   7    -0.191848967844E+03    0.38242E-03   -0.60815E-04  9200   0.194E-01    0.246E-02
DAV:   8    -0.191848965118E+03    0.27254E-05   -0.52591E-05  6360   0.329E-02
  49 F= -.19184897E+03 E0= -.19174072E+03  d E =-.100026E-01
       N       E                     dE             d eps       ncg     rms          rms(c)
DAV:   1    -0.191850917068E+03   -0.19492E-02   -0.19734E-01  8160   0.950E-01    0.999E-02
DAV:   2    -0.191851225579E+03   -0.30851E-03   -0.55867E-03 12160   0.198E-01    0.662E-02
DAV:   3    -0.191851262175E+03   -0.36596E-04   -0.65132E-04 10720   0.135E-01
  50 F= -.19185126E+03 E0= -.19174318E+03  d E =-.229706E-02
       N       E                     dE             d eps       ncg     rms          rms(c)
DAV:   1    -0.191856279846E+03   -0.50543E-02   -0.32811E-01  8160   0.124E+00    0.143E-01
DAV:   2    -0.191856886809E+03   -0.60696E-03   -0.96571E-03 12720   0.284E-01    0.140E-01
DAV:   3    -0.191856917224E+03   -0.30415E-04   -0.19399E-03 12040   0.275E-01    0.179E-01
DAV:   4    -0.191856667138E+03    0.25009E-03   -0.84487E-04  9440   0.237E-01    0.975E-02
DAV:   5    -0.191856546415E+03    0.12072E-03   -0.31346E-04  8080   0.104E-01    0.393E-02
DAV:   6    -0.191856588760E+03   -0.42346E-04   -0.16493E-04  7160   0.951E-02
  51 F= -.19185659E+03 E0= -.19174909E+03  d E =-.532659E-02
       N       E                     dE             d eps       ncg     rms          rms(c)
DAV:   1    -0.191855096691E+03    0.14497E-02   -0.14353E-01  8160   0.799E-01    0.859E-02
DAV:   2    -0.191855438807E+03   -0.34212E-03   -0.36275E-03 12280   0.263E-01    0.138E-01
DAV:   3    -0.191855250865E+03    0.18794E-03   -0.64459E-04  9240   0.207E-01    0.720E-02
DAV:   4    -0.191855220277E+03    0.30588E-04   -0.18220E-04  6000   0.106E-01
  52 F= -.19185522E+03 E0= -.19174739E+03  d E =0.136848E-02
       N       E                     dE             d eps       ncg     rms          rms(c)
DAV:   1    -0.191856634598E+03   -0.13837E-02   -0.37758E-01  8160   0.131E+00    0.143E-01
DAV:   2    -0.191857335275E+03   -0.70068E-03   -0.98627E-03 12120   0.310E-01    0.176E-01
DAV:   3    -0.191857360124E+03   -0.24849E-04   -0.22224E-03 11920   0.340E-01    0.194E-01
DAV:   4    -0.191856982783E+03    0.37734E-03   -0.69484E-04  8960   0.204E-01    0.574E-02
DAV:   5    -0.191856952319E+03    0.30464E-04   -0.21697E-04  6440   0.610E-02
  53 F= -.19185695E+03 E0= -.19174920E+03  d E =-.173204E-02
       N       E                     dE             d eps       ncg     rms          rms(c)
DAV:   1    -0.191860552469E+03   -0.35697E-02   -0.64679E-01  8160   0.173E+00    0.189E-01
DAV:   2    -0.191861965253E+03   -0.14128E-02   -0.18449E-02 12520   0.447E-01    0.245E-01
DAV:   3    -0.191861799667E+03    0.16559E-03   -0.36572E-03 12280   0.446E-01    0.232E-01
DAV:   4    -0.191861343216E+03    0.45645E-03   -0.12121E-03 10000   0.275E-01    0.109E-01
DAV:   5    -0.191861248444E+03    0.94772E-04   -0.56213E-04 10080   0.167E-01
  54 F= -.19186125E+03 E0= -.19175385E+03  d E =-.429612E-02
       N       E                     dE             d eps       ncg     rms          rms(c)
DAV:   1    -0.191861157893E+03    0.18532E-03   -0.79034E-01  8160   0.188E+00    0.168E-01
DAV:   2    -0.191862535473E+03   -0.13776E-02   -0.17499E-02 12040   0.376E-01    0.183E-01
DAV:   3    -0.191862514455E+03    0.21018E-04   -0.30669E-03 12400   0.363E-01    0.212E-01
DAV:   4    -0.191862117444E+03    0.39701E-03   -0.11285E-03  9920   0.266E-01    0.103E-01
DAV:   5    -0.191862054150E+03    0.63294E-04   -0.50512E-04  8360   0.152E-01
  55 F= -.19186205E+03 E0= -.19175478E+03  d E =-.805706E-03
       N       E                     dE             d eps       ncg     rms          rms(c)
DAV:   1    -0.191867328596E+03   -0.52112E-02   -0.34589E-01  8160   0.127E+00    0.174E-01
DAV:   2    -0.191868960478E+03   -0.16319E-02   -0.13228E-02 12080   0.505E-01    0.340E-01
DAV:   3    -0.191867682803E+03    0.12777E-02   -0.39306E-03 11760   0.478E-01    0.161E-01
DAV:   4    -0.191867566559E+03    0.11624E-03   -0.98074E-04 10120   0.229E-01    0.122E-01
DAV:   5    -0.191867464575E+03    0.10198E-03   -0.64448E-04 10080   0.187E-01    0.975E-02
DAV:   6    -0.191867359564E+03    0.10501E-03   -0.40512E-04  8400   0.128E-01    0.380E-02
DAV:   7    -0.191867347125E+03    0.12439E-04   -0.73197E-05  6360   0.433E-02
  56 F= -.19186735E+03 E0= -.19176087E+03  d E =-.529298E-02
       N       E                     dE             d eps       ncg     rms          rms(c)
DAV:   1    -0.191870533469E+03   -0.31739E-02   -0.25071E-01  8160   0.108E+00    0.126E-01
DAV:   2    -0.191871309792E+03   -0.77632E-03   -0.81254E-03 12240   0.332E-01    0.213E-01
DAV:   3    -0.191870965996E+03    0.34380E-03   -0.19294E-03 11840   0.325E-01    0.135E-01
DAV:   4    -0.191870811465E+03    0.15453E-03   -0.38663E-04  8280   0.149E-01    0.591E-02
DAV:   5    -0.191870781006E+03    0.30460E-04   -0.18999E-04  7800   0.890E-02
  57 F= -.19187078E+03 E0= -.19176481E+03  d E =-.343388E-02
       N       E                     dE             d eps       ncg     rms          rms(c)
DAV:   1    -0.191875919267E+03   -0.51078E-02   -0.28955E-01  8160   0.116E+00    0.139E-01
DAV:   2    -0.191876767926E+03   -0.84866E-03   -0.92079E-03 11800   0.351E-01    0.215E-01
DAV:   3    -0.191876436302E+03    0.33162E-03   -0.18355E-03 12040   0.341E-01    0.142E-01
DAV:   4    -0.191876293209E+03    0.14309E-03   -0.50800E-04  8280   0.176E-01    0.926E-02
DAV:   5    -0.191876228636E+03    0.64573E-04   -0.37046E-04  9080   0.147E-01
  58 F= -.19187623E+03 E0= -.19177123E+03  d E =-.544763E-02
       N       E                     dE             d eps       ncg     rms          rms(c)
DAV:   1    -0.191862673878E+03    0.13619E-01   -0.16602E+00  8160   0.278E+00    0.330E-01
DAV:   2    -0.191869057796E+03   -0.63839E-02   -0.58545E-02 12560   0.855E-01    0.599E-01
DAV:   3    -0.191865763225E+03    0.32946E-02   -0.16620E-02 12080   0.881E-01    0.357E-01
DAV:   4    -0.191864740842E+03    0.10224E-02   -0.34164E-03 11400   0.409E-01    0.178E-01
DAV:   5    -0.191864264392E+03    0.47645E-03   -0.15135E-03 10600   0.212E-01    0.111E-01
DAV:   6    -0.191864419366E+03   -0.15497E-03   -0.10679E-03 11440   0.263E-01    0.148E-01
DAV:   7    -0.191864131547E+03    0.28782E-03   -0.46971E-04  8600   0.171E-01    0.268E-02
DAV:   8    -0.191864138189E+03   -0.66418E-05   -0.64143E-05  6840   0.527E-02
  59 F= -.19186414E+03 E0= -.19175711E+03  d E =0.120904E-01
       N       E                     dE             d eps       ncg     rms          rms(c)
DAV:   1    -0.191854321417E+03    0.98101E-02   -0.15336E+00  8160   0.266E+00    0.305E-01
DAV:   2    -0.191859327753E+03   -0.50063E-02   -0.48236E-02 12600   0.797E-01    0.539E-01
DAV:   3    -0.191856997121E+03    0.23306E-02   -0.13045E-02 12360   0.798E-01    0.324E-01
DAV:   4    -0.191856091764E+03    0.90536E-03   -0.24266E-03 11960   0.344E-01    0.150E-01
DAV:   5    -0.191855841901E+03    0.24986E-03   -0.13043E-03 10640   0.204E-01    0.114E-01
DAV:   6    -0.191855932781E+03   -0.90881E-04   -0.92747E-04 11280   0.246E-01
  60 F= -.19185593E+03 E0= -.19174770E+03  d E =0.820541E-02
       N       E                     dE             d eps       ncg     rms          rms(c)
DAV:   1    -0.191859755457E+03   -0.39136E-02   -0.21199E-01  8160   0.100E+00    0.126E-01
DAV:   2    -0.191860835665E+03   -0.10802E-02   -0.85170E-03 12040   0.378E-01    0.273E-01
DAV:   3    -0.191860083012E+03    0.75265E-03   -0.25256E-03 11880   0.360E-01    0.116E-01
DAV:   4    -0.191859965158E+03    0.11785E-03   -0.37174E-04  8440   0.125E-01    0.545E-02
DAV:   5    -0.191859910812E+03    0.54346E-04   -0.18519E-04  6600   0.549E-02
  61 F= -.19185991E+03 E0= -.19175222E+03  d E =-.397803E-02
       N       E                     dE             d eps       ncg     rms          rms(c)
DAV:   1    -0.191862612783E+03   -0.26476E-02   -0.10271E-01  8160   0.695E-01    0.981E-02
DAV:   2    -0.191863473297E+03   -0.86051E-03   -0.45535E-03 12320   0.345E-01    0.260E-01
DAV:   3    -0.191862707251E+03    0.76605E-03   -0.16950E-03 10120   0.310E-01    0.696E-02
DAV:   4    -0.191862738575E+03   -0.31324E-04   -0.25449E-04  7600   0.118E-01
  62 F= -.19186274E+03 E0= -.19175541E+03  d E =-.282776E-02
       N       E                     dE             d eps       ncg     rms          rms(c)
DAV:   1    -0.191864586458E+03   -0.18792E-02   -0.51978E-02  8160   0.497E-01    0.821E-02
DAV:   2    -0.191864866252E+03   -0.27979E-03   -0.22720E-03 11040   0.232E-01    0.157E-01
DAV:   3    -0.191864591058E+03    0.27519E-03   -0.68802E-04  9720   0.210E-01    0.651E-02
DAV:   4    -0.191864598041E+03   -0.69829E-05   -0.21968E-04  7520   0.108E-01
  63 F= -.19186460E+03 E0= -.19175748E+03  d E =-.185947E-02
       N       E                     dE             d eps       ncg     rms          rms(c)
DAV:   1    -0.191870237655E+03   -0.56466E-02   -0.39831E-01  8160   0.137E+00    0.180E-01
DAV:   2    -0.191871648781E+03   -0.14111E-02   -0.14785E-02 11880   0.432E-01    0.303E-01
DAV:   3    -0.191870866872E+03    0.78191E-03   -0.43250E-03 12120   0.455E-01    0.197E-01
DAV:   4    -0.191870580127E+03    0.28675E-03   -0.10140E-03 10120   0.225E-01    0.995E-02
DAV:   5    -0.191870435469E+03    0.14466E-03   -0.52903E-04 10400   0.127E-01    0.662E-02
DAV:   6    -0.191870463964E+03   -0.28496E-04   -0.31393E-04  9200   0.146E-01
  64 F= -.19187046E+03 E0= -.19176407E+03  d E =-.586592E-02
       N       E                     dE             d eps       ncg     rms          rms(c)
DAV:   1    -0.191874870842E+03   -0.44354E-02   -0.24613E-01  8160   0.107E+00    0.131E-01
DAV:   2    -0.191875581170E+03   -0.71033E-03   -0.85792E-03 10840   0.330E-01    0.193E-01
DAV:   3    -0.191875392940E+03    0.18823E-03   -0.20011E-03 12280   0.323E-01    0.156E-01
DAV:   4    -0.191875174050E+03    0.21889E-03   -0.52948E-04  8600   0.174E-01    0.642E-02
DAV:   5    -0.191875108211E+03    0.65839E-04   -0.18064E-04  6520   0.637E-02
  65 F= -.19187511E+03 E0= -.19176956E+03  d E =-.464425E-02
       N       E                     dE             d eps       ncg     rms          rms(c)
DAV:   1    -0.191877023015E+03   -0.18490E-02   -0.41309E-02  8160   0.450E-01    0.936E-02
DAV:   2    -0.191878556524E+03   -0.15335E-02   -0.41121E-03 12240   0.440E-01    0.374E-01
DAV:   3    -0.191876978009E+03    0.15785E-02   -0.23536E-03 10080   0.383E-01    0.384E-02
DAV:   4    -0.191877031598E+03   -0.53589E-04   -0.14343E-04  6520   0.911E-02
  66 F= -.19187703E+03 E0= -.19177177E+03  d E =-.192339E-02
       N       E                     dE             d eps       ncg     rms          rms(c)
DAV:   1    -0.191881645001E+03   -0.46670E-02   -0.25456E-01  8160   0.109E+00    0.135E-01
DAV:   2    -0.191882174100E+03   -0.52910E-03   -0.81366E-03 11240   0.304E-01    0.165E-01
DAV:   3    -0.191882141493E+03    0.32608E-04   -0.19442E-03 12280   0.310E-01    0.174E-01
DAV:   4    -0.191881873962E+03    0.26753E-03   -0.63841E-04  8920   0.206E-01    0.751E-02
DAV:   5    -0.191881785669E+03    0.88293E-04   -0.23970E-04  7440   0.790E-02
  67 F= -.19188179E+03 E0= -.19177736E+03  d E =-.475407E-02
       N       E                     dE             d eps       ncg     rms          rms(c)
DAV:   1    -0.191886708371E+03   -0.48344E-02   -0.30040E-01  8160   0.118E+00    0.146E-01
DAV:   2    -0.191887854502E+03   -0.11461E-02   -0.99677E-03 11520   0.415E-01    0.271E-01
DAV:   3    -0.191887137340E+03    0.71716E-03   -0.23903E-03 11880   0.383E-01    0.130E-01
DAV:   4    -0.191887117400E+03    0.19940E-04   -0.64158E-04  8800   0.191E-01
  68 F= -.19188712E+03 E0= -.19178350E+03  d E =-.533173E-02
       N       E                     dE             d eps       ncg     rms          rms(c)
DAV:   1    -0.191885744409E+03    0.13929E-02   -0.18343E-02  8160   0.336E-01    0.664E-02
DAV:   2    -0.191886641165E+03   -0.89676E-03   -0.23555E-03 11800   0.347E-01    0.268E-01
DAV:   3    -0.191885751155E+03    0.89001E-03   -0.12974E-03 10120   0.285E-01    0.344E-02
DAV:   4    -0.191885763752E+03   -0.12597E-04   -0.57413E-05  5720   0.585E-02
  69 F= -.19188576E+03 E0= -.19178195E+03  d E =0.135365E-02
       N       E                     dE             d eps       ncg     rms          rms(c)
DAV:   1    -0.191888214930E+03   -0.24638E-02   -0.90688E-02  8160   0.649E-01    0.832E-02
DAV:   2    -0.191888523308E+03   -0.30838E-03   -0.38261E-03 11040   0.213E-01    0.126E-01
DAV:   3    -0.191888437532E+03    0.85777E-04   -0.80808E-04 10600   0.209E-01
  70 F= -.19188844E+03 E0= -.19178506E+03  d E =-.267378E-02
       N       E                     dE             d eps       ncg     rms          rms(c)
DAV:   1    -0.191889333678E+03   -0.81037E-03   -0.50362E-02  8160   0.516E-01    0.105E-01
DAV:   2    -0.191890729984E+03   -0.13963E-02   -0.42091E-03 12360   0.446E-01    0.365E-01
DAV:   3    -0.191889242698E+03    0.14873E-02   -0.22906E-03 10120   0.385E-01    0.589E-02
DAV:   4    -0.191889225215E+03    0.17483E-04   -0.17825E-04  5640   0.706E-02
  71 F= -.19188923E+03 E0= -.19178605E+03  d E =-.787683E-03
       N       E                     dE             d eps       ncg     rms          rms(c)
DAV:   1    -0.191893808529E+03   -0.45658E-02   -0.27977E-01  8160   0.114E+00    0.153E-01
DAV:   2    -0.191895729898E+03   -0.19214E-02   -0.11446E-02 12080   0.520E-01    0.390E-01
DAV:   3    -0.191894088394E+03    0.16415E-02   -0.37916E-03 11960   0.469E-01    0.112E-01
DAV:   4    -0.191893998062E+03    0.90332E-04   -0.38868E-04  8680   0.119E-01
  72 F= -.19189400E+03 E0= -.19179171E+03  d E =-.477285E-02
       N       E                     dE             d eps       ncg     rms          rms(c)
DAV:   1    -0.191895622270E+03   -0.15339E-02   -0.33629E-02  8160   0.404E-01    0.831E-02
DAV:   2    -0.191896405348E+03   -0.78308E-03   -0.23937E-03 12760   0.329E-01    0.266E-01
DAV:   3    -0.191895581504E+03    0.82384E-03   -0.13840E-03 10080   0.290E-01    0.509E-02
DAV:   4    -0.191895632112E+03   -0.50608E-04   -0.19544E-04  7200   0.108E-01
  73 F= -.19189563E+03 E0= -.19179363E+03  d E =-.163405E-02
       N       E                     dE             d eps       ncg     rms          rms(c)
DAV:   1    -0.191901756717E+03   -0.61752E-02   -0.74698E-01  8160   0.186E+00    0.204E-01
DAV:   2    -0.191903591298E+03   -0.18346E-02   -0.23323E-02 11680   0.527E-01    0.272E-01
DAV:   3    -0.191903388848E+03    0.20245E-03   -0.40304E-03 11120   0.482E-01    0.244E-01
DAV:   4    -0.191902847667E+03    0.54118E-03   -0.14369E-03 10000   0.293E-01    0.127E-01
DAV:   5    -0.191902770252E+03    0.77415E-04   -0.77964E-04  9440   0.220E-01
  74 F= -.19190277E+03 E0= -.19180152E+03  d E =-.713814E-02
       N       E                     dE             d eps       ncg     rms          rms(c)
DAV:   1    -0.191898604848E+03    0.42428E-02   -0.23944E-01  8160   0.106E+00    0.124E-01
DAV:   2    -0.191900274496E+03   -0.16696E-02   -0.98028E-03 13200   0.449E-01    0.334E-01
DAV:   3    -0.191899085097E+03    0.11894E-02   -0.31029E-03 11760   0.417E-01    0.119E-01
DAV:   4    -0.191898935828E+03    0.14927E-03   -0.49429E-04  8400   0.126E-01    0.485E-02
DAV:   5    -0.191898900566E+03    0.35262E-04   -0.12084E-04  6440   0.537E-02
  75 F= -.19189890E+03 E0= -.19179717E+03  d E =0.386969E-02
       N       E                     dE             d eps       ncg     rms          rms(c)
DAV:   1    -0.191899922018E+03   -0.98619E-03   -0.30622E-02  8160   0.387E-01    0.649E-02
DAV:   2    -0.191900577440E+03   -0.65542E-03   -0.21884E-03 12320   0.289E-01    0.236E-01
DAV:   3    -0.191899938345E+03    0.63910E-03   -0.96612E-04  9720   0.250E-01    0.328E-02
DAV:   4    -0.191899944800E+03   -0.64551E-05   -0.56171E-05  5680   0.393E-02
  76 F= -.19189994E+03 E0= -.19179849E+03  d E =-.104423E-02
       N       E                     dE             d eps       ncg     rms          rms(c)
DAV:   1    -0.191899891903E+03    0.46442E-04   -0.10081E-04  7200   0.546E-02    0.293E-02
DAV:   2    -0.191900094983E+03   -0.20308E-03   -0.39773E-04  9040   0.170E-01    0.136E-01
DAV:   3    -0.191899878522E+03    0.21646E-03   -0.26350E-04  7360   0.134E-01    0.577E-03
DAV:   4    -0.191899889273E+03   -0.10751E-04   -0.96961E-06  5480   0.162E-02
  77 F= -.19189989E+03 E0= -.19179839E+03  d E =0.555271E-04
       N       E                     dE             d eps       ncg     rms          rms(c)
DAV:   1    -0.191902727376E+03   -0.28489E-02   -0.13600E-01  8160   0.796E-01    0.957E-02
DAV:   2    -0.191903138865E+03   -0.41149E-03   -0.46218E-03 11960   0.267E-01    0.161E-01
DAV:   3    -0.191902938544E+03    0.20032E-03   -0.10277E-03 10760   0.241E-01    0.101E-01
DAV:   4    -0.191902856635E+03    0.81908E-04   -0.33847E-04  8000   0.132E-01
  78 F= -.19190286E+03 E0= -.19180161E+03  d E =-.296736E-02
       N       E                     dE             d eps       ncg     rms          rms(c)
DAV:   1    -0.191904864241E+03   -0.19257E-02   -0.66964E-02  8160   0.564E-01    0.962E-02
DAV:   2    -0.191905637783E+03   -0.77354E-03   -0.41872E-03 12320   0.346E-01    0.233E-01
DAV:   3    -0.191904892993E+03    0.74479E-03   -0.16457E-03 10840   0.298E-01    0.523E-02
DAV:   4    -0.191904883780E+03    0.92129E-05   -0.11262E-04  5680   0.688E-02
  79 F= -.19190488E+03 E0= -.19180392E+03  d E =-.202714E-02
       N       E                     dE             d eps       ncg     rms          rms(c)
DAV:   1    -0.191910599848E+03   -0.57069E-02   -0.73008E-01  8160   0.184E+00    0.217E-01
DAV:   2    -0.191912510301E+03   -0.19105E-02   -0.25636E-02 10880   0.511E-01    0.271E-01
DAV:   3    -0.191912257604E+03    0.25270E-03   -0.58707E-03 11120   0.498E-01    0.263E-01
DAV:   4    -0.191911624542E+03    0.63306E-03   -0.16026E-03 10360   0.314E-01    0.131E-01
DAV:   5    -0.191911492554E+03    0.13199E-03   -0.76031E-04 10200   0.207E-01    0.110E-01
DAV:   6    -0.191911438748E+03    0.53806E-04   -0.50165E-04  8880   0.184E-01
  80 F= -.19191144E+03 E0= -.19181136E+03  d E =-.655497E-02
       N       E                     dE             d eps       ncg     rms          rms(c)
DAV:   1    -0.191911081167E+03    0.41139E-03   -0.11475E-02  8160   0.242E-01    0.532E-02
DAV:   2    -0.191911134283E+03   -0.53117E-04   -0.80594E-04 10040   0.145E-01
  81 F= -.19191113E+03 E0= -.19181095E+03  d E =0.304465E-03
       N       E                     dE             d eps       ncg     rms          rms(c)
DAV:   1    -0.191914772999E+03   -0.36918E-02   -0.44005E-01  8160   0.142E+00    0.166E-01
DAV:   2    -0.191916482627E+03   -0.17096E-02   -0.16812E-02 11440   0.479E-01    0.296E-01
DAV:   3    -0.191915832863E+03    0.64976E-03   -0.34446E-03 12240   0.442E-01    0.181E-01
DAV:   4    -0.191915488185E+03    0.34468E-03   -0.73970E-04  8840   0.193E-01    0.733E-02
DAV:   5    -0.191915488718E+03   -0.53323E-06   -0.39310E-04  9000   0.144E-01
  82 F= -.19191549E+03 E0= -.19181547E+03  d E =-.435444E-02
       N       E                     dE             d eps       ncg     rms          rms(c)
DAV:   1    -0.191919336705E+03   -0.38485E-02   -0.51505E-01  8160   0.156E+00    0.195E-01
DAV:   2    -0.191921164601E+03   -0.18279E-02   -0.19822E-02 11080   0.545E-01    0.311E-01
DAV:   3    -0.191920535156E+03    0.62944E-03   -0.35484E-03 12240   0.501E-01    0.214E-01
DAV:   4    -0.191920038068E+03    0.49709E-03   -0.10725E-03 10000   0.245E-01    0.996E-02
DAV:   5    -0.191920072037E+03   -0.33969E-04   -0.78531E-04  9960   0.205E-01
  83 F= -.19192007E+03 E0= -.19182068E+03  d E =-.458332E-02
       N       E                     dE             d eps       ncg     rms          rms(c)
DAV:   1    -0.191923560247E+03   -0.35222E-02   -0.55965E-01  8160   0.160E+00    0.174E-01
DAV:   2    -0.191924792130E+03   -0.12319E-02   -0.17572E-02 12360   0.391E-01    0.168E-01
DAV:   3    -0.191924877834E+03   -0.85703E-04   -0.27255E-03 12240   0.343E-01    0.225E-01
DAV:   4    -0.191924461777E+03    0.41606E-03   -0.14079E-03 10880   0.289E-01    0.113E-01
DAV:   5    -0.191924294246E+03    0.16753E-03   -0.44407E-04  8280   0.124E-01    0.503E-02
DAV:   6    -0.191924359330E+03   -0.65084E-04   -0.29629E-04  9080   0.126E-01
  84 F= -.19192436E+03 E0= -.19182519E+03  d E =-.428729E-02
       N       E                     dE             d eps       ncg     rms          rms(c)
DAV:   1    -0.191923311981E+03    0.98226E-03   -0.48747E-02  8160   0.501E-01    0.620E-02
DAV:   2    -0.191923443099E+03   -0.13112E-03   -0.19490E-03 11120   0.157E-01    0.844E-02
DAV:   3    -0.191923409063E+03    0.34035E-04   -0.37966E-04  9840   0.150E-01
  85 F= -.19192341E+03 E0= -.19182404E+03  d E =0.950267E-03
       N       E                     dE             d eps       ncg     rms          rms(c)
DAV:   1    -0.191923106327E+03    0.33677E-03   -0.28271E-03 10880   0.148E-01    0.446E-02
DAV:   2    -0.191923359352E+03   -0.25302E-03   -0.66879E-04  9360   0.192E-01    0.157E-01
DAV:   3    -0.191923070074E+03    0.28928E-03   -0.44060E-04  8320   0.170E-01    0.259E-02
DAV:   4    -0.191923080598E+03   -0.10524E-04   -0.51115E-05  5520   0.518E-02
  86 F= -.19192308E+03 E0= -.19182360E+03  d E =0.328465E-03
       N       E                     dE             d eps       ncg     rms          rms(c)
DAV:   1    -0.191924275471E+03   -0.12054E-02   -0.61100E-02  8160   0.553E-01    0.924E-02
DAV:   2    -0.191924370736E+03   -0.95266E-04   -0.26343E-03 11560   0.198E-01    0.129E-01
DAV:   3    -0.191924290691E+03    0.80046E-04   -0.99494E-04 10960   0.226E-01
  87 F= -.19192429E+03 E0= -.19182429E+03  d E =-.121009E-02
       N       E                     dE             d eps       ncg     rms          rms(c)
DAV:   1    -0.191923721814E+03    0.64892E-03   -0.16987E-01  8160   0.896E-01    0.139E-01
DAV:   2    -0.191926568965E+03   -0.28472E-02   -0.11033E-02 13080   0.603E-01    0.484E-01
DAV:   3    -0.191923925095E+03    0.26439E-02   -0.40906E-03 11360   0.514E-01    0.613E-02
DAV:   4    -0.191923920406E+03    0.46885E-05   -0.22175E-04  7520   0.898E-02
  88 F= -.19192392E+03 E0= -.19182451E+03  d E =0.370284E-03
       N       E                     dE             d eps       ncg     rms          rms(c)
DAV:   1    -0.191924471806E+03   -0.54671E-03   -0.12690E-01  8160   0.820E-01    0.173E-01
DAV:   2    -0.191925070279E+03   -0.59847E-03   -0.82096E-03 11360   0.458E-01    0.309E-01
DAV:   3    -0.191924085215E+03    0.98506E-03   -0.36222E-03 12240   0.440E-01    0.145E-01
DAV:   4    -0.191924059661E+03    0.25553E-04   -0.11188E-03 10000   0.250E-01    0.161E-01
DAV:   5    -0.191923831178E+03    0.22848E-03   -0.89521E-04  9680   0.232E-01    0.878E-02
DAV:   6    -0.191923737893E+03    0.93284E-04   -0.28886E-04  7640   0.110E-01
  89 F= -.19192374E+03 E0= -.19182495E+03  d E =0.182513E-03
       N       E                     dE             d eps       ncg     rms          rms(c)
DAV:   1    -0.191927313544E+03   -0.34824E-02   -0.34377E-01  8160   0.127E+00    0.225E-01
DAV:   2    -0.191930624237E+03   -0.33107E-02   -0.18468E-02 11840   0.782E-01    0.582E-01
DAV:   3    -0.191926846346E+03    0.37779E-02   -0.88069E-03 11800   0.678E-01    0.145E-01
DAV:   4    -0.191926966739E+03   -0.12039E-03   -0.13732E-03 10240   0.303E-01    0.193E-01
DAV:   5    -0.191926532575E+03    0.43416E-03   -0.10023E-03 10040   0.270E-01    0.775E-02
DAV:   6    -0.191926448528E+03    0.84047E-04   -0.32293E-04  6880   0.989E-02
  90 F= -.19192645E+03 E0= -.19182694E+03  d E =-.271063E-02
       N       E                     dE             d eps       ncg     rms          rms(c)
DAV:   1    -0.191930079822E+03   -0.35472E-02   -0.51678E-01  8160   0.153E+00    0.193E-01
DAV:   2    -0.191932570484E+03   -0.24907E-02   -0.18719E-02 13360   0.664E-01    0.420E-01
DAV:   3    -0.191930589915E+03    0.19806E-02   -0.58408E-03 11640   0.532E-01    0.142E-01
DAV:   4    -0.191930653070E+03   -0.63155E-04   -0.11182E-03 10920   0.253E-01    0.167E-01
DAV:   5    -0.191930362379E+03    0.29069E-03   -0.72034E-04  9920   0.233E-01    0.789E-02
DAV:   6    -0.191930320022E+03    0.42357E-04   -0.29863E-04  7000   0.104E-01
  91 F= -.19193032E+03 E0= -.19183041E+03  d E =-.387149E-02
       N       E                     dE             d eps       ncg     rms          rms(c)
DAV:   1    -0.191931912836E+03   -0.15505E-02   -0.94325E-02  8160   0.652E-01    0.701E-02
DAV:   2    -0.191932241012E+03   -0.32818E-03   -0.29364E-03 13560   0.230E-01    0.129E-01
DAV:   3    -0.191932069972E+03    0.17104E-03   -0.66757E-04 10000   0.185E-01    0.638E-02
DAV:   4    -0.191932058731E+03    0.11241E-04   -0.14509E-04  5760   0.930E-02
  92 F= -.19193206E+03 E0= -.19183219E+03  d E =-.173871E-02
       N       E                     dE             d eps       ncg     rms          rms(c)
DAV:   1    -0.191932413002E+03   -0.34303E-03   -0.43820E-03  8160   0.161E-01    0.373E-02
DAV:   2    -0.191932572268E+03   -0.15927E-03   -0.40872E-04 10040   0.150E-01    0.118E-01
DAV:   3    -0.191932404367E+03    0.16790E-03   -0.24575E-04  7800   0.133E-01    0.247E-02
DAV:   4    -0.191932411368E+03   -0.70005E-05   -0.37922E-05  5480   0.423E-02
  93 F= -.19193241E+03 E0= -.19183244E+03  d E =-.352637E-03
       N       E                     dE             d eps       ncg     rms          rms(c)
DAV:   1    -0.191935315034E+03   -0.29107E-02   -0.28025E-01  8160   0.111E+00    0.122E-01
DAV:   2    -0.191936375057E+03   -0.10600E-02   -0.76298E-03 12240   0.396E-01    0.259E-01
DAV:   3    -0.191935655471E+03    0.71959E-03   -0.23090E-03 11520   0.341E-01    0.106E-01
DAV:   4    -0.191935618221E+03    0.37250E-04   -0.44523E-04  8560   0.150E-01
  94 F= -.19193562E+03 E0= -.19183588E+03  d E =-.320685E-02
       N       E                     dE             d eps       ncg     rms          rms(c)
DAV:   1    -0.191932926376E+03    0.27291E-02   -0.16816E-01  8160   0.872E-01    0.930E-02
DAV:   2    -0.191934068829E+03   -0.11425E-02   -0.56192E-03 12920   0.392E-01    0.263E-01
DAV:   3    -0.191933100895E+03    0.96793E-03   -0.18346E-03 10720   0.325E-01    0.360E-02
DAV:   4    -0.191933107425E+03   -0.65297E-05   -0.72243E-05  5680   0.486E-02
  95 F= -.19193311E+03 E0= -.19183303E+03  d E =0.251080E-02
       N       E                     dE             d eps       ncg     rms          rms(c)
DAV:   1    -0.191927867277E+03    0.52336E-02   -0.84674E-01  8160   0.194E+00    0.217E-01
DAV:   2    -0.191930564850E+03   -0.26976E-02   -0.21820E-02 12440   0.690E-01    0.398E-01
DAV:   3    -0.191928674943E+03    0.18899E-02   -0.61192E-03 11800   0.561E-01    0.166E-01
DAV:   4    -0.191928663645E+03    0.11297E-04   -0.16483E-03 10160   0.255E-01    0.168E-01
DAV:   5    -0.191928468332E+03    0.19531E-03   -0.10281E-03 10480   0.260E-01    0.122E-01
DAV:   6    -0.191928344713E+03    0.12362E-03   -0.44495E-04  8480   0.147E-01    0.479E-02
DAV:   7    -0.191928332094E+03    0.12618E-04   -0.11867E-04  6640   0.750E-02
  96 F= -.19192833E+03 E0= -.19182797E+03  d E =0.477533E-02
       N       E                     dE             d eps       ncg     rms          rms(c)
DAV:   1    -0.191922277845E+03    0.60669E-02   -0.15422E+00  8160   0.261E+00    0.271E-01
DAV:   2    -0.191927483037E+03   -0.52052E-02   -0.38586E-02 12120   0.841E-01    0.536E-01
DAV:   3    -0.191924057092E+03    0.34259E-02   -0.10933E-02 11320   0.731E-01    0.220E-01
DAV:   4    -0.191924034643E+03    0.22449E-04   -0.21862E-03 11760   0.324E-01    0.210E-01
DAV:   5    -0.191923628131E+03    0.40651E-03   -0.12266E-03 10440   0.305E-01    0.121E-01
DAV:   6    -0.191923563715E+03    0.64416E-04   -0.53360E-04  9960   0.157E-01
  97 F= -.19192356E+03 E0= -.19182309E+03  d E =0.476838E-02
       N       E                     dE             d eps       ncg     rms          rms(c)
DAV:   1    -0.191926523212E+03   -0.28951E-02   -0.58421E-01  8160   0.162E+00    0.179E-01
DAV:   2    -0.191928236190E+03   -0.17130E-02   -0.15566E-02 12800   0.566E-01    0.309E-01
DAV:   3    -0.191927100861E+03    0.11353E-02   -0.35760E-03 12000   0.459E-01    0.133E-01
DAV:   4    -0.191926972423E+03    0.12844E-03   -0.93869E-04  9560   0.186E-01    0.104E-01
DAV:   5    -0.191926954838E+03    0.17585E-04   -0.59614E-04  9160   0.188E-01
  98 F= -.19192695E+03 E0= -.19182654E+03  d E =-.339112E-02
       N       E                     dE             d eps       ncg     rms          rms(c)
DAV:   1    -0.191928072475E+03   -0.11001E-02   -0.81677E-02  8160   0.629E-01    0.816E-02
DAV:   2    -0.191928353537E+03   -0.28106E-03   -0.27750E-03 13520   0.204E-01    0.133E-01
DAV:   3    -0.191928161701E+03    0.19184E-03   -0.67486E-04  9600   0.199E-01    0.660E-02
DAV:   4    -0.191928157587E+03    0.41147E-05   -0.17233E-04  6240   0.985E-02
  99 F= -.19192816E+03 E0= -.19182756E+03  d E =-.120275E-02
       N       E                     dE             d eps       ncg     rms          rms(c)
DAV:   1    -0.191929658105E+03   -0.14964E-02   -0.13436E-01  8160   0.782E-01    0.855E-02
DAV:   2    -0.191930074737E+03   -0.41663E-03   -0.35818E-03 12680   0.235E-01    0.160E-01
DAV:   3    -0.191929859057E+03    0.21568E-03   -0.86113E-04  9680   0.225E-01    0.871E-02
DAV:   4    -0.191929785442E+03    0.73615E-04   -0.14422E-04  5600   0.845E-02
 100 F= -.19192979E+03 E0= -.19182923E+03  d E =-.162786E-02
