unknown system                          
           1
     8.858804    5.101402    0.000000
    -8.863187    5.108944    0.000000
     0.000000    0.000000   30.000000
   V    Mo   W    S 
   3   3   3  18
Direct configuration=     1
   0.66666669  0.00000000  0.00000000
   1.00000000  0.33333334  0.00000000
   0.66666669  0.33333334  0.00000000
   0.00000000  0.00000000  0.00000000
   0.00000000  0.66666669  0.00000000
   0.66666669  0.66666669  0.00000000
   0.33333334  0.00000000  0.00000000
   0.33333334  0.33333334  0.00000000
   0.33333334  0.66666669  0.00000000
   0.11068511  0.22244981  0.95539999
   0.22244981  0.11068511  0.04460000
   0.11068511  0.55578315  0.95539999
   0.22244981  0.44401845  0.04460000
   0.11068511  0.88911647  0.95539999
   0.22244981  0.77735180  0.04460000
   0.44401845  0.22244981  0.95539999
   0.55578315  0.11068511  0.04460000
   0.44401845  0.55578315  0.95539999
   0.55578315  0.44401845  0.04460000
   0.44401845  0.88911647  0.95539999
   0.55578315  0.77735180  0.04460000
   0.77735180  0.22244981  0.95539999
   0.88911647  0.11068511  0.04460000
   0.77735180  0.55578315  0.95539999
   0.88911647  0.44401845  0.04460000
   0.77735180  0.88911647  0.95539999
   0.88911647  0.77735180  0.04460000
unknown system                          
           1
     8.668787    4.994513    0.000000
    -8.673012    5.001783    0.000000
     0.000000    0.000000   30.000000
   V    Mo   W    S 
   3   3   3  18
Direct configuration=     2
   0.66828891 -0.00027225  0.00002460
   0.99907794  0.33287596 -0.00003313
   0.66823398  0.33511585  0.00001539
  -0.00146928 -0.00267070 -0.00015308
  -0.00156588  0.66790421 -0.00017077
   0.66945046  0.66800444  0.00012328
   0.33100711 -0.00114984 -0.00007311
   0.33325407  0.33324129  0.00015587
   0.33328192  0.66666500  0.00015438
   0.10952162  0.22492332  0.95205742
   0.22301919  0.11169619  0.04923522
   0.10974267  0.55148958  0.95199892
   0.21855866  0.44266108  0.04813613
   0.11202302  0.88931967  0.95063791
   0.22304704  0.77803609  0.04923534
   0.44804030  0.22379152  0.95191548
   0.55896556  0.11253194  0.04679273
   0.44363728  0.55504090  0.95082346
   0.55685740  0.44151811  0.04799674
   0.44803543  0.89062947  0.95191926
   0.55663394  0.78156998  0.04806074
   0.77760394  0.22230156  0.95414895
   0.88655861  0.11320629  0.04691936
   0.77560851  0.55098680  0.95192415
   0.88677370  0.43984123  0.04685514
   0.77541611  0.89133873  0.95198776
   0.88861227  0.77761805  0.04931176
unknown system                          
           1
     8.486058    4.896647    0.000000
    -8.488456    4.900759    0.000000
     0.000000    0.000000   30.000000
   V    Mo   W    S 
   3   3   3  18
Direct configuration=     3
   0.66862961 -0.00046851  0.00007663
   0.99905019  0.33286361 -0.00006613
   0.66858866  0.33566436  0.00006487
  -0.00164786 -0.00386339 -0.00017088
  -0.00174386  0.66891883 -0.00018585
   0.67036277  0.66845790  0.00013136
   0.32990223 -0.00170404 -0.00004021
   0.33326051  0.33334470  0.00011765
   0.33329407  0.66656442  0.00011650
   0.10971604  0.22505599  0.95212411
   0.22323808  0.11179477  0.04923134
   0.10990448  0.55152484  0.95207545
   0.21870334  0.44270530  0.04812561
   0.11221991  0.88943104  0.95045488
   0.22325515  0.77811684  0.04922816
   0.44788059  0.22371880  0.95200758
   0.55878761  0.11247130  0.04660870
   0.44342162  0.55494997  0.95090946
   0.55667810  0.44137221  0.04799704
   0.44787752  0.89059649  0.95201070
   0.55648366  0.78155297  0.04805268
   0.77763183  0.22229448  0.95423006
   0.88650419  0.11323045  0.04685855
   0.77553955  0.55085448  0.95183771
   0.88668453  0.43975721  0.04680107
   0.77538249  0.89140496  0.95189254
   0.88860944  0.77760450  0.04951029
unknown system                          
           1
     8.282202    4.771091    0.000000
    -8.290987    4.786266    0.000000
     0.000000    0.000000   30.000000
   V    Mo   W    S 
   3   3   3  18
Direct configuration=     4
   0.66934330 -0.00178133  0.00027172
   0.99986893  0.33326348 -0.00015946
   0.66934325  0.33772233  0.00025281
  -0.00162388 -0.00864942 -0.00017025
  -0.00171534  0.67371364 -0.00017614
   0.67338384  0.66996177  0.00010648
   0.32514215 -0.00408754  0.00011186
   0.33327173  0.33396490 -0.00007337
   0.33333247  0.66592096 -0.00007513
   0.10907203  0.22525606  0.95096202
   0.22307538  0.11174263  0.05084892
   0.10914739  0.55059053  0.95094832
   0.21760173  0.44207213  0.04963332
   0.11203324  0.88937909  0.94802838
   0.22305382  0.77788413  0.05083478
   0.44883716  0.22409169  0.95087638
   0.55957051  0.11295617  0.04719950
   0.44364946  0.55512101  0.94962524
   0.55730241  0.44102317  0.04945963
   0.44885094  0.89135999  0.95088243
   0.55721497  0.78261540  0.04948377
   0.77765695  0.22221744  0.95330859
   0.88610652  0.11362529  0.04790658
   0.77495310  0.54966338  0.95005891
   0.88618602  0.43898524  0.04787735
   0.77490789  0.89200658  0.95009201
   0.88864850  0.77759574  0.05188525
unknown system                          
           1
     8.292375    4.770083    0.000000
    -8.307610    4.796433    0.000000
     0.000000    0.000000   30.000000
   V    Mo   W    S 
   3   3   3  18
Direct configuration=     5
   0.67059853 -0.00428502  0.00053140
   1.00204608  0.33432932 -0.00019850
   0.67064294  0.34148182  0.00050687
  -0.00095665 -0.01749858 -0.00005900
  -0.00104500  0.68318917 -0.00008046
   0.67820676  0.67238790 -0.00004840
   0.31542156 -0.00895705  0.00026074
   0.33346487  0.33596083 -0.00033678
   0.33358169  0.66408716 -0.00034218
   0.10766901  0.22410743  0.94959605
   0.22191844  0.11142929  0.05287904
   0.10764894  0.55019955  0.94962128
   0.21619900  0.44136265  0.05167490
   0.11125360  0.88897842  0.94428398
   0.22187911  0.77703506  0.05285144
   0.44975877  0.22395614  0.94963274
   0.55944138  0.11301588  0.04773025
   0.44518415  0.55589545  0.94798637
   0.55820883  0.44136431  0.05138665
   0.44978426  0.89246273  0.94964667
   0.55821898  0.78336383  0.05138566
   0.77767456  0.22209820  0.95191063
   0.88628106  0.11335560  0.04925224
   0.77515847  0.54926291  0.94769382
   0.88628110  0.43954730  0.04925147
   0.77518143  0.89252231  0.94770686
   0.88851261  0.77756186  0.05527617
unknown system                          
           1
     8.280539    4.763734    0.000000
    -8.295288    4.789241    0.000000
     0.000000    0.000000   30.000000
   V    Mo   W    S 
   3   3   3  18
Direct configuration=     6
   0.67136813 -0.00476349  0.00049827
   1.00249896  0.33455118 -0.00023100
   0.67141458  0.34273477  0.00048535
  -0.00089388 -0.01759233 -0.00004454
  -0.00101463  0.68331558 -0.00005217
   0.67781045  0.67219670  0.00000392
   0.31371486 -0.00979416  0.00012212
   0.33384180  0.33742315 -0.00033389
   0.33397093  0.66299697 -0.00033697
   0.10729138  0.22293897  0.94978824
   0.22127008  0.11127559  0.05287074
   0.10728670  0.55099908  0.94980703
   0.21639263  0.44147076  0.05179633
   0.11101426  0.88885721  0.94387470
   0.22123162  0.77654514  0.05284086
   0.44931212  0.22343860  0.94983999
   0.55805229  0.11232006  0.04739826
   0.44605096  0.55631753  0.94784673
   0.55816821  0.44187362  0.05140467
   0.44932925  0.89251151  0.94985260
   0.55816606  0.78281451  0.05141684
   0.77770304  0.22212739  0.95195980
   0.88706130  0.11272177  0.04917790
   0.77594497  0.55009634  0.94764917
   0.88706293  0.44095792  0.04916711
   0.77596609  0.89247764  0.94766793
   0.88819936  0.77740247  0.05552992
unknown system                          
           1
     8.288167    4.767316    0.000000
    -8.303632    4.794063    0.000000
     0.000000    0.000000   30.000000
   V    Mo   W    S 
   3   3   3  18
Direct configuration=     7
   0.67259262 -0.00537933  0.00051300
   1.00298340  0.33478946 -0.00030758
   0.67264280  0.34458072  0.00050071
  -0.00098279 -0.01933815 -0.00000007
  -0.00112812  0.68495520 -0.00001407
   0.67773542  0.67216404  0.00006381
   0.31073912 -0.01126440  0.00012755
   0.33445394  0.33944048 -0.00036021
   0.33460928  0.66157472 -0.00036214
   0.10699498  0.22216810  0.94988094
   0.22086112  0.11127555  0.05292470
   0.10699856  0.55146736  0.94990214
   0.21643256  0.44149903  0.05209796
   0.11047075  0.88857060  0.94330986
   0.22082887  0.77614930  0.05289114
   0.44899913  0.22313010  0.94998532
   0.55703380  0.11182070  0.04699800
   0.44671780  0.55664070  0.94751208
   0.55820840  0.44222620  0.05158841
   0.44900648  0.89248767  0.94999817
   0.55820754  0.78252519  0.05160452
   0.77776406  0.22215799  0.95196939
   0.88763026  0.11233180  0.04922258
   0.77639071  0.55061468  0.94741795
   0.88763047  0.44192718  0.04921283
   0.77641496  0.89239663  0.94743428
   0.88797837  0.77730293  0.05588864
unknown system                          
           1
     8.292393    4.767795    0.000000
    -8.309572    4.797511    0.000000
     0.000000    0.000000   30.000000
   V    Mo   W    S 
   3   3   3  18
Direct configuration=     8
   0.67313087 -0.00547657  0.00051294
   1.00301815  0.33480748 -0.00034497
   0.67318241  0.34521866  0.00050148
  -0.00121598 -0.01955622 -0.00000468
  -0.00137025  0.68493646 -0.00001775
   0.67722496  0.67191152  0.00008231
   0.31019727 -0.01152713  0.00011715
   0.33483750  0.34036322 -0.00037162
   0.33500509  0.66102955 -0.00037310
   0.10702902  0.22204581  0.94999886
   0.22078902  0.11135570  0.05283704
   0.10704015  0.55162760  0.95001991
   0.21648049  0.44152400  0.05212347
   0.11028620  0.88847522  0.94329077
   0.22075837  0.77600188  0.05280040
   0.44887134  0.22306711  0.95011849
   0.55673440  0.11166864  0.04678243
   0.44684015  0.55669783  0.94742584
   0.55816421  0.44225790  0.05158523
   0.44887632  0.89241558  0.95013279
   0.55816133  0.78245041  0.05160257
   0.77779781  0.22217857  0.95205459
   0.88777626  0.11225662  0.04918524
   0.77647704  0.55076551  0.94743466
   0.88778086  0.44214826  0.04917513
   0.77650148  0.89233581  0.94745238
   0.88784001  0.77723504  0.05587833
unknown system                          
           1
     8.289691    4.768446    0.000000
    -8.305040    4.794994    0.000000
     0.000000    0.000000   30.000000
   V    Mo   W    S 
   3   3   3  18
Direct configuration=     9
   0.67425983 -0.00579706  0.00052497
   1.00317999  0.33488797 -0.00042060
   0.67431557  0.34666926  0.00051536
  -0.00163873 -0.02052541  0.00000504
  -0.00181077  0.68547347 -0.00000728
   0.67645369  0.67153391  0.00011668
   0.30854351 -0.01233572  0.00011390
   0.33565776  0.34231194 -0.00039503
   0.33585309  0.65988748 -0.00039576
   0.10701572  0.22172554  0.95015481
   0.22056281  0.11147816  0.05276346
   0.10703672  0.55193632  0.95017798
   0.21650874  0.44153980  0.05228027
   0.10988441  0.88826835  0.94304744
   0.22053433  0.77565997  0.05272055
   0.44868058  0.22293903  0.95030653
   0.55615160  0.11138067  0.04639737
   0.44717580  0.55685780  0.94714281
   0.55813252  0.44234114  0.05168853
   0.44867966  0.89234128  0.95032339
   0.55813056  0.78234478  0.05170862
   0.77786343  0.22221329  0.95213722
   0.88807915  0.11209181  0.04919372
   0.77664615  0.55103406  0.94733182
   0.88808629  0.44262112  0.04918354
   0.77667446  0.89223827  0.94734983
   0.88755758  0.77709722  0.05603473
unknown system                          
           1
     8.278213    4.764923    0.000000
    -8.291316    4.787581    0.000000
     0.000000    0.000000   30.000000
   V    Mo   W    S 
   3   3   3  18
Direct configuration=    10
   0.67285291 -0.00546671  0.00051193
   1.00308959  0.33480782 -0.00031577
   0.67286427  0.34478886  0.00049990
  -0.00094656 -0.01933517 -0.00000741
  -0.00100985  0.68504737 -0.00001678
   0.67765656  0.67223235  0.00007919
   0.31032786 -0.01147970  0.00010653
   0.33434970  0.33978203 -0.00036958
   0.33457283  0.66118248 -0.00037523
   0.10691216  0.22200011  0.94993030
   0.22081588  0.11129970  0.05291324
   0.10692326  0.55155991  0.94995498
   0.21644693  0.44150950  0.05212661
   0.11037224  0.88851842  0.94326094
   0.22077020  0.77608053  0.05287948
   0.44884412  0.22302375  0.95005084
   0.55670368  0.11161619  0.04687879
   0.44685302  0.55670693  0.94752396
   0.55817118  0.44234307  0.05156199
   0.44889147  0.89245926  0.95007391
   0.55819406  0.78241738  0.05157410
   0.77779389  0.22214643  0.95202712
   0.88777086  0.11221946  0.04916042
   0.77658985  0.55082764  0.94744475
   0.88783462  0.44221040  0.04916165
   0.77658787  0.89241129  0.94747221
   0.88798187  0.77730514  0.05589181
unknown system                          
           1
     8.281217    4.767959    0.000000
    -8.293341    4.788923    0.000000
     0.000000    0.000000   30.000000
   V    Mo   W    S 
   3   3   3  18
Direct configuration=    11
   0.67087583 -0.00513926  0.00050661
   1.00341578  0.33488905 -0.00013587
   0.67077474  0.34208172  0.00050077
   0.00049050 -0.01776007 -0.00001262
   0.00064804  0.68506324 -0.00003097
   0.68038608  0.67384362  0.00005165
   0.31223812 -0.01058345  0.00006069
   0.33157800  0.33571121 -0.00035699
   0.33190310  0.66264145 -0.00038599
   0.10655790  0.22219202  0.94956335
   0.22117323  0.11099796  0.05321512
   0.10655820  0.55100608  0.94961250
   0.21628930  0.44145726  0.05197670
   0.11103588  0.88887164  0.94339116
   0.22112794  0.77673367  0.05321162
   0.44879149  0.22298595  0.94974067
   0.55699597  0.11164882  0.04748687
   0.44660408  0.55659063  0.94821730
   0.55815253  0.44256114  0.05127061
   0.44897075  0.89255330  0.94977376
   0.55822435  0.78230214  0.05131611
   0.77774245  0.22203454  0.95188964
   0.88753873  0.11223495  0.04904268
   0.77682869  0.55081665  0.94764936
   0.88772480  0.44200610  0.04904219
   0.77678020  0.89275730  0.94763731
   0.88880777  0.77771679  0.05576566
unknown system                          
           1
     8.280948    4.767541    0.000000
    -8.293253    4.788819    0.000000
     0.000000    0.000000   30.000000
   V    Mo   W    S 
   3   3   3  18
Direct configuration=    12
   0.67005113 -0.00505045  0.00051450
   1.00382381  0.33507485 -0.00004930
   0.66989882  0.34104979  0.00051591
   0.00126280 -0.01695769 -0.00002624
   0.00146675  0.68507864 -0.00003827
   0.68217899  0.67478176  0.00003587
   0.31294858 -0.01024470  0.00002019
   0.32989828  0.33346421 -0.00036490
   0.33024626  0.66324697 -0.00039310
   0.10630027  0.22216184  0.94935749
   0.22132876  0.11086290  0.05341692
   0.10629413  0.55077068  0.94941534
   0.21616399  0.44141758  0.05198691
   0.11130528  0.88902344  0.94334910
   0.22130698  0.77703366  0.05342148
   0.44870534  0.22291512  0.94961831
   0.55697825  0.11161863  0.04770612
   0.44666424  0.55661954  0.94856198
   0.55810425  0.44270118  0.05111859
   0.44889875  0.89256067  0.94964182
   0.55815947  0.78212556  0.05119713
   0.77771051  0.22200805  0.95183683
   0.88753580  0.11220404  0.04900173
   0.77701592  0.55084679  0.94771705
   0.88771151  0.44201533  0.04897735
   0.77698833  0.89294498  0.94766279
   0.88926728  0.77794110  0.05579832
unknown system                          
           1
     8.283871    4.768940    0.000000
    -8.296420    4.790640    0.000000
     0.000000    0.000000   30.000000
   V    Mo   W    S 
   3   3   3  18
Direct configuration=    13
   0.67093486 -0.00543437  0.00056221
   1.00446728  0.33541227 -0.00007181
   0.67076190  0.34235779  0.00057048
   0.00118736 -0.01743943 -0.00003229
   0.00133786  0.68547538 -0.00003552
   0.68322490  0.67524457  0.00005165
   0.31160700 -0.01088935 -0.00001653
   0.32933148  0.33347667 -0.00040736
   0.32969316  0.66262931 -0.00042294
   0.10619162  0.22182531  0.94941266
   0.22124125  0.11094773  0.05342760
   0.10618768  0.55099582  0.94947368
   0.21614947  0.44142248  0.05212773
   0.11102206  0.88888349  0.94312626
   0.22125588  0.77688691  0.05342199
   0.44838015  0.22274692  0.94982336
   0.55637141  0.11134186  0.04730371
   0.44709291  0.55682191  0.94862207
   0.55790671  0.44283221  0.05104090
   0.44852024  0.89236539  0.94983489
   0.55792814  0.78176665  0.05114191
   0.77772935  0.22204909  0.95196547
   0.88783838  0.11203920  0.04896467
   0.77726652  0.55109916  0.94766381
   0.88794437  0.44244467  0.04891252
   0.77728806  0.89292629  0.94757790
   0.88935447  0.77798655  0.05596090
unknown system                          
           1
     8.288466    4.771995    0.000000
    -8.300721    4.793187    0.000000
     0.000000    0.000000   30.000000
   V    Mo   W    S 
   3   3   3  18
Direct configuration=    14
   0.67132167 -0.00553738  0.00056955
   1.00454500  0.33545114 -0.00009152
   0.67115397  0.34285739  0.00057808
   0.00103200 -0.01764319 -0.00002949
   0.00117492  0.68552189 -0.00003253
   0.68311752  0.67519048  0.00006541
   0.31118762 -0.01109236 -0.00001677
   0.32946160  0.33389762 -0.00041079
   0.32983572  0.66233424 -0.00042577
   0.10618300  0.22176185  0.94944439
   0.22118676  0.11098005  0.05340559
   0.10618192  0.55105331  0.94950624
   0.21614372  0.44141741  0.05216708
   0.11090083  0.88882013  0.94307543
   0.22120281  0.77680425  0.05339709
   0.44833629  0.22271519  0.94988018
   0.55624708  0.11128219  0.04717795
   0.44718844  0.55686684  0.94856611
   0.55788932  0.44286310  0.05105937
   0.44847144  0.89234625  0.94989367
   0.55791317  0.78171933  0.05115820
   0.77774568  0.22206039  0.95199620
   0.88790556  0.11202087  0.04897688
   0.77728165  0.55114775  0.94762317
   0.88801033  0.44253207  0.04892580
   0.77730506  0.89288632  0.94754032
   0.88929139  0.77795731  0.05600005
unknown system                          
           1
     8.284141    4.770602    0.000000
    -8.295454    4.790162    0.000000
     0.000000    0.000000   30.000000
   V    Mo   W    S 
   3   3   3  18
Direct configuration=    15
   0.67195438 -0.00578893  0.00060178
   1.00501502  0.33566919 -0.00009436
   0.67176524  0.34368395  0.00061277
   0.00100136 -0.01776960 -0.00002883
   0.00117240  0.68565345 -0.00002920
   0.68390468  0.67562698  0.00009211
   0.31041144 -0.01147393 -0.00003928
   0.32884225  0.33370381 -0.00042439
   0.32927664  0.66193048 -0.00043851
   0.10604027  0.22158493  0.94943154
   0.22113151  0.11100271  0.05344130
   0.10604268  0.55109353  0.94950004
   0.21607906  0.44138557  0.05225417
   0.11071942  0.88872601  0.94293641
   0.22115724  0.77674228  0.05342819
   0.44814711  0.22258960  0.94997791
   0.55591139  0.11110250  0.04693661
   0.44746314  0.55699734  0.94864518
   0.55778002  0.44302080  0.05101018
   0.44828310  0.89227642  0.94999646
   0.55781539  0.78147326  0.05111051
   0.77777726  0.22207383  0.95206901
   0.88806966  0.11196369  0.04897062
   0.77742882  0.55130214  0.94754835
   0.88818175  0.44276004  0.04891772
   0.77745716  0.89287394  0.94746297
   0.88938604  0.77801045  0.05611065
unknown system                          
           1
     8.288804    4.771933    0.000000
    -8.301247    4.793450    0.000000
     0.000000    0.000000   30.000000
   V    Mo   W    S 
   3   3   3  18
Direct configuration=    16
   0.67239121 -0.00583169  0.00062599
   1.00549727  0.33591105 -0.00008318
   0.67218517  0.34416946  0.00064088
   0.00114895 -0.01764239 -0.00003443
   0.00130377  0.68567697 -0.00003526
   0.68482095  0.67607152  0.00010514
   0.30995863 -0.01168792 -0.00006589
   0.32797571  0.33309715 -0.00044440
   0.32842870  0.66165943 -0.00045905
   0.10589397  0.22152180  0.94940110
   0.22112261  0.11098475  0.05348607
   0.10589690  0.55101292  0.94947649
   0.21596755  0.44133181  0.05229509
   0.11063036  0.88868143  0.94287298
   0.22115979  0.77676017  0.05347144
   0.44799178  0.22248864  0.95005290
   0.55569961  0.11100036  0.04678121
   0.44762207  0.55706858  0.94880453
   0.55769003  0.44316164  0.05092539
   0.44811588  0.89221416  0.95006820
   0.55772444  0.78124169  0.05103718
   0.77784753  0.22211566  0.95213084
   0.88819864  0.11199801  0.04895918
   0.77753169  0.55140713  0.94751077
   0.88829260  0.44284266  0.04889594
   0.77757558  0.89286766  0.94741067
   0.88954305  0.77809182  0.05617011
unknown system                          
           1
     8.295536    4.775288    0.000000
    -8.308489    4.797688    0.000000
     0.000000    0.000000   30.000000
   V    Mo   W    S 
   3   3   3  18
Direct configuration=    17
   0.67333693 -0.00613721  0.00064052
   1.00551015  0.33592027 -0.00013446
   0.67314561  0.34545210  0.00065742
   0.00071504 -0.01817351 -0.00002672
   0.00083678  0.68576132 -0.00002833
   0.68468765  0.67599752  0.00013372
   0.30899781 -0.01214667 -0.00006234
   0.32831499  0.33404407 -0.00045926
   0.32879521  0.66102940 -0.00047317
   0.10591399  0.22141561  0.94946519
   0.22101622  0.11103691  0.05341012
   0.10592437  0.55114415  0.94954437
   0.21598746  0.44133738  0.05235816
   0.11035248  0.88853852  0.94283020
   0.22105505  0.77660569  0.05339072
   0.44793437  0.22245371  0.95019744
   0.55550050  0.11090309  0.04648721
   0.44776327  0.55713180  0.94870933
   0.55767869  0.44322585  0.05094222
   0.44805701  0.89218400  0.95021852
   0.55772071  0.78117155  0.05105082
   0.77783282  0.22211077  0.95220075
   0.88827757  0.11193769  0.04899463
   0.77750509  0.55148578  0.94745799
   0.88838083  0.44299289  0.04893497
   0.77754733  0.89275214  0.94736482
   0.88942651  0.77803966  0.05619504
unknown system                          
           1
     8.294881    4.775389    0.000000
    -8.307408    4.797054    0.000000
     0.000000    0.000000   30.000000
   V    Mo   W    S 
   3   3   3  18
Direct configuration=    18
   0.67520102 -0.00662356  0.00068985
   1.00586682  0.33606718 -0.00021166
   0.67499845  0.34772228  0.00071074
   0.00017139 -0.01858136 -0.00002017
   0.00031137  0.68566887 -0.00001735
   0.68513402  0.67630830  0.00019230
   0.30742427 -0.01290015 -0.00005606
   0.32793264  0.33484177 -0.00050046
   0.32854067  0.65985571 -0.00051412
   0.10579104  0.22123581  0.94949720
   0.22085863  0.11109709  0.05336057
   0.10581525  0.55121732  0.94959000
   0.21588369  0.44128040  0.05250297
   0.10983305  0.88827388  0.94269181
   0.22089522  0.77640003  0.05332626
   0.44776242  0.22232699  0.95045852
   0.55513657  0.11068860  0.04592397
   0.44809357  0.55727797  0.94868113
   0.55759941  0.44344684  0.05091213
   0.44791787  0.89215093  0.95049848
   0.55768650  0.78093003  0.05101496
   0.77784806  0.22209307  0.95233034
   0.88844106  0.11189726  0.04907674
   0.77751430  0.55167340  0.94729764
   0.88861374  0.44324489  0.04903105
   0.77754118  0.89258124  0.94721904
   0.88940226  0.77803966  0.05631405
unknown system                          
           1
     8.294464    4.775491    0.000000
    -8.306048    4.795517    0.000000
     0.000000    0.000000   30.000000
   V    Mo   W    S 
   3   3   3  18
Direct configuration=    19
   0.67455380 -0.00645790  0.00067615
   1.00583156  0.33605736 -0.00017486
   0.67434549  0.34692746  0.00069576
   0.00042846 -0.01834553 -0.00002447
   0.00057044  0.68568196 -0.00002139
   0.68522093  0.67632602  0.00017176
   0.30796393 -0.01264379 -0.00006415
   0.32784833  0.33430241 -0.00048514
   0.32841297  0.66031194 -0.00049799
   0.10578955  0.22127941  0.94945879
   0.22092347  0.11106839  0.05340567
   0.10580791  0.55116697  0.94954644
   0.21590114  0.44129086  0.05246531
   0.11001759  0.88836763  0.94272006
   0.22096035  0.77648996  0.05337610
   0.44780016  0.22235454  0.95036001
   0.55523301  0.11074687  0.04612126
   0.44800889  0.55724253  0.94873437
   0.55760941  0.44339926  0.05090756
   0.44794471  0.89215655  0.95039351
   0.55768336  0.78097020  0.05101078
   0.77785229  0.22210350  0.95228440
   0.88839499  0.11191457  0.04904741
   0.77753583  0.55161570  0.94734455
   0.88854481  0.44316561  0.04899704
   0.77756760  0.89265601  0.94726257
   0.88946345  0.77806594  0.05628840
unknown system                          
           1
     8.294364    4.775340    0.000000
    -8.306105    4.795638    0.000000
     0.000000    0.000000   30.000000
   V    Mo   W    S 
   3   3   3  18
Direct configuration=    20
   0.67429761 -0.00619623  0.00068830
   1.00590649  0.33623847 -0.00012281
   0.67426375  0.34707698  0.00071186
   0.00088484 -0.01790131 -0.00003392
   0.00062541  0.68541346 -0.00004141
   0.68639869  0.67643329  0.00015409
   0.30812314 -0.01253830 -0.00008573
   0.32710791  0.33293533 -0.00049299
   0.32742942  0.66074018 -0.00049526
   0.10569695  0.22125208  0.94937805
   0.22100095  0.11101393  0.05348873
   0.10569986  0.55107214  0.94944848
   0.21586237  0.44126555  0.05243846
   0.11011332  0.88841442  0.94273506
   0.22108331  0.77662599  0.05346478
   0.44783373  0.22234885  0.95036342
   0.55521398  0.11091784  0.04615415
   0.44804205  0.55725551  0.94899864
   0.55763957  0.44343995  0.05077600
   0.44777576  0.89205577  0.95034313
   0.55756928  0.78074512  0.05091138
   0.77782260  0.22223429  0.95229846
   0.88849885  0.11198246  0.04903570
   0.77754549  0.55148837  0.94741022
   0.88834580  0.44301717  0.04892087
   0.77770349  0.89268887  0.94727567
   0.88972981  0.77819427  0.05627658
unknown system                          
           1
     8.294484    4.775404    0.000000
    -8.306242    4.795731    0.000000
     0.000000    0.000000   30.000000
   V    Mo   W    S 
   3   3   3  18
Direct configuration=    21
   0.67430839 -0.00620651  0.00068465
   1.00589398  0.33622734 -0.00012686
   0.67426585  0.34705638  0.00071002
   0.00083771 -0.01795949 -0.00003150
   0.00059620  0.68543828 -0.00004084
   0.68625276  0.67638180  0.00015533
   0.30811665 -0.01254090 -0.00008434
   0.32722050  0.33311514 -0.00049119
   0.32755657  0.66068280 -0.00049605
   0.10570982  0.22125500  0.94938848
   0.22098936  0.11101861  0.05347592
   0.10571416  0.55108339  0.94946281
   0.21586566  0.44127019  0.05244173
   0.11010873  0.88841507  0.94273651
   0.22107571  0.77661220  0.05345332
   0.44783590  0.22235657  0.95036483
   0.55521866  0.11090778  0.04615414
   0.44803344  0.55724981  0.94896520
   0.55764105  0.44342557  0.05078589
   0.44779072  0.89206097  0.95034688
   0.55757536  0.78077227  0.05092706
   0.77782748  0.22222749  0.95229845
   0.88849488  0.11197904  0.04903663
   0.77753945  0.55149580  0.94741483
   0.88835505  0.44302353  0.04892063
   0.77769386  0.89268851  0.94727332
   0.88969655  0.77817783  0.05627403
unknown system                          
           1
     8.299674    4.778711    0.000000
    -8.311036    4.798354    0.000000
     0.000000    0.000000   30.000000
   V    Mo   W    S 
   3   3   3  18
Direct configuration=    22
   0.67428577 -0.00619755  0.00068384
   1.00589083  0.33622602 -0.00012598
   0.67424226  0.34702352  0.00070924
   0.00084405 -0.01795529 -0.00003159
   0.00060295  0.68544038 -0.00004100
   0.68624313  0.67637604  0.00015477
   0.30813679 -0.01253131 -0.00008426
   0.32722748  0.33311089 -0.00049042
   0.32756219  0.66069432 -0.00049535
   0.10571049  0.22125712  0.94938881
   0.22099024  0.11101697  0.05347630
   0.10571420  0.55108207  0.94946307
   0.21586674  0.44127089  0.05244017
   0.11011514  0.88841844  0.94273804
   0.22107659  0.77661488  0.05345379
   0.44783878  0.22235880  0.95036142
   0.55522177  0.11090979  0.04616151
   0.44802903  0.55724768  0.94896394
   0.55764219  0.44342112  0.05078658
   0.44779292  0.89206182  0.95034309
   0.55757615  0.78077699  0.05092821
   0.77782844  0.22222850  0.95229706
   0.88849282  0.11197962  0.04903486
   0.77753994  0.55149272  0.94741731
   0.88835225  0.44302045  0.04891839
   0.77769455  0.89269201  0.94727527
   0.88969676  0.77817758  0.05627283
unknown system                          
           1
     8.299476    4.778346    0.000000
    -8.311012    4.798289    0.000000
     0.000000    0.000000   30.000000
   V    Mo   W    S 
   3   3   3  18
Direct configuration=    23
   0.67597116 -0.00653261  0.00074696
   1.00627715  0.33632800 -0.00019143
   0.67585214  0.34884047  0.00075556
   0.00048237 -0.01802743 -0.00004345
   0.00038400  0.68527295 -0.00002764
   0.68713924  0.67705166  0.00020722
   0.30691810 -0.01313258 -0.00008412
   0.32623465  0.33303130 -0.00053720
   0.32673303  0.65984205 -0.00052770
   0.10554616  0.22118874  0.94938997
   0.22092396  0.11107380  0.05348797
   0.10556085  0.55101543  0.94945570
   0.21571682  0.44117193  0.05251530
   0.10967960  0.88817306  0.94265106
   0.22094061  0.77647681  0.05343516
   0.44767597  0.22222014  0.95057067
   0.55498659  0.11073751  0.04569327
   0.44829827  0.55737962  0.94906930
   0.55753828  0.44367746  0.05074413
   0.44769911  0.89206252  0.95058698
   0.55758185  0.78053136  0.05080729
   0.77785045  0.22219108  0.95239821
   0.88859170  0.11200997  0.04909804
   0.77756803  0.55166897  0.94720525
   0.88862506  0.44320518  0.04905063
   0.77764458  0.89251701  0.94717465
   0.88979474  0.77824004  0.05636810
unknown system                          
           1
     8.303844    4.778090    0.000000
    -8.317818    4.802257    0.000000
     0.000000    0.000000   30.000000
   V    Mo   W    S 
   3   3   3  18
Direct configuration=    24
   0.67545890 -0.00647510  0.00073261
   1.00617211  0.33627621 -0.00017636
   0.67533482  0.34826835  0.00073908
   0.00057053 -0.01802313 -0.00004783
   0.00048416  0.68536389 -0.00002542
   0.68682315  0.67688973  0.00019653
   0.30726558 -0.01296979 -0.00008118
   0.32655773  0.33308769 -0.00052736
   0.32704085  0.66011745 -0.00051100
   0.10560483  0.22121313  0.94940444
   0.22094115  0.11105814  0.05348598
   0.10561100  0.55104607  0.94946255
   0.21577338  0.44120416  0.05249195
   0.10980062  0.88823599  0.94266839
   0.22095794  0.77651038  0.05343364
   0.44772109  0.22225279  0.95050080
   0.55503794  0.11076925  0.04582906
   0.44823264  0.55735182  0.94902634
   0.55756376  0.44360664  0.05077868
   0.44773423  0.89206933  0.95051187