   27   27  100    1
  0.9710400E+02  0.1002848E-08  0.1002848E-08  0.3000000E-08  0.5000000E-15
  1.000000000000000E-004
  CAR 
 unknown system                          
    159     34    120
 
  0.0000000E+00  0.0000000E+00  0.0000000E+00  0.1562500E-01
    1      -17.818339   1.000000
    2      -16.621535   1.000000
    3      -16.594462   1.000000
    4      -16.469523   1.000000
    5      -16.463207   1.000000
    6      -16.453464   1.000000
    7      -16.397907   1.000000
    8      -16.311075   1.000000
    9      -16.112194   1.000000
   10      -16.062360   1.000000
   11      -16.014105   1.000000
   12      -15.979309   1.000000
   13      -15.934852   1.000000
   14      -15.880225   1.000000
   15      -15.608259   1.000000
   16      -15.529984   1.000000
   17      -15.461517   1.000000
   18      -15.425934   1.000000
   19       -9.297981   1.000000
   20       -8.898779   1.000000
   21       -8.828479   1.000000
   22       -8.767457   1.000000
   23       -8.674633   1.000000
   24       -8.626129   1.000000
   25       -8.613661   1.000000
   26       -8.516708   1.000000
   27       -8.500515   1.000000
   28       -8.410094   1.000000
   29       -8.371293   1.000000
   30       -8.280427   1.000000
   31       -8.263657   1.000000
   32       -8.193647   1.000000
   33       -8.158993   1.000000
   34       -8.043954   1.000000
   35       -7.921366   1.000000
   36       -7.877884   1.000000
   37       -7.732336   1.000000
   38       -7.622367   1.000000
   39       -7.520803   1.000000
   40       -7.393720   1.000000
   41       -7.345169   1.000000
   42       -7.236549   1.000000
   43       -7.209405   1.000000
   44       -6.859072   1.000000
   45       -6.810084   1.000000
   46       -6.743760   1.000000
   47       -6.700903   1.000000
   48       -6.675944   1.000000
   49       -6.559630   1.000000
   50       -6.502343   1.000000
   51       -6.457808   1.000000
   52       -6.399887   1.000000
   53       -6.316332   1.000000
   54       -6.277376   1.000000
   55       -6.238773   1.000000
   56       -6.141912   1.000000
   57       -6.066790   1.000000
   58       -5.845536   1.000000
   59       -5.633235   1.000000
   60       -5.582881   1.000000
   61       -5.473458   1.000000
   62       -5.448288   1.000000
   63       -5.350653   1.000000
   64       -5.254058   1.000000
   65       -4.940597   1.000000
   66       -4.909208   1.000000
   67       -4.778692   1.000000
   68       -4.745010   1.000000
   69       -4.675099   1.000000
   70       -4.580885   1.000000
   71       -4.534466   1.000000
   72       -4.478598   1.000000
   73       -4.464639   1.000000
   74       -4.297277   1.000000
   75       -4.133327   1.000000
   76       -4.071979   1.000000
   77       -3.531759   0.999814
   78       -3.486873   0.999406
   79       -3.437364   0.998085
   80       -3.090083   0.668668
   81       -3.034597   0.517506
   82       -2.662289   0.004817
   83       -2.576283   0.000695
   84       -2.522313   0.000173
   85       -2.497346   0.000087
   86       -2.434414   0.000013
   87       -2.266798   0.000000
   88       -2.209779   0.000000
   89       -2.035610   0.000000
   90       -2.002789   0.000000
   91       -1.851817   0.000000
   92       -1.812263   0.000000
   93       -1.700008   0.000000
   94       -1.625362   0.000000
   95       -1.427184   0.000000
   96       -1.273949   0.000000
   97       -1.134328   0.000000
   98       -1.036054   0.000000
   99       -0.889441   0.000000
  100       -0.435620   0.000000
  101       -0.363650   0.000000
  102       -0.317409   0.000000
  103       -0.300042   0.000000
  104       -0.213320   0.000000
  105       -0.129701   0.000000
  106        0.121833   0.000000
  107        0.252329   0.000000
  108        0.321711   0.000000
  109        0.363367   0.000000
  110        0.374584   0.000000
  111        0.438726   0.000000
  112        0.699227   0.000000
  113        0.840337   0.000000
  114        0.884133   0.000000
  115        0.929968   0.000000
  116        0.984252   0.000000
  117        0.999552   0.000000
  118        1.676792   0.000000
  119        1.831685   0.000000
  120        2.186772   0.000000
 
  0.1250000E+00  0.2775558E-16  0.0000000E+00  0.3125000E-01
    1      -17.792638   1.000000
    2      -16.717122   1.000000
    3      -16.619826   1.000000
    4      -16.563597   1.000000
    5      -16.516914   1.000000
    6      -16.382055   1.000000
    7      -16.298731   1.000000
    8      -16.253164   1.000000
    9      -16.183476   1.000000
   10      -16.056851   1.000000
   11      -15.998501   1.000000
   12      -15.941092   1.000000
   13      -15.914471   1.000000
   14      -15.813566   1.000000
   15      -15.618950   1.000000
   16      -15.550551   1.000000
   17      -15.475328   1.000000
   18      -15.427241   1.000000
   19       -9.284108   1.000000
   20       -9.105435   1.000000
   21       -8.945366   1.000000
   22       -8.853597   1.000000
   23       -8.760964   1.000000
   24       -8.692160   1.000000
   25       -8.576884   1.000000
   26       -8.510562   1.000000
   27       -8.474769   1.000000
   28       -8.389741   1.000000
   29       -8.352288   1.000000
   30       -8.256933   1.000000
   31       -8.197844   1.000000
   32       -8.115377   1.000000
   33       -8.042417   1.000000
   34       -7.957651   1.000000
   35       -7.824626   1.000000
   36       -7.733171   1.000000
   37       -7.679691   1.000000
   38       -7.614049   1.000000
   39       -7.538524   1.000000
   40       -7.444547   1.000000
   41       -7.278718   1.000000
   42       -7.227234   1.000000
   43       -7.192727   1.000000
   44       -6.916456   1.000000
   45       -6.855570   1.000000
   46       -6.795924   1.000000
   47       -6.755420   1.000000
   48       -6.666688   1.000000
   49       -6.588668   1.000000
   50       -6.478722   1.000000
   51       -6.415282   1.000000
   52       -6.374569   1.000000
   53       -6.338371   1.000000
   54       -6.268246   1.000000
   55       -6.222813   1.000000
   56       -6.177624   1.000000
   57       -6.093339   1.000000
   58       -5.795723   1.000000
   59       -5.678408   1.000000
   60       -5.550500   1.000000
   61       -5.478675   1.000000
   62       -5.348251   1.000000
   63       -5.314204   1.000000
   64       -5.144444   1.000000
   65       -5.110836   1.000000
   66       -5.017809   1.000000
   67       -4.996942   1.000000
   68       -4.898895   1.000000
   69       -4.737370   1.000000
   70       -4.645441   1.000000
   71       -4.551623   1.000000
   72       -4.364147   1.000000
   73       -4.264873   1.000000
   74       -4.214854   1.000000
   75       -3.994075   1.000000
   76       -3.883825   1.000000
   77       -3.716534   0.999999
   78       -3.638402   0.999992
   79       -3.487341   0.999413
   80       -2.966909   0.331879
   81       -2.917092   0.215644
   82       -2.715187   0.013391
   83       -2.612250   0.001628
   84       -2.565411   0.000531
   85       -2.498083   0.000088
   86       -2.380332   0.000002
   87       -2.298618   0.000000
   88       -2.246705   0.000000
   89       -2.093285   0.000000
   90       -2.016411   0.000000
   91       -1.863784   0.000000
   92       -1.762005   0.000000
   93       -1.640946   0.000000
   94       -1.583319   0.000000
   95       -1.399695   0.000000
   96       -1.258414   0.000000
   97       -1.130237   0.000000
   98       -1.003785   0.000000
   99       -0.850971   0.000000
  100       -0.511250   0.000000
  101       -0.448996   0.000000
  102       -0.416477   0.000000
  103       -0.340982   0.000000
  104       -0.216481   0.000000
  105       -0.111259   0.000000
  106       -0.028456   0.000000
  107        0.151063   0.000000
  108        0.236431   0.000000
  109        0.284795   0.000000
  110        0.373981   0.000000
  111        0.472833   0.000000
  112        0.736024   0.000000
  113        0.877378   0.000000
  114        0.953158   0.000000
  115        0.989085   0.000000
  116        1.032614   0.000000
  117        1.077823   0.000000
  118        1.719916   0.000000
  119        1.870831   0.000000
  120        2.222242   0.000000
 
  0.2500000E+00  0.5551115E-16  0.0000000E+00  0.3125000E-01
    1      -17.717183   1.000000
    2      -16.942227   1.000000
    3      -16.664905   1.000000
    4      -16.614823   1.000000
    5      -16.530365   1.000000
    6      -16.326297   1.000000
    7      -16.269281   1.000000
    8      -16.188890   1.000000
    9      -16.172944   1.000000
   10      -16.063083   1.000000
   11      -16.019311   1.000000
   12      -15.870144   1.000000
   13      -15.819957   1.000000
   14      -15.715132   1.000000
   15      -15.641193   1.000000
   16      -15.579196   1.000000
   17      -15.512980   1.000000
   18      -15.441472   1.000000
   19       -9.474975   1.000000
   20       -9.237024   1.000000
   21       -9.059568   1.000000
   22       -8.982585   1.000000
   23       -8.884627   1.000000
   24       -8.784878   1.000000
   25       -8.560362   1.000000
   26       -8.496850   1.000000
   27       -8.436651   1.000000
   28       -8.380621   1.000000
   29       -8.285066   1.000000
   30       -8.212324   1.000000
   31       -8.164603   1.000000
   32       -8.053791   1.000000
   33       -7.901362   1.000000
   34       -7.815707   1.000000
   35       -7.738307   1.000000
   36       -7.660785   1.000000
   37       -7.576518   1.000000
   38       -7.514882   1.000000
   39       -7.393297   1.000000
   40       -7.344335   1.000000
   41       -7.236311   1.000000
   42       -7.189591   1.000000
   43       -7.041690   1.000000
   44       -7.000495   1.000000
   45       -6.913161   1.000000
   46       -6.829118   1.000000
   47       -6.800720   1.000000
   48       -6.721091   1.000000
   49       -6.664564   1.000000
   50       -6.522341   1.000000
   51       -6.443952   1.000000
   52       -6.368415   1.000000
   53       -6.263112   1.000000
   54       -6.230479   1.000000
   55       -6.170749   1.000000
   56       -6.120152   1.000000
   57       -6.072595   1.000000
   58       -5.802258   1.000000
   59       -5.637514   1.000000
   60       -5.588695   1.000000
   61       -5.543572   1.000000
   62       -5.482244   1.000000
   63       -5.362294   1.000000
   64       -5.333391   1.000000
   65       -5.236276   1.000000
   66       -5.146126   1.000000
   67       -5.050324   1.000000
   68       -4.926575   1.000000
   69       -4.715879   1.000000
   70       -4.667431   1.000000
   71       -4.594317   1.000000
   72       -4.263678   1.000000
   73       -4.158351   1.000000
   74       -4.046009   1.000000
   75       -3.985664   1.000000
   76       -3.922589   1.000000
   77       -3.739133   1.000000
   78       -3.595671   0.999970
   79       -3.449562   0.998550
   80       -2.919040   0.219697
   81       -2.839771   0.091146
   82       -2.752277   0.025445
   83       -2.635813   0.002752
   84       -2.592194   0.001020
   85       -2.503551   0.000103
   86       -2.386934   0.000003
   87       -2.333617   0.000000
   88       -2.301808   0.000000
   89       -2.150429   0.000000
   90       -2.033828   0.000000
   91       -1.865489   0.000000
   92       -1.732668   0.000000
   93       -1.601929   0.000000
   94       -1.455559   0.000000
   95       -1.314444   0.000000
   96       -1.212360   0.000000
   97       -1.109642   0.000000
   98       -0.947447   0.000000
   99       -0.769265   0.000000
  100       -0.675505   0.000000
  101       -0.611542   0.000000
  102       -0.533110   0.000000
  103       -0.407164   0.000000
  104       -0.330167   0.000000
  105       -0.276528   0.000000
  106       -0.193436   0.000000
  107       -0.040899   0.000000
  108        0.106499   0.000000
  109        0.160506   0.000000
  110        0.377674   0.000000
  111        0.493604   0.000000
  112        0.702179   0.000000
  113        0.933338   0.000000
  114        1.016344   0.000000
  115        1.150690   0.000000
  116        1.191959   0.000000
  117        1.267702   0.000000
  118        1.841768   0.000000
  119        1.984077   0.000000
  120        2.327746   0.000000
 
  0.3750000E+00  0.0000000E+00  0.0000000E+00  0.3125000E-01
    1      -17.599945   1.000000
    2      -17.165379   1.000000
    3      -16.707994   1.000000
    4      -16.648928   1.000000
    5      -16.495789   1.000000
    6      -16.374406   1.000000
    7      -16.255705   1.000000
    8      -16.163070   1.000000
    9      -16.106779   1.000000
   10      -16.031821   1.000000
   11      -15.997757   1.000000
   12      -15.828751   1.000000
   13      -15.756114   1.000000
   14      -15.706984   1.000000
   15      -15.649620   1.000000
   16      -15.566727   1.000000
   17      -15.537765   1.000000
   18      -15.460168   1.000000
   19       -9.713494   1.000000
   20       -9.306151   1.000000
   21       -9.118232   1.000000
   22       -9.015446   1.000000
   23       -8.907195   1.000000
   24       -8.862989   1.000000
   25       -8.540197   1.000000
   26       -8.492535   1.000000
   27       -8.445591   1.000000
   28       -8.332770   1.000000
   29       -8.286347   1.000000
   30       -8.195852   1.000000
   31       -8.146889   1.000000
   32       -7.978986   1.000000
   33       -7.896075   1.000000
   34       -7.822235   1.000000
   35       -7.659360   1.000000
   36       -7.628719   1.000000
   37       -7.544252   1.000000
   38       -7.452318   1.000000
   39       -7.301155   1.000000
   40       -7.267012   1.000000
   41       -7.201638   1.000000
   42       -7.058113   1.000000
   43       -7.020323   1.000000
   44       -6.915123   1.000000
   45       -6.851833   1.000000
   46       -6.818159   1.000000
   47       -6.746257   1.000000
   48       -6.684236   1.000000
   49       -6.618820   1.000000
   50       -6.559890   1.000000
   51       -6.356343   1.000000
   52       -6.325493   1.000000
   53       -6.257814   1.000000
   54       -6.159223   1.000000
   55       -6.140755   1.000000
   56       -6.000310   1.000000
   57       -5.946085   1.000000
   58       -5.893563   1.000000
   59       -5.831988   1.000000
   60       -5.759953   1.000000
   61       -5.725319   1.000000
   62       -5.683755   1.000000
   63       -5.626745   1.000000
   64       -5.566755   1.000000
   65       -5.204613   1.000000
   66       -5.029011   1.000000
   67       -4.917339   1.000000
   68       -4.841189   1.000000
   69       -4.761716   1.000000
   70       -4.683008   1.000000
   71       -4.628659   1.000000
   72       -4.573256   1.000000
   73       -4.197338   1.000000
   74       -4.058265   1.000000
   75       -3.872000   1.000000
   76       -3.781670   1.000000
   77       -3.628049   0.999989
   78       -3.399645   0.995670
   79       -3.323509   0.981547
   80       -3.018800   0.472969
   81       -2.930866   0.245224
   82       -2.755048   0.026629
   83       -2.616120   0.001777
   84       -2.565296   0.000529
   85       -2.499057   0.000091
   86       -2.454489   0.000025
   87       -2.356608   0.000001
   88       -2.276731   0.000000
   89       -2.168738   0.000000
   90       -2.040542   0.000000
   91       -1.865786   0.000000
   92       -1.720161   0.000000
   93       -1.578513   0.000000
   94       -1.408521   0.000000
   95       -1.234181   0.000000
   96       -1.136182   0.000000
   97       -1.088350   0.000000
   98       -0.921676   0.000000
   99       -0.780362   0.000000
  100       -0.745491   0.000000
  101       -0.676421   0.000000
  102       -0.612140   0.000000
  103       -0.547298   0.000000
  104       -0.477270   0.000000
  105       -0.376579   0.000000
  106       -0.333642   0.000000
  107       -0.238359   0.000000
  108        0.007365   0.000000
  109        0.080097   0.000000
  110        0.363745   0.000000
  111        0.519260   0.000000
  112        0.664577   0.000000
  113        0.966162   0.000000
  114        1.073713   0.000000
  115        1.278238   0.000000
  116        1.335395   0.000000
  117        1.417988   0.000000
  118        2.027390   0.000000
  119        2.162121   0.000000
  120        2.501110   0.000000
 
  0.5000000E+00  0.1110223E-15  0.0000000E+00  0.1562500E-01
    1      -17.502613   1.000000
    2      -17.299802   1.000000
    3      -16.723446   1.000000
    4      -16.661522   1.000000
    5      -16.444016   1.000000
    6      -16.436165   1.000000
    7      -16.252905   1.000000
    8      -16.149315   1.000000
    9      -16.095498   1.000000
   10      -16.006889   1.000000
   11      -15.963517   1.000000
   12      -15.830029   1.000000
   13      -15.755875   1.000000
   14      -15.699194   1.000000
   15      -15.633007   1.000000
   16      -15.589476   1.000000
   17      -15.547575   1.000000
   18      -15.447788   1.000000
   19       -9.799606   1.000000
   20       -9.341351   1.000000
   21       -9.158609   1.000000
   22       -9.030896   1.000000
   23       -8.893054   1.000000
   24       -8.791831   1.000000
   25       -8.658303   1.000000
   26       -8.503121   1.000000
   27       -8.423705   1.000000
   28       -8.319399   1.000000
   29       -8.264451   1.000000
   30       -8.171198   1.000000
   31       -8.122846   1.000000
   32       -7.934695   1.000000
   33       -7.896281   1.000000
   34       -7.848408   1.000000
   35       -7.675077   1.000000
   36       -7.616373   1.000000
   37       -7.577928   1.000000
   38       -7.439864   1.000000
   39       -7.341642   1.000000
   40       -7.263457   1.000000
   41       -7.173252   1.000000
   42       -6.987123   1.000000
   43       -6.906213   1.000000
   44       -6.862502   1.000000
   45       -6.838049   1.000000
   46       -6.759132   1.000000
   47       -6.699972   1.000000
   48       -6.641947   1.000000
   49       -6.522621   1.000000
   50       -6.459553   1.000000
   51       -6.431809   1.000000
   52       -6.414852   1.000000
   53       -6.240372   1.000000
   54       -6.168489   1.000000
   55       -6.105734   1.000000
   56       -6.010906   1.000000
   57       -5.964729   1.000000
   58       -5.894855   1.000000
   59       -5.811595   1.000000
   60       -5.779495   1.000000
   61       -5.763290   1.000000
   62       -5.725809   1.000000
   63       -5.656406   1.000000
   64       -5.619581   1.000000
   65       -5.468360   1.000000
   66       -5.042429   1.000000
   67       -4.902471   1.000000
   68       -4.856638   1.000000
   69       -4.794071   1.000000
   70       -4.678051   1.000000
   71       -4.624183   1.000000
   72       -4.492179   1.000000
   73       -4.356327   1.000000
   74       -4.024672   1.000000
   75       -3.786371   1.000000
   76       -3.697419   0.999999
   77       -3.620183   0.999986
   78       -3.308957   0.976367
   79       -3.223663   0.916329
   80       -3.113776   0.727002
   81       -2.972369   0.346006
   82       -2.733551   0.018543
   83       -2.663630   0.004951
   84       -2.602631   0.001304
   85       -2.503166   0.000102
   86       -2.407447   0.000006
   87       -2.351989   0.000001
   88       -2.271358   0.000000
   89       -2.173991   0.000000
   90       -2.040966   0.000000
   91       -1.864281   0.000000
   92       -1.716675   0.000000
   93       -1.571532   0.000000
   94       -1.401579   0.000000
   95       -1.222739   0.000000
   96       -1.103197   0.000000
   97       -1.075332   0.000000
   98       -0.922742   0.000000
   99       -0.790442   0.000000
  100       -0.753170   0.000000
  101       -0.685593   0.000000
  102       -0.645426   0.000000
  103       -0.608935   0.000000
  104       -0.541017   0.000000
  105       -0.434320   0.000000
  106       -0.345082   0.000000
  107       -0.326844   0.000000
  108       -0.047452   0.000000
  109        0.064758   0.000000
  110        0.356552   0.000000
  111        0.523689   0.000000
  112        0.655904   0.000000
  113        0.978208   0.000000
  114        1.097349   0.000000
  115        1.325058   0.000000
  116        1.387944   0.000000
  117        1.468692   0.000000
  118        2.264569   0.000000
  119        2.267403   0.000000
  120        2.366513   0.000000
 
  0.0000000E+00  0.1250000E+00  0.0000000E+00  0.3125000E-01
    1      -17.792157   1.000000
    2      -16.748828   1.000000
    3      -16.609834   1.000000
    4      -16.553322   1.000000
    5      -16.498899   1.000000
    6      -16.340632   1.000000
    7      -16.313911   1.000000
    8      -16.279339   1.000000
    9      -16.157311   1.000000
   10      -16.107657   1.000000
   11      -16.012824   1.000000
   12      -15.923650   1.000000
   13      -15.865038   1.000000
   14      -15.848143   1.000000
   15      -15.629939   1.000000
   16      -15.540039   1.000000
   17      -15.470236   1.000000
   18      -15.432863   1.000000
   19       -9.288607   1.000000
   20       -9.119638   1.000000
   21       -8.915650   1.000000
   22       -8.857049   1.000000
   23       -8.768984   1.000000
   24       -8.644740   1.000000
   25       -8.617826   1.000000
   26       -8.539483   1.000000
   27       -8.484998   1.000000
   28       -8.390606   1.000000
   29       -8.318861   1.000000
   30       -8.245781   1.000000
   31       -8.168057   1.000000
   32       -8.123724   1.000000
   33       -8.021816   1.000000
   34       -7.978396   1.000000
   35       -7.838469   1.000000
   36       -7.756965   1.000000
   37       -7.716730   1.000000
   38       -7.579172   1.000000
   39       -7.491068   1.000000
   40       -7.469017   1.000000
   41       -7.324257   1.000000
   42       -7.215158   1.000000
   43       -7.152082   1.000000
   44       -6.969659   1.000000
   45       -6.858470   1.000000
   46       -6.797710   1.000000
   47       -6.722450   1.000000
   48       -6.622325   1.000000
   49       -6.546623   1.000000
   50       -6.499849   1.000000
   51       -6.441978   1.000000
   52       -6.380979   1.000000
   53       -6.345961   1.000000
   54       -6.303817   1.000000
   55       -6.230683   1.000000
   56       -6.161833   1.000000
   57       -6.094100   1.000000
   58       -5.819379   1.000000
   59       -5.641120   1.000000
   60       -5.577263   1.000000
   61       -5.485082   1.000000
   62       -5.338977   1.000000
   63       -5.276258   1.000000
   64       -5.174644   1.000000
   65       -5.110699   1.000000
   66       -5.067600   1.000000
   67       -4.983770   1.000000
   68       -4.891875   1.000000
   69       -4.671481   1.000000
   70       -4.648510   1.000000
   71       -4.577082   1.000000
   72       -4.398275   1.000000
   73       -4.275828   1.000000
   74       -4.109323   1.000000
   75       -4.019737   1.000000
   76       -3.926739   1.000000
   77       -3.693328   0.999999
   78       -3.638681   0.999992
   79       -3.514478   0.999706
   80       -2.963666   0.323598
   81       -2.915083   0.211510
   82       -2.702588   0.010618
   83       -2.640293   0.003032
   84       -2.518830   0.000157
   85       -2.503987   0.000104
   86       -2.414906   0.000007
   87       -2.264570   0.000000
   88       -2.225699   0.000000
   89       -2.068577   0.000000
   90       -2.017197   0.000000
   91       -1.864500   0.000000
   92       -1.782177   0.000000
   93       -1.691735   0.000000
   94       -1.571589   0.000000
   95       -1.397918   0.000000
   96       -1.260661   0.000000
   97       -1.125711   0.000000
   98       -1.015043   0.000000
   99       -0.850274   0.000000
  100       -0.510160   0.000000
  101       -0.468466   0.000000
  102       -0.401275   0.000000
  103       -0.341200   0.000000
  104       -0.253116   0.000000
  105       -0.127040   0.000000
  106       -0.009649   0.000000
  107        0.145546   0.000000
  108        0.254262   0.000000
  109        0.318359   0.000000
  110        0.446385   0.000000
  111        0.491330   0.000000
  112        0.690704   0.000000
  113        0.819361   0.000000
  114        0.922444   0.000000
  115        0.980009   0.000000
  116        1.053348   0.000000
  117        1.098808   0.000000
  118        1.719905   0.000000
  119        1.871293   0.000000
  120        2.222018   0.000000
 
  0.1250000E+00  0.1250000E+00  0.0000000E+00  0.3125000E-01
    1      -17.741008   1.000000
    2      -16.871702   1.000000
    3      -16.743551   1.000000
    4      -16.554369   1.000000
    5      -16.457557   1.000000
    6      -16.332783   1.000000
    7      -16.262099   1.000000
    8      -16.219076   1.000000
    9      -16.197631   1.000000
   10      -16.106541   1.000000
   11      -15.984607   1.000000
   12      -15.931185   1.000000
   13      -15.781983   1.000000
   14      -15.768375   1.000000
   15      -15.648150   1.000000
   16      -15.556188   1.000000
   17      -15.508663   1.000000
   18      -15.434943   1.000000
   19       -9.358265   1.000000
   20       -9.290181   1.000000
   21       -9.097005   1.000000
   22       -8.958390   1.000000
   23       -8.753088   1.000000
   24       -8.718816   1.000000
   25       -8.583838   1.000000
   26       -8.512750   1.000000
   27       -8.423870   1.000000
   28       -8.361865   1.000000
   29       -8.289356   1.000000
   30       -8.255080   1.000000
   31       -8.159044   1.000000
   32       -8.075706   1.000000
   33       -7.992866   1.000000
   34       -7.839985   1.000000
   35       -7.745174   1.000000
   36       -7.709581   1.000000
   37       -7.653668   1.000000
   38       -7.450374   1.000000
   39       -7.401515   1.000000
   40       -7.338215   1.000000
   41       -7.249555   1.000000
   42       -7.211969   1.000000
   43       -7.160289   1.000000
   44       -6.981542   1.000000
   45       -6.952656   1.000000
   46       -6.834526   1.000000
   47       -6.759210   1.000000
   48       -6.702596   1.000000
   49       -6.592441   1.000000
   50       -6.522737   1.000000
   51       -6.437256   1.000000
   52       -6.362858   1.000000
   53       -6.281080   1.000000
   54       -6.253578   1.000000
   55       -6.211039   1.000000
   56       -6.156313   1.000000
   57       -6.116177   1.000000
   58       -5.805137   1.000000
   59       -5.680026   1.000000
   60       -5.542336   1.000000
   61       -5.465735   1.000000
   62       -5.393365   1.000000
   63       -5.337648   1.000000
   64       -5.300297   1.000000
   65       -5.173848   1.000000
   66       -5.054168   1.000000
   67       -5.005491   1.000000
   68       -4.953620   1.000000
   69       -4.887235   1.000000
   70       -4.811062   1.000000
   71       -4.350937   1.000000
   72       -4.284394   1.000000
   73       -4.181954   1.000000
   74       -4.036871   1.000000
   75       -3.981736   1.000000
   76       -3.915938   1.000000
   77       -3.789638   1.000000
   78       -3.651905   0.999995
   79       -3.509275   0.999664
   80       -2.912822   0.206912
   81       -2.782733   0.041189
   82       -2.746112   0.022967
   83       -2.668339   0.005449
   84       -2.570962   0.000609
   85       -2.513064   0.000134
   86       -2.394739   0.000004
   87       -2.299976   0.000000
   88       -2.273975   0.000000
   89       -2.074881   0.000000
   90       -2.046722   0.000000
   91       -1.887358   0.000000
   92       -1.722460   0.000000
   93       -1.601807   0.000000
   94       -1.555262   0.000000
   95       -1.358041   0.000000
   96       -1.230581   0.000000
   97       -1.117395   0.000000
   98       -0.972111   0.000000
   99       -0.775453   0.000000
  100       -0.627543   0.000000
  101       -0.572668   0.000000
  102       -0.512355   0.000000
  103       -0.391546   0.000000
  104       -0.337551   0.000000
  105       -0.222589   0.000000
  106       -0.134351   0.000000
  107        0.029491   0.000000
  108        0.158986   0.000000
  109        0.285736   0.000000
  110        0.385158   0.000000
  111        0.514584   0.000000
  112        0.648439   0.000000
  113        0.881561   0.000000
  114        0.995467   0.000000
  115        1.092645   0.000000
  116        1.146865   0.000000
  117        1.206824   0.000000
  118        1.801956   0.000000
  119        1.947687   0.000000
  120        2.292238   0.000000
 
  0.2500000E+00  0.1250000E+00  0.0000000E+00  0.3125000E-01
    1      -17.642901   1.000000
    2      -17.057715   1.000000
    3      -16.860356   1.000000
    4      -16.522763   1.000000
    5      -16.447524   1.000000
    6      -16.332990   1.000000
    7      -16.279326   1.000000
    8      -16.189785   1.000000
    9      -16.138522   1.000000
   10      -16.056013   1.000000
   11      -15.984003   1.000000
   12      -15.903442   1.000000
   13      -15.751604   1.000000
   14      -15.713771   1.000000
   15      -15.624656   1.000000
   16      -15.579549   1.000000
   17      -15.534770   1.000000
   18      -15.445136   1.000000
   19       -9.603748   1.000000
   20       -9.404316   1.000000
   21       -9.178466   1.000000
   22       -8.998915   1.000000
   23       -8.787458   1.000000
   24       -8.730201   1.000000
   25       -8.524549   1.000000
   26       -8.469950   1.000000
   27       -8.419455   1.000000
   28       -8.368296   1.000000
   29       -8.254732   1.000000
   30       -8.242951   1.000000
   31       -8.147687   1.000000
   32       -8.080660   1.000000
   33       -7.982172   1.000000
   34       -7.860035   1.000000
   35       -7.785276   1.000000
   36       -7.506472   1.000000
   37       -7.466375   1.000000
   38       -7.421538   1.000000
   39       -7.342693   1.000000
   40       -7.271550   1.000000
   41       -7.166364   1.000000
   42       -7.129584   1.000000
   43       -7.063442   1.000000
   44       -6.977073   1.000000
   45       -6.835839   1.000000
   46       -6.808874   1.000000
   47       -6.781931   1.000000