       N       E                     dE             d eps       ncg     rms          rms(c)
DAV:   1     0.112624436156E+04    0.11262E+04   -0.35981E+04  8160   0.577E+02
DAV:   2    -0.594516285579E+00   -0.11268E+04   -0.10833E+04 11320   0.173E+02
DAV:   3    -0.199850705747E+03   -0.19926E+03   -0.19144E+03 10920   0.823E+01
DAV:   4    -0.208988004208E+03   -0.91373E+01   -0.88894E+01 12240   0.262E+01
DAV:   5    -0.209289208137E+03   -0.30120E+00   -0.30040E+00 11440   0.346E+00    0.275E+01
DAV:   6    -0.236804352516E+03   -0.27515E+02   -0.11025E+02 12760   0.603E+01    0.594E+01
DAV:   7    -0.196667143406E+03    0.40137E+02   -0.17908E+02 13240   0.152E+02    0.203E+01
DAV:   8    -0.190031263194E+03    0.66359E+01   -0.20787E+01 11800   0.134E+01    0.136E+01
DAV:   9    -0.188240279355E+03    0.17910E+01   -0.30917E+00 11680   0.626E+00    0.918E+00
DAV:  10    -0.187056579463E+03    0.11837E+01   -0.18222E+00 13160   0.773E+00    0.297E+00
DAV:  11    -0.186999433301E+03    0.57146E-01   -0.60987E-01 12480   0.240E+00    0.250E+00
DAV:  12    -0.187085636942E+03   -0.86204E-01   -0.63208E-01 12320   0.427E+00    0.460E+00
DAV:  13    -0.186908985672E+03    0.17665E+00   -0.44084E-01 12960   0.368E+00    0.187E+00
DAV:  14    -0.186898187661E+03    0.10798E-01   -0.12240E-01 13040   0.213E+00    0.183E+00
DAV:  15    -0.186872332120E+03    0.25856E-01   -0.59973E-02 12720   0.151E+00    0.722E-01
DAV:  16    -0.186867853639E+03    0.44785E-02   -0.85071E-03 12880   0.366E-01    0.390E-01
DAV:  17    -0.186866089808E+03    0.17638E-02   -0.71467E-03 12960   0.350E-01    0.222E-01
DAV:  18    -0.186865427970E+03    0.66184E-03   -0.17515E-03 11640   0.126E-01    0.131E-01
DAV:  19    -0.186865305386E+03    0.12258E-03   -0.61015E-04 10080   0.101E-01    0.448E-02
DAV:  20    -0.186866148591E+03   -0.84321E-03   -0.75963E-04  9280   0.505E-02    0.380E-02
DAV:  21    -0.186866837686E+03   -0.68910E-03   -0.19347E-04  8200   0.396E-02    0.340E-02
DAV:  22    -0.186867854326E+03   -0.10166E-02   -0.15920E-04  7600   0.448E-02    0.391E-02
DAV:  23    -0.186869014507E+03   -0.11602E-02   -0.13551E-04  7520   0.476E-02    0.162E-02
DAV:  24    -0.186869588709E+03   -0.57420E-03   -0.28592E-05  6840   0.171E-02    0.444E-03
DAV:  25    -0.186869953058E+03   -0.36435E-03   -0.16815E-05  5600   0.958E-03    0.428E-03
DAV:  26    -0.186870197327E+03   -0.24427E-03   -0.93747E-06  6800   0.716E-03    0.159E-03
DAV:  27    -0.186870286888E+03   -0.89562E-04   -0.32570E-06  7360   0.415E-03
   1 F= -.18687029E+03 E0= -.18669809E+03  d E =-.186870E+03
       N       E                     dE             d eps       ncg     rms          rms(c)
DAV:   1    -0.187505764634E+03   -0.63557E+00   -0.27129E+02  8160   0.350E+01    0.465E+00
DAV:   2    -0.189497797429E+03   -0.19920E+01   -0.20355E+01 12240   0.156E+01    0.968E+00
DAV:   3    -0.189355604030E+03    0.14219E+00   -0.46643E+00 12360   0.124E+01    0.655E+00
DAV:   4    -0.188794752260E+03    0.56085E+00   -0.63702E-01 12440   0.461E+00    0.236E+00
DAV:   5    -0.188868058931E+03   -0.73307E-01   -0.43525E-01 11440   0.356E+00    0.490E+00
DAV:   6    -0.188782952926E+03    0.85106E-01   -0.71980E-01 12600   0.414E+00    0.267E+00
DAV:   7    -0.188700009540E+03    0.82943E-01   -0.24056E-01 11600   0.154E+00    0.116E+00
DAV:   8    -0.188683371064E+03    0.16638E-01   -0.63596E-02 11520   0.896E-01    0.851E-01
DAV:   9    -0.188680439944E+03    0.29311E-02   -0.22980E-02 11600   0.833E-01    0.823E-01
DAV:  10    -0.188675964972E+03    0.44750E-02   -0.88021E-03 11760   0.526E-01    0.312E-01
DAV:  11    -0.188675350205E+03    0.61477E-03   -0.29925E-03 13120   0.240E-01    0.138E-01
DAV:  12    -0.188675188147E+03    0.16206E-03   -0.12195E-03 12040   0.112E-01    0.989E-02
DAV:  13    -0.188675220931E+03   -0.32785E-04   -0.28767E-04  7680   0.668E-02
   2 F= -.18867522E+03 E0= -.18853383E+03  d E =-.180493E+01
       N       E                     dE             d eps       ncg     rms          rms(c)
DAV:   1    -0.190594596914E+03   -0.19194E+01   -0.31162E+01  9120   0.142E+01    0.444E+00
DAV:   2    -0.190559571656E+03    0.35025E-01   -0.28011E+00 11160   0.952E+00    0.733E+00
DAV:   3    -0.190079104014E+03    0.48047E+00   -0.13975E+00 12320   0.859E+00    0.422E+00
DAV:   4    -0.189875019789E+03    0.20408E+00   -0.75861E-01 12680   0.419E+00    0.264E+00
DAV:   5    -0.189913658592E+03   -0.38639E-01   -0.47194E-01 12240   0.401E+00    0.372E+00
DAV:   6    -0.189770980414E+03    0.14268E+00   -0.21282E-01 12280   0.314E+00    0.670E-01
DAV:   7    -0.189764436630E+03    0.65438E-02   -0.16452E-02 12200   0.502E-01    0.234E-01
DAV:   8    -0.189765231842E+03   -0.79521E-03   -0.42561E-03 11720   0.335E-01    0.348E-01
DAV:   9    -0.189764473590E+03    0.75825E-03   -0.23387E-03 10240   0.317E-01    0.161E-01
DAV:  10    -0.189764639446E+03   -0.16586E-03   -0.96227E-04 10040   0.143E-01    0.127E-01
DAV:  11    -0.189764460890E+03    0.17856E-03   -0.44736E-04  8760   0.784E-02    0.175E-02
DAV:  12    -0.189764480990E+03   -0.20100E-04   -0.65861E-05  7400   0.259E-02
   3 F= -.18976448E+03 E0= -.18964432E+03  d E =-.108926E+01
       N       E                     dE             d eps       ncg     rms          rms(c)
DAV:   1    -0.191333814721E+03   -0.15694E+01   -0.76223E+01  8160   0.199E+01    0.461E+00
DAV:   2    -0.191180037740E+03    0.15378E+00   -0.54197E+00 13160   0.793E+00    0.486E+00
DAV:   3    -0.191278604334E+03   -0.98567E-01   -0.16087E+00 12240   0.914E+00    0.647E+00
DAV:   4    -0.190880801586E+03    0.39780E+00   -0.12576E+00 12920   0.730E+00    0.269E+00
DAV:   5    -0.190807782455E+03    0.73019E-01   -0.34347E-01 12240   0.306E+00    0.218E+00
DAV:   6    -0.190771843547E+03    0.35939E-01   -0.17793E-01 12400   0.280E+00    0.154E+00
DAV:   7    -0.190752972489E+03    0.18871E-01   -0.59270E-02 11880   0.142E+00    0.469E-01
DAV:   8    -0.190749899382E+03    0.30731E-02   -0.81528E-03 11240   0.426E-01    0.277E-01
DAV:   9    -0.190749619862E+03    0.27952E-03   -0.24762E-03 10800   0.337E-01    0.221E-01
DAV:  10    -0.190749710495E+03   -0.90633E-04   -0.15521E-03 11320   0.219E-01    0.138E-01
DAV:  11    -0.190749479977E+03    0.23052E-03   -0.89485E-04 10040   0.114E-01    0.476E-02
DAV:  12    -0.190749474329E+03    0.56473E-05   -0.13827E-04  7320   0.440E-02
   4 F= -.19074947E+03 E0= -.19064450E+03  d E =-.984993E+00
       N       E                     dE             d eps       ncg     rms          rms(c)
DAV:   1    -0.192120648718E+03   -0.13712E+01   -0.16523E+02  8160   0.287E+01    0.570E+00
DAV:   2    -0.191853288350E+03    0.26736E+00   -0.95771E+00 11240   0.814E+00    0.380E+00
DAV:   3    -0.191984847439E+03   -0.13156E+00   -0.19960E+00 11880   0.844E+00    0.725E+00
DAV:   4    -0.191747791524E+03    0.23706E+00   -0.24284E+00 11440   0.106E+01    0.452E+00
DAV:   5    -0.191577697205E+03    0.17009E+00   -0.75552E-01 12280   0.571E+00    0.338E+00
DAV:   6    -0.191435819381E+03    0.14188E+00   -0.26994E-01 12320   0.375E+00    0.122E+00
DAV:   7    -0.191428195736E+03    0.76236E-02   -0.74422E-02 12280   0.147E+00    0.865E-01
DAV:   8    -0.191425972843E+03    0.22229E-02   -0.35630E-02 12080   0.125E+00    0.778E-01
DAV:   9    -0.191419262945E+03    0.67099E-02   -0.10639E-02 12440   0.698E-01    0.181E-01
DAV:  10    -0.191419570607E+03   -0.30766E-03   -0.23340E-03 11000   0.178E-01    0.109E-01
DAV:  11    -0.191419417997E+03    0.15261E-03   -0.64860E-04 11120   0.972E-02    0.544E-02
DAV:  12    -0.191419402089E+03    0.15908E-04   -0.10664E-04  7080   0.456E-02
   5 F= -.19141940E+03 E0= -.19131687E+03  d E =-.669928E+00
       N       E                     dE             d eps       ncg     rms          rms(c)
DAV:   1    -0.191488563129E+03   -0.69145E-01   -0.56578E+00  8160   0.501E+00    0.664E-01
DAV:   2    -0.191555991756E+03   -0.67429E-01   -0.30404E-01 13520   0.309E+00    0.232E+00
DAV:   3    -0.191501822426E+03    0.54169E-01   -0.11331E-01 12360   0.236E+00    0.478E-01
DAV:   4    -0.191503589134E+03   -0.17667E-02   -0.17315E-02 11400   0.844E-01    0.674E-01
DAV:   5    -0.191499140039E+03    0.44491E-02   -0.99641E-03 11360   0.664E-01    0.220E-01
DAV:   6    -0.191499018145E+03    0.12189E-03   -0.26462E-03 10600   0.241E-01    0.189E-01
DAV:   7    -0.191499577855E+03   -0.55971E-03   -0.35186E-03 11520   0.391E-01    0.328E-01
DAV:   8    -0.191498514677E+03    0.10632E-02   -0.19148E-03  9520   0.288E-01    0.402E-02
DAV:   9    -0.191498526619E+03   -0.11942E-04   -0.98855E-05  5720   0.408E-02
   6 F= -.19149853E+03 E0= -.19139363E+03  d E =-.791245E-01
       N       E                     dE             d eps       ncg     rms          rms(c)
DAV:   1    -0.191545326215E+03   -0.46812E-01   -0.23349E+00  8160   0.321E+00    0.369E-01
DAV:   2    -0.191561931972E+03   -0.16606E-01   -0.78298E-02 13600   0.135E+00    0.115E+00
DAV:   3    -0.191548543200E+03    0.13389E-01   -0.32209E-02 12280   0.123E+00    0.321E-01
DAV:   4    -0.191549070729E+03   -0.52753E-03   -0.63491E-03 11080   0.497E-01    0.401E-01
DAV:   5    -0.191547515879E+03    0.15548E-02   -0.36555E-03 11040   0.403E-01    0.126E-01
DAV:   6    -0.191547460143E+03    0.55736E-04   -0.80645E-04 10120   0.123E-01
   7 F= -.19154746E+03 E0= -.19144169E+03  d E =-.489335E-01
       N       E                     dE             d eps       ncg     rms          rms(c)
DAV:   1    -0.191507035890E+03    0.40480E-01   -0.14568E+00  8160   0.255E+00    0.325E-01
DAV:   2    -0.191522772654E+03   -0.15737E-01   -0.62069E-02 13560   0.141E+00    0.113E+00
DAV:   3    -0.191508854205E+03    0.13918E-01   -0.23042E-02 11440   0.112E+00    0.229E-01
DAV:   4    -0.191509341800E+03   -0.48760E-03   -0.35914E-03 10080   0.397E-01    0.315E-01
DAV:   5    -0.191508339362E+03    0.10024E-02   -0.21610E-03 10240   0.314E-01    0.989E-02
DAV:   6    -0.191508314758E+03    0.24604E-04   -0.54636E-04 10240   0.107E-01
   8 F= -.19150831E+03 E0= -.19140326E+03  d E =0.391454E-01
       N       E                     dE             d eps       ncg     rms          rms(c)
DAV:   1    -0.191407384226E+03    0.10096E+00   -0.11386E+01  8160   0.715E+00    0.775E-01
DAV:   2    -0.191465934891E+03   -0.58551E-01   -0.33570E-01 12840   0.251E+00    0.199E+00
DAV:   3    -0.191422121042E+03    0.43814E-01   -0.89356E-02 11960   0.219E+00    0.647E-01
DAV:   4    -0.191424421802E+03   -0.23008E-02   -0.23316E-02 11680   0.978E-01    0.835E-01
DAV:   5    -0.191417470369E+03    0.69514E-02   -0.15721E-02 11040   0.874E-01    0.253E-01
DAV:   6    -0.191417565295E+03   -0.94926E-04   -0.37042E-03 10760   0.287E-01    0.195E-01
DAV:   7    -0.191417157470E+03    0.40782E-03   -0.23419E-03 12720   0.291E-01    0.209E-01
DAV:   8    -0.191416755820E+03    0.40165E-03   -0.92139E-04  8680   0.206E-01    0.528E-02
DAV:   9    -0.191416745959E+03    0.98611E-05   -0.10753E-04  5960   0.535E-02
   9 F= -.19141675E+03 E0= -.19131441E+03  d E =0.915688E-01
       N       E                     dE             d eps       ncg     rms          rms(c)
DAV:   1    -0.191433055081E+03   -0.16299E-01   -0.15798E+00  8160   0.270E+00    0.345E-01
DAV:   2    -0.191436804765E+03   -0.37497E-02   -0.56915E-02 11120   0.731E-01    0.454E-01
DAV:   3    -0.191437174906E+03   -0.37014E-03   -0.17021E-02 12280   0.840E-01    0.547E-01
DAV:   4    -0.191434423340E+03    0.27516E-02   -0.69648E-03 11280   0.539E-01    0.228E-01
DAV:   5    -0.191434381461E+03    0.41879E-04   -0.27947E-03  9760   0.384E-01    0.243E-01
DAV:   6    -0.191433795853E+03    0.58561E-03   -0.17548E-03 10440   0.265E-01    0.874E-02
DAV:   7    -0.191433744401E+03    0.51452E-04   -0.49955E-04  9800   0.106E-01
  10 F= -.19143374E+03 E0= -.19133092E+03  d E =-.169984E-01
       N       E                     dE             d eps       ncg     rms          rms(c)
DAV:   1    -0.191485771358E+03   -0.51976E-01   -0.39595E+00  8160   0.423E+00    0.584E-01
DAV:   2    -0.191528461824E+03   -0.42690E-01   -0.17248E-01 13600   0.240E+00    0.201E+00
DAV:   3    -0.191489556132E+03    0.38906E-01   -0.80734E-02 12160   0.201E+00    0.451E-01
DAV:   4    -0.191491038340E+03   -0.14822E-02   -0.14125E-02 10280   0.786E-01    0.606E-01
DAV:   5    -0.191487231662E+03    0.38067E-02   -0.82700E-03 10440   0.618E-01    0.214E-01
DAV:   6    -0.191486797766E+03    0.43390E-03   -0.23067E-03 10920   0.210E-01    0.118E-01
DAV:   7    -0.191486923019E+03   -0.12525E-03   -0.15390E-03 10600   0.227E-01    0.194E-01
DAV:   8    -0.191486562622E+03    0.36040E-03   -0.87823E-04  8560   0.193E-01    0.520E-02
DAV:   9    -0.191486540556E+03    0.22066E-04   -0.82619E-05  5800   0.487E-02
  11 F= -.19148654E+03 E0= -.19138133E+03  d E =-.527962E-01
       N       E                     dE             d eps       ncg     rms          rms(c)
DAV:   1    -0.191526499826E+03   -0.39937E-01   -0.22398E+00  8160   0.315E+00    0.396E-01
DAV:   2    -0.191548158696E+03   -0.21659E-01   -0.91412E-02 13600   0.174E+00    0.133E+00
DAV:   3    -0.191529311670E+03    0.18847E-01   -0.36183E-02 12240   0.138E+00    0.256E-01
DAV:   4    -0.191530151342E+03   -0.83967E-03   -0.52599E-03 11320   0.457E-01    0.400E-01
DAV:   5    -0.191528689586E+03    0.14618E-02   -0.36037E-03 10200   0.401E-01    0.149E-01
DAV:   6    -0.191528518297E+03    0.17129E-03   -0.89289E-04  9840   0.137E-01    0.775E-02
DAV:   7    -0.191528470733E+03    0.47563E-04   -0.42724E-04  9560   0.953E-02
  12 F= -.19152847E+03 E0= -.19142190E+03  d E =-.419302E-01
       N       E                     dE             d eps       ncg     rms          rms(c)
DAV:   1    -0.191392532549E+03    0.13599E+00   -0.18921E+01  8160   0.919E+00    0.113E+00
DAV:   2    -0.191547054318E+03   -0.15452E+00   -0.72910E-01 13600   0.466E+00    0.324E+00
DAV:   3    -0.191415973126E+03    0.13108E+00   -0.20093E-01 12240   0.344E+00    0.605E-01
DAV:   4    -0.191416841388E+03   -0.86826E-03   -0.26694E-02 12240   0.902E-01    0.806E-01
DAV:   5    -0.191412479089E+03    0.43623E-02   -0.23742E-02 11200   0.104E+00    0.560E-01
DAV:   6    -0.191409920896E+03    0.25582E-02   -0.89788E-03 12200   0.551E-01    0.232E-01
DAV:   7    -0.191409075149E+03    0.84575E-03   -0.27955E-03 10760   0.207E-01    0.824E-02
DAV:   8    -0.191409049792E+03    0.25357E-04   -0.60149E-04 10960   0.135E-01
  13 F= -.19140905E+03 E0= -.19130674E+03  d E =0.119421E+00
       N       E                     dE             d eps       ncg     rms          rms(c)
DAV:   1    -0.191378974471E+03    0.30101E-01   -0.19702E+00  8160   0.296E+00    0.322E-01
DAV:   2    -0.191387532549E+03   -0.85581E-02   -0.54306E-02 13600   0.981E-01    0.766E-01
DAV:   3    -0.191381809494E+03    0.57231E-02   -0.17357E-02 12200   0.938E-01    0.362E-01
DAV:   4    -0.191381224172E+03    0.58532E-03   -0.42260E-03 11040   0.402E-01    0.273E-01
DAV:   5    -0.191380631650E+03    0.59252E-03   -0.22775E-03 10120   0.338E-01    0.161E-01
DAV:   6    -0.191380390772E+03    0.24088E-03   -0.85574E-04 10360   0.177E-01    0.774E-02
DAV:   7    -0.191380386573E+03    0.41987E-05   -0.38661E-04  8520   0.100E-01
  14 F= -.19138039E+03 E0= -.19127901E+03  d E =0.286632E-01
       N       E                     dE             d eps       ncg     rms          rms(c)
DAV:   1    -0.191414650648E+03   -0.34260E-01   -0.25579E+00  8160   0.337E+00    0.374E-01
DAV:   2    -0.191429669419E+03   -0.15019E-01   -0.89099E-02 13280   0.119E+00    0.991E-01
DAV:   3    -0.191419797002E+03    0.98724E-02   -0.29829E-02 12000   0.119E+00    0.394E-01
DAV:   4    -0.191419217818E+03    0.57918E-03   -0.60500E-03 10920   0.471E-01    0.342E-01
DAV:   5    -0.191418175516E+03    0.10423E-02   -0.31718E-03 11120   0.382E-01    0.160E-01
DAV:   6    -0.191417976118E+03    0.19940E-03   -0.10306E-03 10200   0.159E-01    0.937E-02
DAV:   7    -0.191418009603E+03   -0.33485E-04   -0.72616E-04 10760   0.140E-01
  15 F= -.19141801E+03 E0= -.19131436E+03  d E =-.376230E-01
       N       E                     dE             d eps       ncg     rms          rms(c)
DAV:   1    -0.191435061381E+03   -0.17085E-01   -0.52253E-01  8160   0.155E+00    0.225E-01
DAV:   2    -0.191441161222E+03   -0.60998E-02   -0.24621E-02 13560   0.900E-01    0.759E-01
DAV:   3    -0.191435488797E+03    0.56724E-02   -0.11379E-02 11720   0.764E-01    0.180E-01
DAV:   4    -0.191435640510E+03   -0.15171E-03   -0.18796E-03 10080   0.290E-01    0.214E-01
DAV:   5    -0.191435198731E+03    0.44178E-03   -0.11667E-03  9640   0.239E-01    0.948E-02
DAV:   6    -0.191435108608E+03    0.90123E-04   -0.33411E-04  6920   0.888E-02
  16 F= -.19143511E+03 E0= -.19133073E+03  d E =-.170990E-01
       N       E                     dE             d eps       ncg     rms          rms(c)
DAV:   1    -0.191484903568E+03   -0.49705E-01   -0.38116E+00  8160   0.414E+00    0.565E-01
DAV:   2    -0.191525516499E+03   -0.40613E-01   -0.17035E-01 13600   0.241E+00    0.188E+00
DAV:   3    -0.191488907084E+03    0.36609E-01   -0.72974E-02 12240   0.193E+00    0.376E-01
DAV:   4    -0.191490938204E+03   -0.20311E-02   -0.12941E-02 10480   0.716E-01    0.626E-01
DAV:   5    -0.191487306205E+03    0.36320E-02   -0.92289E-03 10880   0.626E-01    0.224E-01
DAV:   6    -0.191486889410E+03    0.41680E-03   -0.23324E-03 11120   0.224E-01    0.136E-01
DAV:   7    -0.191487259211E+03   -0.36980E-03   -0.21518E-03 10840   0.294E-01    0.260E-01
DAV:   8    -0.191486595909E+03    0.66330E-03   -0.12170E-03  8600   0.231E-01    0.390E-02
DAV:   9    -0.191486599385E+03   -0.34752E-05   -0.79992E-05  5680   0.390E-02
  17 F= -.19148660E+03 E0= -.19137965E+03  d E =-.514908E-01
       N       E                     dE             d eps       ncg     rms          rms(c)
DAV:   1    -0.191502659992E+03   -0.16064E-01   -0.35598E-01  8160   0.125E+00    0.135E-01
DAV:   2    -0.191504580146E+03   -0.19202E-02   -0.10476E-02 13400   0.454E-01    0.382E-01
DAV:   3    -0.191503154296E+03    0.14259E-02   -0.37052E-03 11440   0.421E-01    0.132E-01
DAV:   4    -0.191503217884E+03   -0.63588E-04   -0.84824E-04  8360   0.182E-01
  18 F= -.19150322E+03 E0= -.19139606E+03  d E =-.166185E-01
       N       E                     dE             d eps       ncg     rms          rms(c)
DAV:   1    -0.191308200713E+03    0.19495E+00   -0.44843E+01  8160   0.141E+01    0.149E+00
DAV:   2    -0.191536209268E+03   -0.22801E+00   -0.13024E+00 13560   0.494E+00    0.366E+00
DAV:   3    -0.191367579128E+03    0.16863E+00   -0.31379E-01 12160   0.422E+00    0.107E+00
DAV:   4    -0.191363227336E+03    0.43518E-02   -0.53092E-02 12240   0.131E+00    0.101E+00
DAV:   5    -0.191358095083E+03    0.51323E-02   -0.45144E-02 11280   0.142E+00    0.842E-01
DAV:   6    -0.191352344033E+03    0.57510E-02   -0.18530E-02 12160   0.842E-01    0.347E-01
DAV:   7    -0.191350939435E+03    0.14046E-02   -0.68506E-03 12200   0.381E-01    0.243E-01
DAV:   8    -0.191350677423E+03    0.26201E-03   -0.29650E-03 11920   0.367E-01    0.229E-01
DAV:   9    -0.191350169139E+03    0.50828E-03   -0.99197E-04  9480   0.208E-01    0.512E-02
DAV:  10    -0.191350144851E+03    0.24288E-04   -0.18667E-04  6880   0.522E-02
  19 F= -.19135014E+03 E0= -.19124792E+03  d E =0.153073E+00
       N       E                     dE             d eps       ncg     rms          rms(c)
DAV:   1    -0.191351224742E+03   -0.10556E-02   -0.15516E+00  8160   0.265E+00    0.325E-01
DAV:   2    -0.191355517447E+03   -0.42927E-02   -0.46416E-02 12680   0.885E-01    0.582E-01
DAV:   3    -0.191353269991E+03    0.22475E-02   -0.13187E-02 12320   0.804E-01    0.417E-01
DAV:   4    -0.191351914024E+03    0.13560E-02   -0.47130E-03 11200   0.456E-01    0.227E-01
DAV:   5    -0.191351900197E+03    0.13828E-04   -0.27883E-03 10120   0.373E-01    0.250E-01
DAV:   6    -0.191351287043E+03    0.61315E-03   -0.16261E-03 10800   0.280E-01    0.839E-02
DAV:   7    -0.191351240326E+03    0.46717E-04   -0.42429E-04  9000   0.107E-01
  20 F= -.19135124E+03 E0= -.19124874E+03  d E =-.109548E-02
       N       E                     dE             d eps       ncg     rms          rms(c)
DAV:   1    -0.191332162289E+03    0.19125E-01   -0.54047E+00  8160   0.489E+00    0.531E-01
DAV:   2    -0.191348750444E+03   -0.16588E-01   -0.13699E-01 13120   0.142E+00    0.108E+00
DAV:   3    -0.191340355579E+03    0.83949E-02   -0.42026E-02 12320   0.144E+00    0.686E-01
DAV:   4    -0.191336103013E+03    0.42526E-02   -0.10020E-02 11320   0.617E-01    0.267E-01
DAV:   5    -0.191335761012E+03    0.34200E-03   -0.43457E-03 12080   0.442E-01    0.291E-01
DAV:   6    -0.191335297696E+03    0.46332E-03   -0.36164E-03 11360   0.437E-01    0.203E-01
DAV:   7    -0.191334894096E+03    0.40360E-03   -0.13875E-03 10120   0.228E-01    0.107E-01
DAV:   8    -0.191334850288E+03    0.43808E-04   -0.51903E-04  9040   0.160E-01
  21 F= -.19133485E+03 E0= -.19123259E+03  d E =0.163900E-01
       N       E                     dE             d eps       ncg     rms          rms(c)
DAV:   1    -0.191358655479E+03   -0.23761E-01   -0.30657E+00  8160   0.370E+00    0.429E-01
DAV:   2    -0.191376581503E+03   -0.17926E-01   -0.10616E-01 13440   0.143E+00    0.108E+00
DAV:   3    -0.191364244381E+03    0.12337E-01   -0.34599E-02 12080   0.134E+00    0.425E-01
DAV:   4    -0.191363328882E+03    0.91550E-03   -0.67430E-03 11040   0.495E-01    0.340E-01
DAV:   5    -0.191362570444E+03    0.75844E-03   -0.40627E-03 10400   0.442E-01    0.244E-01
DAV:   6    -0.191361930940E+03    0.63950E-03   -0.15137E-03  9880   0.222E-01    0.785E-02
DAV:   7    -0.191362005281E+03   -0.74341E-04   -0.60293E-04 10600   0.125E-01
  22 F= -.19136201E+03 E0= -.19125788E+03  d E =-.271550E-01
       N       E                     dE             d eps       ncg     rms          rms(c)
DAV:   1    -0.191375506049E+03   -0.13575E-01   -0.80987E-01  8160   0.192E+00    0.272E-01
DAV:   2    -0.191382980082E+03   -0.74740E-02   -0.36503E-02 13480   0.105E+00    0.793E-01
DAV:   3    -0.191376489374E+03    0.64907E-02   -0.14137E-02 11920   0.867E-01    0.223E-01
DAV:   4    -0.191376608009E+03   -0.11863E-03   -0.30508E-03 10520   0.350E-01    0.270E-01
DAV:   5    -0.191376033605E+03    0.57440E-03   -0.21609E-03  9640   0.316E-01    0.141E-01
DAV:   6    -0.191375784665E+03    0.24894E-03   -0.59829E-04  8640   0.129E-01    0.452E-02
DAV:   7    -0.191375901102E+03   -0.11644E-03   -0.37022E-04  8200   0.129E-01    0.117E-01
DAV:   8    -0.191375759024E+03    0.14208E-03   -0.24202E-04  6600   0.117E-01    0.194E-02
DAV:   9    -0.191375765622E+03   -0.65974E-05   -0.27272E-05  5800   0.233E-02
  23 F= -.19137577E+03 E0= -.19127041E+03  d E =-.137603E-01
       N       E                     dE             d eps       ncg     rms          rms(c)
DAV:   1    -0.191407801969E+03   -0.32043E-01   -0.57943E+00  8160   0.509E+00    0.625E-01
DAV:   2    -0.191455047691E+03   -0.47246E-01   -0.22189E-01 13600   0.242E+00    0.200E+00
DAV:   3    -0.191417841721E+03    0.37206E-01   -0.94062E-02 12240   0.214E+00    0.611E-01
DAV:   4    -0.191416882774E+03    0.95895E-03   -0.17528E-02 11400   0.824E-01    0.566E-01
DAV:   5    -0.191414062666E+03    0.28201E-02   -0.94130E-03 11600   0.662E-01    0.285E-01
DAV:   6    -0.191413090075E+03    0.97259E-03   -0.29560E-03 11920   0.285E-01    0.143E-01
DAV:   7    -0.191414235313E+03   -0.11452E-02   -0.33237E-03 11880   0.401E-01    0.367E-01
DAV:   8    -0.191412880569E+03    0.13547E-02   -0.20747E-03  9760   0.314E-01    0.289E-02
DAV:   9    -0.191412915308E+03   -0.34739E-04   -0.79417E-05  5680   0.339E-02
  24 F= -.19141292E+03 E0= -.19130511E+03  d E =-.371497E-01
       N       E                     dE             d eps       ncg     rms          rms(c)
DAV:   1    -0.191401272994E+03    0.11608E-01   -0.55618E-01  8160   0.157E+00    0.187E-01
DAV:   2    -0.191405166024E+03   -0.38930E-02   -0.19799E-02 13520   0.692E-01    0.536E-01
DAV:   3    -0.191402110993E+03    0.30550E-02   -0.67783E-03 11360   0.597E-01    0.177E-01
DAV:   4    -0.191402045363E+03    0.65630E-04   -0.14475E-03  9520   0.235E-01    0.167E-01
DAV:   5    -0.191401828299E+03    0.21706E-03   -0.84008E-04  9200   0.199E-01    0.904E-02
DAV:   6    -0.191401720871E+03    0.10743E-03   -0.22999E-04  6080   0.864E-02    0.306E-02
DAV:   7    -0.191401792263E+03   -0.71392E-04   -0.21226E-04  7400   0.929E-02
  25 F= -.19140179E+03 E0= -.19129471E+03  d E =0.111230E-01
       N       E                     dE             d eps       ncg     rms          rms(c)
DAV:   1    -0.191409880841E+03   -0.81600E-02   -0.29613E-01  8160   0.116E+00    0.155E-01
DAV:   2    -0.191412832420E+03   -0.29516E-02   -0.11817E-02 13600   0.603E-01    0.536E-01
DAV:   3    -0.191410079104E+03    0.27533E-02   -0.56820E-03 11480   0.524E-01    0.122E-01
DAV:   4    -0.191410093130E+03   -0.14026E-04   -0.76427E-04  9040   0.184E-01
  26 F= -.19141009E+03 E0= -.19130268E+03  d E =-.830087E-02
       N       E                     dE             d eps       ncg     rms          rms(c)
DAV:   1    -0.191402144244E+03    0.79349E-02   -0.26999E-01  8160   0.111E+00    0.131E-01
DAV:   2    -0.191404785778E+03   -0.26415E-02   -0.98228E-03 13600   0.518E-01    0.454E-01
DAV:   3    -0.191402397144E+03    0.23886E-02   -0.38086E-03 11120   0.460E-01    0.830E-02
DAV:   4    -0.191402553999E+03   -0.15685E-03   -0.58585E-04  8200   0.155E-01    0.134E-01
DAV:   5    -0.191402371878E+03    0.18212E-03   -0.35739E-04  7800   0.132E-01    0.316E-02
DAV:   6    -0.191402377681E+03   -0.58028E-05   -0.50058E-05  5920   0.372E-02
  27 F= -.19140238E+03 E0= -.19129504E+03  d E =0.771545E-02
       N       E                     dE             d eps       ncg     rms          rms(c)
DAV:   1    -0.191402608396E+03   -0.23652E-03   -0.32376E-01  8160   0.124E+00    0.191E-01
DAV:   2    -0.191404805683E+03   -0.21973E-02   -0.16660E-02 11840   0.609E-01    0.459E-01
DAV:   3    -0.191402978742E+03    0.18269E-02   -0.63209E-03 11440   0.533E-01    0.201E-01
DAV:   4    -0.191402794692E+03    0.18405E-03   -0.15884E-03  9560   0.266E-01    0.168E-01
DAV:   5    -0.191402635923E+03    0.15877E-03   -0.10494E-03  9640   0.237E-01    0.129E-01
DAV:   6    -0.191402459284E+03    0.17664E-03   -0.47164E-04  8080   0.129E-01    0.368E-02
DAV:   7    -0.191402444315E+03    0.14969E-04   -0.12180E-04  6560   0.414E-02
  28 F= -.19140244E+03 E0= -.19129498E+03  d E =-.666339E-04
       N       E                     dE             d eps       ncg     rms          rms(c)
DAV:   1    -0.191422003307E+03   -0.19544E-01   -0.16594E+00  8160   0.275E+00    0.364E-01
DAV:   2    -0.191433404454E+03   -0.11401E-01   -0.61118E-02 13600   0.131E+00    0.100E+00
DAV:   3    -0.191423431662E+03    0.99728E-02   -0.23447E-02 12120   0.110E+00    0.307E-01
DAV:   4    -0.191423754418E+03   -0.32276E-03   -0.55846E-03 10960   0.484E-01    0.381E-01
DAV:   5    -0.191422555792E+03    0.11986E-02   -0.40991E-03 10200   0.442E-01    0.197E-01
DAV:   6    -0.191422078475E+03    0.47732E-03   -0.13169E-03  9600   0.189E-01    0.641E-02
DAV:   7    -0.191422204772E+03   -0.12630E-03   -0.60897E-04  9440   0.153E-01    0.136E-01
DAV:   8    -0.191422024321E+03    0.18045E-03   -0.39755E-04  7720   0.137E-01    0.334E-02
DAV:   9    -0.191422019800E+03    0.45214E-05   -0.41129E-05  5440   0.339E-02
  29 F= -.19142202E+03 E0= -.19131376E+03  d E =-.195755E-01
       N       E                     dE             d eps       ncg     rms          rms(c)
DAV:   1    -0.191439430725E+03   -0.17406E-01   -0.12143E+00  8160   0.234E+00    0.293E-01
DAV:   2    -0.191449489505E+03   -0.10059E-01   -0.47103E-02 13600   0.112E+00    0.940E-01
DAV:   3    -0.191441244953E+03    0.82446E-02   -0.19358E-02 11960   0.971E-01    0.271E-01
DAV:   4    -0.191441175048E+03    0.69905E-04   -0.34688E-03 11080   0.370E-01    0.260E-01
DAV:   5    -0.191440576421E+03    0.59863E-03   -0.20758E-03 10320   0.315E-01    0.137E-01
DAV:   6    -0.191440399383E+03    0.17704E-03   -0.75341E-04  9400   0.153E-01    0.843E-02
DAV:   7    -0.191440580271E+03   -0.18089E-03   -0.77004E-04  9280   0.193E-01    0.159E-01
DAV:   8    -0.191440320745E+03    0.25953E-03   -0.43964E-04  7880   0.142E-01    0.194E-02
DAV:   9    -0.191440332140E+03   -0.11395E-04   -0.37472E-05  5480   0.243E-02
  30 F= -.19144033E+03 E0= -.19133141E+03  d E =-.183123E-01
       N       E                     dE             d eps       ncg     rms          rms(c)
DAV:   1    -0.191380532529E+03    0.59788E-01   -0.10820E+01  8160   0.696E+00    0.831E-01
DAV:   2    -0.191458505507E+03   -0.77973E-01   -0.38231E-01 13320   0.302E+00    0.249E+00
DAV:   3    -0.191397323005E+03    0.61183E-01   -0.14266E-01 12280   0.263E+00    0.796E-01
DAV:   4    -0.191395479120E+03    0.18439E-02   -0.26040E-02 10400   0.104E+00    0.720E-01
DAV:   5    -0.191390791872E+03    0.46872E-02   -0.15317E-02 12160   0.883E-01    0.368E-01
DAV:   6    -0.191389058546E+03    0.17333E-02   -0.51451E-03 11920   0.383E-01    0.137E-01
DAV:   7    -0.191388923168E+03    0.13538E-03   -0.14973E-03 11480   0.134E-01    0.702E-02
DAV:   8    -0.191388819705E+03    0.10346E-03   -0.29613E-04  8880   0.690E-02    0.337E-02
DAV:   9    -0.191388839342E+03   -0.19636E-04   -0.11998E-04  6800   0.733E-02
  31 F= -.19138884E+03 E0= -.19128195E+03  d E =0.514928E-01
       N       E                     dE             d eps       ncg     rms          rms(c)
DAV:   1    -0.191348562243E+03    0.40257E-01   -0.93324E+00  8160   0.646E+00    0.771E-01
DAV:   2    -0.191419098169E+03   -0.70536E-01   -0.31932E-01 13400   0.285E+00    0.246E+00
DAV:   3    -0.191361373069E+03    0.57725E-01   -0.13390E-01 12280   0.252E+00    0.712E-01
DAV:   4    -0.191360339882E+03    0.10332E-02   -0.21554E-02 10640   0.957E-01    0.668E-01
DAV:   5    -0.191356045544E+03    0.42943E-02   -0.12716E-02 12480   0.816E-01    0.323E-01
DAV:   6    -0.191354783991E+03    0.12616E-02   -0.38480E-03 11840   0.340E-01    0.130E-01
DAV:   7    -0.191354869254E+03   -0.85263E-04   -0.15233E-03 12800   0.203E-01    0.167E-01
DAV:   8    -0.191354623063E+03    0.24619E-03   -0.79343E-04  8960   0.202E-01    0.868E-02
DAV:   9    -0.191354552784E+03    0.70279E-04   -0.16750E-04  6000   0.844E-02
  32 F= -.19135455E+03 E0= -.19124969E+03  d E =0.342866E-01
       N       E                     dE             d eps       ncg     rms          rms(c)
DAV:   1    -0.191356149405E+03   -0.15263E-02   -0.11000E-01  8160   0.703E-01    0.102E-01
DAV:   2    -0.191357423076E+03   -0.12737E-02   -0.48503E-03 13520   0.411E-01    0.353E-01
DAV:   3    -0.191356196631E+03    0.12264E-02   -0.22714E-03 10560   0.349E-01    0.773E-02
DAV:   4    -0.191356206184E+03   -0.95525E-05   -0.31442E-04  8320   0.116E-01
  33 F= -.19135621E+03 E0= -.19125117E+03  d E =-.165340E-02
       N       E                     dE             d eps       ncg     rms          rms(c)
DAV:   1    -0.191372575165E+03   -0.16379E-01   -0.18034E+00  8160   0.286E+00    0.381E-01
DAV:   2    -0.191390179966E+03   -0.17605E-01   -0.76932E-02 13360   0.144E+00    0.130E+00
DAV:   3    -0.191375429776E+03    0.14750E-01   -0.36412E-02 11800   0.130E+00    0.368E-01
DAV:   4    -0.191374748651E+03    0.68112E-03   -0.60428E-03 11240   0.473E-01    0.298E-01
DAV:   5    -0.191374066714E+03    0.68194E-03   -0.33303E-03 11440   0.404E-01    0.201E-01
DAV:   6    -0.191373532398E+03    0.53432E-03   -0.12961E-03  9720   0.200E-01    0.553E-02
DAV:   7    -0.191373566859E+03   -0.34461E-04   -0.31841E-04  7600   0.833E-02
  34 F= -.19137357E+03 E0= -.19126727E+03  d E =-.173607E-01
       N       E                     dE             d eps       ncg     rms          rms(c)
DAV:   1    -0.191383206798E+03   -0.96744E-02   -0.59261E-01  8160   0.164E+00    0.214E-01
DAV:   2    -0.191389356240E+03   -0.61494E-02   -0.25018E-02 13360   0.798E-01    0.749E-01
DAV:   3    -0.191384166981E+03    0.51893E-02   -0.11355E-02 11160   0.745E-01    0.192E-01
DAV:   4    -0.191384116120E+03    0.50861E-04   -0.17621E-03  9800   0.245E-01    0.170E-01
DAV:   5    -0.191383866962E+03    0.24916E-03   -0.93021E-04  9840   0.217E-01    0.101E-01
DAV:   6    -0.191383774725E+03    0.92237E-04   -0.37962E-04  7760   0.117E-01
  35 F= -.19138377E+03 E0= -.19127707E+03  d E =-.102079E-01
       N       E                     dE             d eps       ncg     rms          rms(c)
DAV:   1    -0.191379729564E+03    0.41374E-02   -0.11352E-01  8160   0.731E-01    0.147E-01
DAV:   2    -0.191384852275E+03   -0.51227E-02   -0.11568E-02 12520   0.716E-01    0.730E-01
DAV:   3    -0.191379636693E+03    0.52156E-02   -0.76420E-03 11000   0.636E-01    0.670E-02
DAV:   4    -0.191379666472E+03   -0.29778E-04   -0.31158E-04  8280   0.811E-02
  36 F= -.19137967E+03 E0= -.19127301E+03  d E =0.410825E-02
       N       E                     dE             d eps       ncg     rms          rms(c)
DAV:   1    -0.191359360319E+03    0.20276E-01   -0.38309E+00  8160   0.415E+00    0.515E-01
DAV:   2    -0.191385417953E+03   -0.26058E-01   -0.12350E-01 13560   0.180E+00    0.147E+00
DAV:   3    -0.191362884540E+03    0.22533E-01   -0.43496E-02 11840   0.154E+00    0.443E-01
DAV:   4    -0.191363039426E+03   -0.15489E-03   -0.99803E-03 11120   0.638E-01    0.458E-01
DAV:   5    -0.191361292553E+03    0.17469E-02   -0.73231E-03 11000   0.603E-01    0.278E-01
DAV:   6    -0.191360443965E+03    0.84859E-03   -0.27305E-03 11360   0.297E-01    0.117E-01
DAV:   7    -0.191360852186E+03   -0.40822E-03   -0.16414E-03 10760   0.266E-01    0.240E-01
DAV:   8    -0.191360288750E+03    0.56344E-03   -0.97596E-04  8880   0.213E-01    0.377E-02
DAV:   9    -0.191360298779E+03   -0.10029E-04   -0.64651E-05  5560   0.362E-02
  37 F= -.19136030E+03 E0= -.19125425E+03  d E =0.193677E-01
       N       E                     dE             d eps       ncg     rms          rms(c)
DAV:   1    -0.191372365526E+03   -0.12077E-01   -0.14830E+00  8160   0.258E+00    0.309E-01
DAV:   2    -0.191383810909E+03   -0.11445E-01   -0.50987E-02 13440   0.114E+00    0.103E+00
DAV:   3    -0.191374331914E+03    0.94790E-02   -0.22415E-02 11480   0.103E+00    0.282E-01
DAV:   4    -0.191374221045E+03    0.11087E-03   -0.38543E-03 11160   0.383E-01    0.264E-01
DAV:   5    -0.191373598712E+03    0.62233E-03   -0.22778E-03 10360   0.338E-01    0.151E-01
DAV:   6    -0.191373347378E+03    0.25133E-03   -0.86964E-04  9720   0.162E-01    0.679E-02
DAV:   7    -0.191373546926E+03   -0.19955E-03   -0.63049E-04  9400   0.171E-01    0.158E-01
DAV:   8    -0.191373292435E+03    0.25449E-03   -0.38138E-04  7800   0.142E-01    0.203E-02
DAV:   9    -0.191373303982E+03   -0.11547E-04   -0.29454E-05  5800   0.238E-02
  38 F= -.19137330E+03 E0= -.19126665E+03  d E =-.130052E-01
       N       E                     dE             d eps       ncg     rms          rms(c)
DAV:   1    -0.191378548935E+03   -0.52565E-02   -0.46285E-01  8160   0.148E+00    0.259E-01
DAV:   2    -0.191384295635E+03   -0.57467E-02   -0.24089E-02 12640   0.910E-01    0.808E-01
DAV:   3    -0.191378092029E+03    0.62036E-02   -0.12613E-02 11560   0.797E-01    0.201E-01
DAV:   4    -0.191378425724E+03   -0.33370E-03   -0.29200E-03 11400   0.373E-01    0.284E-01
DAV:   5    -0.191377677292E+03    0.74843E-03   -0.21550E-03  9920   0.328E-01    0.130E-01
DAV:   6    -0.191377472550E+03    0.20474E-03   -0.72966E-04  9680   0.140E-01    0.663E-02
DAV:   7    -0.191377498931E+03   -0.26381E-04   -0.33447E-04  7280   0.124E-01
  39 F= -.19137750E+03 E0= -.19127068E+03  d E =-.419495E-02
       N       E                     dE             d eps       ncg     rms          rms(c)
DAV:   1    -0.191358789825E+03    0.18683E-01   -0.31873E+00  8160   0.377E+00    0.414E-01
DAV:   2    -0.191376961190E+03   -0.18171E-01   -0.91191E-02 13600   0.149E+00    0.123E+00
DAV:   3    -0.191362355503E+03    0.14606E-01   -0.32114E-02 12120   0.126E+00    0.352E-01
DAV:   4    -0.191362148579E+03    0.20692E-03   -0.51064E-03 11120   0.434E-01    0.313E-01
DAV:   5    -0.191361353938E+03    0.79464E-03   -0.34429E-03 12160   0.426E-01    0.210E-01
DAV:   6    -0.191361108710E+03    0.24523E-03   -0.17775E-03 10320   0.263E-01    0.149E-01
DAV:   7    -0.191361270868E+03   -0.16216E-03   -0.14430E-03 10240   0.264E-01    0.201E-01
DAV:   8    -0.191360843813E+03    0.42706E-03   -0.62557E-04  8200   0.175E-01    0.225E-02
DAV:   9    -0.191360859744E+03   -0.15931E-04   -0.45053E-05  5720   0.269E-02
  40 F= -.19136086E+03 E0= -.19125447E+03  d E =0.166392E-01
       N       E                     dE             d eps       ncg     rms          rms(c)
DAV:   1    -0.191367878205E+03   -0.70344E-02   -0.47215E-01  8160   0.146E+00    0.207E-01
DAV:   2    -0.191374535715E+03   -0.66575E-02   -0.23764E-02 12960   0.875E-01    0.783E-01
DAV:   3    -0.191368635676E+03    0.59000E-02   -0.11498E-02 11400   0.765E-01    0.179E-01
DAV:   4    -0.191368582039E+03    0.53637E-04   -0.16553E-03  9720   0.254E-01    0.170E-01
DAV:   5    -0.191368322388E+03    0.25965E-03   -0.83315E-04  9480   0.198E-01    0.825E-02
DAV:   6    -0.191368244391E+03    0.77998E-04   -0.27069E-04  6520   0.907E-02
  41 F= -.19136824E+03 E0= -.19126137E+03  d E =-.738465E-02
       N       E                     dE             d eps       ncg     rms          rms(c)
DAV:   1    -0.191376502548E+03   -0.81802E-02   -0.53421E-01  8160   0.156E+00    0.265E-01
DAV:   2    -0.191390495599E+03   -0.13993E-01   -0.39098E-02 12880   0.120E+00    0.121E+00
DAV:   3    -0.191376940878E+03    0.13555E-01   -0.24028E-02 11440   0.106E+00    0.164E-01
DAV:   4    -0.191377175470E+03   -0.23459E-03   -0.19533E-03 10360   0.278E-01    0.208E-01
DAV:   5    -0.191376756555E+03    0.41892E-03   -0.11304E-03 10160   0.233E-01    0.923E-02
DAV:   6    -0.191376738723E+03    0.17832E-04   -0.37003E-04  8480   0.127E-01
  42 F= -.19137674E+03 E0= -.19126921E+03  d E =-.849433E-02
       N       E                     dE             d eps       ncg     rms          rms(c)
DAV:   1    -0.191380609463E+03   -0.38529E-02   -0.11294E-01  8160   0.726E-01    0.134E-01
DAV:   2    -0.191384077406E+03   -0.34679E-02   -0.87283E-03 12360   0.582E-01    0.585E-01
DAV:   3    -0.191380640714E+03    0.34367E-02   -0.53130E-03 10760   0.531E-01    0.920E-02
DAV:   4    -0.191380748710E+03   -0.10800E-03   -0.53891E-04  8400   0.160E-01    0.110E-01
DAV:   5    -0.191380613803E+03    0.13491E-03   -0.24062E-04  7480   0.109E-01    0.300E-02
DAV:   6    -0.191380663941E+03   -0.50138E-04   -0.12855E-04  6040   0.781E-02
  43 F= -.19138066E+03 E0= -.19127306E+03  d E =-.392522E-02
       N       E                     dE             d eps       ncg     rms          rms(c)
DAV:   1    -0.191383535517E+03   -0.29217E-02   -0.69994E-02  8160   0.569E-01    0.794E-02
DAV:   2    -0.191384358152E+03   -0.82264E-03   -0.33367E-03 12720   0.272E-01    0.274E-01
DAV:   3    -0.191383642458E+03    0.71569E-03   -0.15859E-03  9600   0.273E-01    0.777E-02
DAV:   4    -0.191383627460E+03    0.14998E-04   -0.21065E-04  6160   0.816E-02
  44 F= -.19138363E+03 E0= -.19127602E+03  d E =-.296352E-02
       N       E                     dE             d eps       ncg     rms          rms(c)
DAV:   1    -0.191385295690E+03   -0.16532E-02   -0.67563E-02  8160   0.603E-01    0.118E-01
DAV:   2    -0.191385980452E+03   -0.68476E-03   -0.41613E-03 12200   0.323E-01    0.305E-01
DAV:   3    -0.191385186412E+03    0.79404E-03   -0.24931E-03  9920   0.334E-01    0.122E-01
DAV:   4    -0.191385043171E+03    0.14324E-03   -0.42620E-04  8280   0.106E-01    0.520E-02
DAV:   5    -0.191385075717E+03   -0.32546E-04   -0.28303E-04  8280   0.112E-01
  45 F= -.19138508E+03 E0= -.19127703E+03  d E =-.144826E-02
       N       E                     dE             d eps       ncg     rms          rms(c)
DAV:   1    -0.191393816115E+03   -0.87729E-02   -0.65513E-01  8160   0.175E+00    0.245E-01
DAV:   2    -0.191395127194E+03   -0.13111E-02   -0.22118E-02 12480   0.475E-01    0.344E-01
DAV:   3    -0.191395077498E+03    0.49696E-04   -0.81677E-03 12240   0.576E-01    0.413E-01
DAV:   4    -0.191393706793E+03    0.13707E-02   -0.39454E-03 11040   0.394E-01    0.154E-01
DAV:   5    -0.191393479330E+03    0.22746E-03   -0.12436E-03  9640   0.199E-01    0.131E-01
DAV:   6    -0.191393393891E+03    0.85439E-04   -0.84010E-04  9600   0.208E-01
  46 F= -.19139339E+03 E0= -.19128566E+03  d E =-.831817E-02
       N       E                     dE             d eps       ncg     rms          rms(c)
DAV:   1    -0.191401148976E+03   -0.76696E-02   -0.46650E-01  8160   0.146E+00    0.198E-01
DAV:   2    -0.191406908086E+03   -0.57591E-02   -0.22294E-02 13480   0.790E-01    0.760E-01
DAV:   3    -0.191401774158E+03    0.51339E-02   -0.11344E-02 11280   0.704E-01    0.157E-01
DAV:   4    -0.191401719305E+03    0.54853E-04   -0.11802E-03  9880   0.193E-01    0.136E-01
DAV:   5    -0.191401584321E+03    0.13498E-03   -0.72305E-04  9840   0.188E-01    0.104E-01
DAV:   6    -0.191401507231E+03    0.77089E-04   -0.35167E-04  7880   0.120E-01
  47 F= -.19140151E+03 E0= -.19129310E+03  d E =-.811334E-02
       N       E                     dE             d eps       ncg     rms          rms(c)
DAV:   1    -0.191403209723E+03   -0.16254E-02   -0.89857E-02  8160   0.677E-01    0.143E-01
DAV:   2    -0.191405988508E+03   -0.27788E-02   -0.80926E-03 13000   0.547E-01    0.549E-01
DAV:   3    -0.191403021245E+03    0.29673E-02   -0.54415E-03 10720   0.517E-01    0.105E-01
DAV:   4    -0.191403119947E+03   -0.98703E-04   -0.66285E-04  8600   0.153E-01
  48 F= -.19140312E+03 E0= -.19129521E+03  d E =-.161272E-02
       N       E                     dE             d eps       ncg     rms          rms(c)
DAV:   1    -0.191415606331E+03   -0.12585E-01   -0.96595E-01  8160   0.211E+00    0.257E-01
DAV:   2    -0.191422555464E+03   -0.69491E-02   -0.37232E-02 13600   0.893E-01    0.780E-01
DAV:   3    -0.191417331534E+03    0.52239E-02   -0.15177E-02 11680   0.810E-01    0.263E-01
DAV:   4    -0.191416938628E+03    0.39291E-03   -0.25379E-03 11000   0.276E-01    0.180E-01
DAV:   5    -0.191416758152E+03    0.18048E-03   -0.15079E-03 10520   0.263E-01    0.159E-01
DAV:   6    -0.191416557154E+03    0.20100E-03   -0.79597E-04  8600   0.184E-01    0.907E-02
DAV:   7    -0.191416670474E+03   -0.11332E-03   -0.60019E-04  8240   0.176E-01    0.137E-01
DAV:   8    -0.191416474210E+03    0.19626E-03   -0.33368E-04  7720   0.131E-01    0.221E-02
DAV:   9    -0.191416478307E+03   -0.40969E-05   -0.35368E-05  5840   0.266E-02
  49 F= -.19141648E+03 E0= -.19130790E+03  d E =-.133584E-01
       N       E                     dE             d eps       ncg     rms          rms(c)
DAV:   1    -0.191403227331E+03    0.13247E-01   -0.93095E-01  8160   0.208E+00    0.319E-01
DAV:   2    -0.191412989955E+03   -0.97626E-02   -0.46416E-02 12720   0.117E+00    0.978E-01
DAV:   3    -0.191403940686E+03    0.90493E-02   -0.20994E-02 12000   0.998E-01    0.287E-01
DAV:   4    -0.191403973170E+03   -0.32484E-04   -0.43035E-03 10640   0.429E-01    0.306E-01
DAV:   5    -0.191403102456E+03    0.87071E-03   -0.29804E-03 10200   0.375E-01    0.151E-01
DAV:   6    -0.191402824740E+03    0.27772E-03   -0.98924E-04 10280   0.156E-01    0.576E-02
DAV:   7    -0.191402912273E+03   -0.87532E-04   -0.41686E-04  9080   0.134E-01
  50 F= -.19140291E+03 E0= -.19129514E+03  d E =0.135660E-01
       N       E                     dE             d eps       ncg     rms          rms(c)
DAV:   1    -0.191432473227E+03   -0.29648E-01   -0.44953E+00  8160   0.455E+00    0.626E-01
DAV:   2    -0.191478440847E+03   -0.45968E-01   -0.20990E-01 13440   0.236E+00    0.217E+00
DAV:   3    -0.191438869587E+03    0.39571E-01   -0.10559E-01 12280   0.211E+00    0.569E-01
DAV:   4    -0.191438604590E+03    0.26500E-03   -0.17564E-02 11480   0.820E-01    0.594E-01
DAV:   5    -0.191435385412E+03    0.32192E-02   -0.11066E-02 11480   0.714E-01    0.314E-01
DAV:   6    -0.191434983017E+03    0.40240E-03   -0.45563E-03 11240   0.412E-01    0.298E-01
DAV:   7    -0.191434619569E+03    0.36345E-03   -0.36883E-03 11400   0.420E-01    0.218E-01
DAV:   8    -0.191434077268E+03    0.54230E-03   -0.10767E-03  9520   0.197E-01    0.385E-02
DAV:   9    -0.191434063584E+03    0.13683E-04   -0.10882E-04  6600   0.408E-02
  51 F= -.19143406E+03 E0= -.19132483E+03  d E =-.311513E-01
       N       E                     dE             d eps       ncg     rms          rms(c)
DAV:   1    -0.191440209381E+03   -0.61321E-02   -0.16349E-01  8160   0.861E-01    0.106E-01
DAV:   2    -0.191441447101E+03   -0.12377E-02   -0.61649E-03 13600   0.384E-01    0.330E-01
DAV:   3    -0.191440440021E+03    0.10071E-02   -0.25340E-03 10480   0.343E-01    0.103E-01
DAV:   4    -0.191440421192E+03    0.18828E-04   -0.41833E-04  8160   0.121E-01
  52 F= -.19144042E+03 E0= -.19133119E+03  d E =-.635761E-02
       N       E                     dE             d eps       ncg     rms          rms(c)
DAV:   1    -0.191405120112E+03    0.35320E-01   -0.66083E+00  8160   0.544E+00    0.592E-01
DAV:   2    -0.191439350663E+03   -0.34231E-01   -0.19885E-01 13360   0.200E+00    0.151E+00
DAV:   3    -0.191414498349E+03    0.24852E-01   -0.55801E-02 11640   0.172E+00    0.556E-01
DAV:   4    -0.191414209655E+03    0.28869E-03   -0.13001E-02 11200   0.737E-01    0.550E-01
DAV:   5    -0.191411573798E+03    0.26359E-02   -0.83789E-03 11040   0.642E-01    0.282E-01
DAV:   6    -0.191410852804E+03    0.72099E-03   -0.30545E-03 11840   0.312E-01    0.147E-01
DAV:   7    -0.191411561927E+03   -0.70912E-03   -0.28192E-03 11840   0.342E-01    0.324E-01
DAV:   8    -0.191410588415E+03    0.97351E-03   -0.18250E-03  9840   0.284E-01    0.544E-02
DAV:   9    -0.191410574892E+03    0.13523E-04   -0.10295E-04  5720   0.476E-02
  53 F= -.19141057E+03 E0= -.19130174E+03  d E =0.298463E-01
       N       E                     dE             d eps       ncg     rms          rms(c)
DAV:   1    -0.191424051469E+03   -0.13463E-01   -0.10125E+00  8160   0.216E+00    0.298E-01
DAV:   2    -0.191432815535E+03   -0.87641E-02   -0.43767E-02 13600   0.108E+00    0.893E-01
DAV:   3    -0.191425487324E+03    0.73282E-02   -0.18562E-02 11960   0.941E-01    0.301E-01
DAV:   4    -0.191425290082E+03    0.19724E-03   -0.42287E-03 10920   0.401E-01    0.278E-01
DAV:   5    -0.191424688453E+03    0.60163E-03   -0.27351E-03 10480   0.354E-01    0.169E-01
DAV:   6    -0.191424383221E+03    0.30523E-03   -0.97646E-04  9520   0.175E-01    0.888E-02
DAV:   7    -0.191424538877E+03   -0.15566E-03   -0.73806E-04  9120   0.195E-01    0.155E-01
DAV:   8    -0.191424295536E+03    0.24334E-03   -0.41961E-04  7920   0.143E-01    0.240E-02
DAV:   9    -0.191424301174E+03   -0.56382E-05   -0.41082E-05  5800   0.277E-02
  54 F= -.19142430E+03 E0= -.19131503E+03  d E =-.137263E-01
       N       E                     dE             d eps       ncg     rms          rms(c)
DAV:   1    -0.191429427894E+03   -0.51324E-02   -0.13514E-01  8160   0.783E-01    0.971E-02
DAV:   2    -0.191430421644E+03   -0.99375E-03   -0.49509E-03 12920   0.319E-01    0.302E-01
DAV:   3    -0.191429603970E+03    0.81767E-03   -0.21373E-03  9920   0.308E-01    0.963E-02
DAV:   4    -0.191429552637E+03    0.51333E-04   -0.29577E-04  7440   0.875E-02
  55 F= -.19142955E+03 E0= -.19132035E+03  d E =-.525146E-02
       N       E                     dE             d eps       ncg     rms          rms(c)
DAV:   1    -0.191435207396E+03   -0.56034E-02   -0.17587E-01  8160   0.905E-01    0.153E-01
DAV:   2    -0.191438357682E+03   -0.31503E-02   -0.11145E-02 12680   0.588E-01    0.580E-01
DAV:   3    -0.191435286032E+03    0.30717E-02   -0.68355E-03 11240   0.546E-01    0.129E-01
DAV:   4    -0.191435229550E+03    0.56482E-04   -0.61620E-04  8280   0.148E-01
  56 F= -.19143523E+03 E0= -.19132609E+03  d E =-.567691E-02
       N       E                     dE             d eps       ncg     rms          rms(c)
DAV:   1    -0.191446586978E+03   -0.11301E-01   -0.52922E-01  8160   0.156E+00    0.275E-01
DAV:   2    -0.191458604669E+03   -0.12018E-01   -0.33796E-02 13360   0.113E+00    0.111E+00
DAV:   3    -0.191446730275E+03    0.11874E-01   -0.21391E-02 11600   0.104E+00    0.210E-01
DAV:   4    -0.191446755280E+03   -0.25005E-04   -0.24089E-03 11160   0.300E-01    0.210E-01
DAV:   5    -0.191446451281E+03    0.30400E-03   -0.15515E-03 10840   0.269E-01    0.132E-01
DAV:   6    -0.191446327111E+03    0.12417E-03   -0.67976E-04  8280   0.165E-01    0.111E-01
DAV:   7    -0.191446275218E+03    0.51893E-04   -0.48358E-04  8120   0.155E-01
  57 F= -.19144628E+03 E0= -.19133717E+03  d E =-.110457E-01
       N       E                     dE             d eps       ncg     rms          rms(c)
DAV:   1    -0.191459145109E+03   -0.12818E-01   -0.70446E-01  8160   0.180E+00    0.239E-01
DAV:   2    -0.191465570219E+03   -0.64251E-02   -0.29585E-02 13560   0.870E-01    0.784E-01
DAV:   3    -0.191460107155E+03    0.54631E-02   -0.13298E-02 11640   0.782E-01    0.223E-01
DAV:   4    -0.191459958897E+03    0.14826E-03   -0.22098E-03 10800   0.270E-01    0.188E-01
DAV:   5    -0.191459744195E+03    0.21470E-03   -0.15339E-03 10600   0.265E-01    0.152E-01
DAV:   6    -0.191459560187E+03    0.18401E-03   -0.68090E-04  8320   0.170E-01    0.902E-02
DAV:   7    -0.191459593124E+03   -0.32937E-04   -0.47233E-04  8200   0.160E-01
  58 F= -.19145959E+03 E0= -.19135059E+03  d E =-.133179E-01
       N       E                     dE             d eps       ncg     rms          rms(c)
DAV:   1    -0.191461794743E+03   -0.22346E-02   -0.21300E-02  8160   0.327E-01    0.472E-02
DAV:   2    -0.191462083595E+03   -0.28885E-03   -0.11108E-03 12160   0.168E-01    0.165E-01
DAV:   3    -0.191461815335E+03    0.26826E-03   -0.54760E-04  8400   0.161E-01    0.436E-02
DAV:   4    -0.191461813806E+03    0.15294E-05   -0.72892E-05  5480   0.460E-02
  59 F= -.19146181E+03 E0= -.19135283E+03  d E =-.222068E-02
       N       E                     dE             d eps       ncg     rms          rms(c)
DAV:   1    -0.191479231511E+03   -0.17416E-01   -0.11736E+00  8160   0.230E+00    0.282E-01
DAV:   2    -0.191487740536E+03   -0.85090E-02   -0.41200E-02 13320   0.944E-01    0.880E-01
DAV:   3    -0.191480889809E+03    0.68507E-02   -0.17730E-02 11800   0.903E-01    0.284E-01
DAV:   4    -0.191480392883E+03    0.49693E-03   -0.28287E-03 10920   0.282E-01    0.184E-01
DAV:   5    -0.191480430625E+03   -0.37742E-04   -0.21519E-03 10400   0.315E-01    0.230E-01
DAV:   6    -0.191479955871E+03    0.47475E-03   -0.10838E-03  8880   0.225E-01    0.706E-02
DAV:   7    -0.191480027945E+03   -0.72075E-04   -0.40703E-04  8840   0.132E-01
  60 F= -.19148003E+03 E0= -.19137164E+03  d E =-.182141E-01
       N       E                     dE             d eps       ncg     rms          rms(c)
DAV:   1    -0.191479690033E+03    0.26584E-03   -0.67229E-03  8160   0.195E-01    0.453E-02
DAV:   2    -0.191480008474E+03   -0.31844E-03   -0.94028E-04 10360   0.184E-01    0.176E-01
DAV:   3    -0.191479678427E+03    0.33005E-03   -0.61283E-04  8280   0.170E-01    0.409E-02
DAV:   4    -0.191479674267E+03    0.41593E-05   -0.56342E-05  5560   0.522E-02
  61 F= -.19147967E+03 E0= -.19137140E+03  d E =0.353678E-03
       N       E                     dE             d eps       ncg     rms          rms(c)
DAV:   1    -0.191501720836E+03   -0.22042E-01   -0.16324E+00  8160   0.273E+00    0.334E-01
DAV:   2    -0.191513129792E+03   -0.11409E-01   -0.56176E-02 13480   0.118E+00    0.101E+00
DAV:   3    -0.191503712052E+03    0.94177E-02   -0.22663E-02 12440   0.107E+00    0.306E-01
DAV:   4    -0.191503039053E+03    0.67300E-03   -0.33681E-03 10960   0.304E-01    0.185E-01
DAV:   5    -0.191503091462E+03   -0.52409E-04   -0.24794E-03 11480   0.319E-01    0.252E-01
DAV:   6    -0.191502563193E+03    0.52827E-03   -0.16194E-03  9800   0.272E-01    0.103E-01
DAV:   7    -0.191502673657E+03   -0.11046E-03   -0.63652E-04  8360   0.177E-01    0.134E-01
DAV:   8    -0.191502467667E+03    0.20599E-03   -0.35740E-04  8480   0.145E-01    0.302E-02
DAV:   9    -0.191502461379E+03    0.62887E-05   -0.44627E-05  6520   0.390E-02
  62 F= -.19150246E+03 E0= -.19139522E+03  d E =-.227871E-01
       N       E                     dE             d eps       ncg     rms          rms(c)
DAV:   1    -0.191435015469E+03    0.67452E-01   -0.12463E+01  8160   0.753E+00    0.921E-01
DAV:   2    -0.191534064881E+03   -0.99049E-01   -0.45973E-01 13320   0.326E+00    0.312E+00
DAV:   3    -0.191453614593E+03    0.80450E-01   -0.23228E-01 12280   0.308E+00    0.862E-01
DAV:   4    -0.191449155092E+03    0.44595E-02   -0.29579E-02 11560   0.964E-01    0.680E-01
DAV:   5    -0.191447600187E+03    0.15549E-02   -0.24413E-02 12680   0.104E+00    0.665E-01
DAV:   6    -0.191443870091E+03    0.37301E-02   -0.11416E-02 11480   0.699E-01    0.343E-01
DAV:   7    -0.191444275240E+03   -0.40515E-03   -0.65390E-03 11640   0.578E-01    0.377E-01
DAV:   8    -0.191442699484E+03    0.15758E-02   -0.30993E-03 11440   0.374E-01    0.758E-02
DAV:   9    -0.191442616028E+03    0.83456E-04   -0.33144E-04  8120   0.774E-02
  63 F= -.19144262E+03 E0= -.19133308E+03  d E =0.598454E-01
       N       E                     dE             d eps       ncg     rms          rms(c)
DAV:   1    -0.191393574635E+03    0.49125E-01   -0.14574E+01  8160   0.814E+00    0.958E-01
DAV:   2    -0.191496630867E+03   -0.10306E+00   -0.47955E-01 13600   0.332E+00    0.316E+00
DAV:   3    -0.191412654461E+03    0.83976E-01   -0.23791E-01 12200   0.311E+00    0.916E-01
DAV:   4    -0.191409524783E+03    0.31297E-02   -0.35147E-02 11240   0.115E+00    0.815E-01
DAV:   5    -0.191404499368E+03    0.50254E-02   -0.24481E-02 12120   0.110E+00    0.540E-01
DAV:   6    -0.191402297581E+03    0.22018E-02   -0.10495E-02 11400   0.666E-01    0.420E-01
DAV:   7    -0.191402275402E+03    0.22179E-04   -0.81747E-03 11600   0.641E-01    0.401E-01
DAV:   8    -0.191400607468E+03    0.16679E-02   -0.32184E-03 11080   0.355E-01    0.685E-02
DAV:   9    -0.191400548336E+03    0.59132E-04   -0.31597E-04  8080   0.694E-02
  64 F= -.19140055E+03 E0= -.19129097E+03  d E =0.420677E-01
       N       E                     dE             d eps       ncg     rms          rms(c)
DAV:   1    -0.191395583889E+03    0.50236E-02   -0.13580E+00  8160   0.249E+00    0.294E-01
DAV:   2    -0.191404253218E+03   -0.86693E-02   -0.42164E-02 13600   0.103E+00    0.904E-01
DAV:   3    -0.191396901491E+03    0.73517E-02   -0.18373E-02 11680   0.912E-01    0.265E-01
DAV:   4    -0.191396938632E+03   -0.37140E-04   -0.33028E-03 10760   0.352E-01    0.269E-01
DAV:   5    -0.191396333068E+03    0.60556E-03   -0.24043E-03 10240   0.346E-01    0.160E-01
DAV:   6    -0.191396220413E+03    0.11265E-03   -0.10178E-03  9840   0.206E-01    0.138E-01
DAV:   7    -0.191396166830E+03    0.53584E-04   -0.76066E-04  8720   0.200E-01
  65 F= -.19139617E+03 E0= -.19128652E+03  d E =0.438151E-02
       N       E                     dE             d eps       ncg     rms          rms(c)
DAV:   1    -0.191395248372E+03    0.97204E-03   -0.42161E-03 10320   0.179E-01    0.264E-02
DAV:   2    -0.191395281380E+03   -0.33007E-04   -0.19008E-04  6840   0.538E-02
  66 F= -.19139528E+03 E0= -.19128586E+03  d E =0.885450E-03
       N       E                     dE             d eps       ncg     rms          rms(c)
DAV:   1    -0.191407194504E+03   -0.11946E-01   -0.85928E-01  8160   0.199E+00    0.253E-01
DAV:   2    -0.191414385543E+03   -0.71910E-02   -0.35422E-02 13320   0.879E-01    0.833E-01
DAV:   3    -0.191408572044E+03    0.58135E-02   -0.16930E-02 11600   0.829E-01    0.251E-01
DAV:   4    -0.191408115775E+03    0.45627E-03   -0.21471E-03 10760   0.234E-01    0.138E-01
DAV:   5    -0.191408017246E+03    0.98529E-04   -0.10775E-03 10640   0.218E-01    0.148E-01
DAV:   6    -0.191407835944E+03    0.18130E-03   -0.76524E-04  8720   0.185E-01    0.793E-02
DAV:   7    -0.191407906280E+03   -0.70336E-04   -0.42351E-04  8160   0.137E-01
  67 F= -.19140791E+03 E0= -.19129742E+03  d E =-.126249E-01
       N       E                     dE             d eps       ncg     rms          rms(c)
DAV:   1    -0.191402140451E+03    0.56955E-02   -0.16148E-01  8160   0.867E-01    0.110E-01
DAV:   2    -0.191403702414E+03   -0.15620E-02   -0.65686E-03 13440   0.393E-01    0.392E-01
DAV:   3    -0.191402307029E+03    0.13954E-02   -0.32344E-03 10840   0.372E-01    0.915E-02
DAV:   4    -0.191402282884E+03    0.24146E-04   -0.33179E-04  7920   0.989E-02
  68 F= -.19140228E+03 E0= -.19129222E+03  d E =0.562340E-02
       N       E                     dE             d eps       ncg     rms          rms(c)
DAV:   1    -0.191390051065E+03    0.12256E-01   -0.11749E+00  8160   0.232E+00    0.316E-01
DAV:   2    -0.191401804957E+03   -0.11754E-01   -0.47216E-02 13200   0.114E+00    0.112E+00
DAV:   3    -0.191391067720E+03    0.10737E-01   -0.25126E-02 11360   0.104E+00    0.250E-01
DAV:   4    -0.191390852278E+03    0.21544E-03   -0.29167E-03 11440   0.277E-01    0.220E-01
DAV:   5    -0.191390846455E+03    0.58228E-05   -0.26731E-03 10640   0.357E-01    0.263E-01
DAV:   6    -0.191390204544E+03    0.64191E-03   -0.14190E-03  9520   0.243E-01    0.612E-02
DAV:   7    -0.191390183690E+03    0.20854E-04   -0.20633E-04  6520   0.751E-02
  69 F= -.19139018E+03 E0= -.19128140E+03  d E =0.120992E-01
       N       E                     dE             d eps       ncg     rms          rms(c)
DAV:   1    -0.191380628819E+03    0.95757E-02   -0.13002E+00  8160   0.245E+00    0.311E-01
DAV:   2    -0.191390009505E+03   -0.93807E-02   -0.44609E-02 13240   0.106E+00    0.961E-01
DAV:   3    -0.191381893032E+03    0.81165E-02   -0.19827E-02 11800   0.958E-01    0.277E-01
DAV:   4    -0.191382083355E+03   -0.19032E-03   -0.36416E-03 10840   0.395E-01    0.303E-01
DAV:   5    -0.191381221853E+03    0.86150E-03   -0.27179E-03 10280   0.375E-01    0.154E-01
DAV:   6    -0.191381252035E+03   -0.30182E-04   -0.11848E-03 10200   0.228E-01    0.172E-01
DAV:   7    -0.191381077042E+03    0.17499E-03   -0.87296E-04  8760   0.216E-01    0.101E-01
DAV:   8    -0.191380946547E+03    0.13050E-03   -0.21366E-04  6240   0.889E-02    0.132E-02
DAV:   9    -0.191380954852E+03   -0.83053E-05   -0.37677E-05  6560   0.209E-02
  70 F= -.19138095E+03 E0= -.19127371E+03  d E =0.922884E-02
       N       E                     dE             d eps       ncg     rms          rms(c)
DAV:   1    -0.191380463165E+03    0.48338E-03   -0.37174E-02  8160   0.415E-01    0.463E-02
DAV:   2    -0.191380580776E+03   -0.11761E-03   -0.94620E-04 12240   0.120E-01    0.101E-01
DAV:   3    -0.191380497699E+03    0.83078E-04   -0.29208E-04  7800   0.118E-01
  71 F= -.19138050E+03 E0= -.19127352E+03  d E =0.457153E-03
       N       E                     dE             d eps       ncg     rms          rms(c)
DAV:   1    -0.191386817713E+03   -0.62369E-02   -0.70093E-01  8160   0.179E+00    0.234E-01
DAV:   2    -0.191393927942E+03   -0.71102E-02   -0.30292E-02 13600   0.885E-01    0.812E-01
DAV:   3    -0.191387912972E+03    0.60150E-02   -0.13262E-02 10800   0.786E-01    0.216E-01
DAV:   4    -0.191387977185E+03   -0.64213E-04   -0.24653E-03 10400   0.316E-01    0.221E-01
DAV:   5    -0.191387525117E+03    0.45207E-03   -0.14688E-03 10000   0.266E-01    0.111E-01
DAV:   6    -0.191387434665E+03    0.90452E-04   -0.52014E-04  8280   0.129E-01
  72 F= -.19138743E+03 E0= -.19128066E+03  d E =-.693697E-02
       N       E                     dE             d eps       ncg     rms          rms(c)
DAV:   1    -0.191387373859E+03    0.15126E-03   -0.66359E-04  9840   0.163E-01    0.115E-01
DAV:   2    -0.191391215278E+03   -0.38414E-02   -0.67598E-03 10880   0.622E-01    0.633E-01
DAV:   3    -0.191387184697E+03    0.40306E-02   -0.50582E-03 10080   0.536E-01    0.408E-02
DAV:   4    -0.191387229015E+03   -0.44318E-04   -0.85020E-05  5960   0.491E-02
  73 F= -.19138723E+03 E0= -.19128044E+03  d E =0.205649E-03
       N       E                     dE             d eps       ncg     rms          rms(c)
DAV:   1    -0.191390434011E+03   -0.32493E-02   -0.19927E-01  8160   0.957E-01    0.127E-01
DAV:   2    -0.191392389874E+03   -0.19559E-02   -0.75857E-03 12640   0.455E-01    0.447E-01
DAV:   3    -0.191390512753E+03    0.18771E-02   -0.37606E-03 10840   0.414E-01    0.920E-02
DAV:   4    -0.191390555933E+03   -0.43181E-04   -0.43281E-04  8280   0.127E-01
  74 F= -.19139056E+03 E0= -.19128324E+03  d E =-.332692E-02
       N       E                     dE             d eps       ncg     rms          rms(c)
DAV:   1    -0.191394566625E+03   -0.40539E-02   -0.40648E-01  8160   0.136E+00    0.214E-01
DAV:   2    -0.191404152262E+03   -0.95856E-02   -0.23085E-02 13440   0.968E-01    0.996E-01
DAV:   3    -0.191394667777E+03    0.94845E-02   -0.14819E-02 10920   0.883E-01    0.127E-01
DAV:   4    -0.191394880658E+03   -0.21288E-03   -0.13294E-03 10120   0.218E-01    0.179E-01
DAV:   5    -0.191394627150E+03    0.25351E-03   -0.90923E-04  9000   0.200E-01    0.922E-02
DAV:   6    -0.191394586175E+03    0.40975E-04   -0.32860E-04  7040   0.118E-01
  75 F= -.19139459E+03 E0= -.19128792E+03  d E =-.403024E-02
       N       E                     dE             d eps       ncg     rms          rms(c)
DAV:   1    -0.191396578253E+03   -0.19511E-02   -0.97449E-01  8160   0.212E+00    0.271E-01
DAV:   2    -0.191406154912E+03   -0.95767E-02   -0.33436E-02 13600   0.101E+00    0.980E-01
DAV:   3    -0.191397020505E+03    0.91344E-02   -0.15901E-02 11080   0.928E-01    0.177E-01
DAV:   4    -0.191396920856E+03    0.99649E-04   -0.12917E-03 10120   0.208E-01    0.149E-01
DAV:   5    -0.191396797946E+03    0.12291E-03   -0.10590E-03 11160   0.242E-01    0.134E-01
DAV:   6    -0.191396700322E+03    0.97624E-04   -0.64570E-04  8440   0.166E-01
  76 F= -.19139670E+03 E0= -.19128883E+03  d E =-.211415E-02
       N       E                     dE             d eps       ncg     rms          rms(c)
DAV:   1    -0.191399371794E+03   -0.25738E-02   -0.62097E-02  8160   0.548E-01    0.836E-02
DAV:   2    -0.191400340817E+03   -0.96902E-03   -0.33831E-03 13200   0.306E-01    0.306E-01
DAV:   3    -0.191399392571E+03    0.94825E-03   -0.20069E-03 10040   0.299E-01    0.731E-02
DAV:   4    -0.191399427683E+03   -0.35112E-04   -0.25068E-04  6960   0.984E-02
  77 F= -.19139943E+03 E0= -.19129145E+03  d E =-.272736E-02
       N       E                     dE             d eps       ncg     rms          rms(c)
DAV:   1    -0.191389000701E+03    0.10392E-01   -0.83819E-01  8160   0.197E+00    0.250E-01
DAV:   2    -0.191398035043E+03   -0.90343E-02   -0.35219E-02 13600   0.926E-01    0.942E-01
DAV:   3    -0.191389914919E+03    0.81201E-02   -0.17322E-02 11360   0.865E-01    0.186E-01
DAV:   4    -0.191389902495E+03    0.12424E-04   -0.16805E-03 10000   0.226E-01    0.171E-01
DAV:   5    -0.191389647716E+03    0.25478E-03   -0.10377E-03 11080   0.238E-01    0.116E-01
DAV:   6    -0.191389546613E+03    0.10110E-03   -0.51635E-04  8240   0.144E-01    0.781E-02
DAV:   7    -0.191389630820E+03   -0.84207E-04   -0.44125E-04  8600   0.155E-01
  78 F= -.19138963E+03 E0= -.19128202E+03  d E =0.979686E-02
       N       E                     dE             d eps       ncg     rms          rms(c)
DAV:   1    -0.191374110455E+03    0.15436E-01   -0.26560E+00  8160   0.350E+00    0.427E-01
DAV:   2    -0.191393349449E+03   -0.19239E-01   -0.92809E-02 13600   0.140E+00    0.138E+00
DAV:   3    -0.191377182609E+03    0.16167E-01   -0.42659E-02 12160   0.133E+00    0.373E-01
DAV:   4    -0.191376433875E+03    0.74873E-03   -0.48185E-03 11360   0.349E-01    0.254E-01
DAV:   5    -0.191376233002E+03    0.20087E-03   -0.32873E-03 12640   0.407E-01    0.295E-01
DAV:   6    -0.191375620187E+03    0.61281E-03   -0.24165E-03 11080   0.347E-01    0.152E-01
DAV:   7    -0.191375664677E+03   -0.44490E-04   -0.11308E-03  9760   0.227E-01    0.162E-01
DAV:   8    -0.191375360291E+03    0.30439E-03   -0.49768E-04  9200   0.168E-01    0.316E-02
DAV:   9    -0.191375355909E+03    0.43820E-05   -0.48444E-05  5880   0.363E-02
  79 F= -.19137536E+03 E0= -.19126784E+03  d E =0.142749E-01
       N       E                     dE             d eps       ncg     rms          rms(c)
DAV:   1    -0.191380793796E+03   -0.54335E-02   -0.45786E-01  8160   0.145E+00    0.198E-01
DAV:   2    -0.191386410085E+03   -0.56163E-02   -0.21982E-02 13440   0.749E-01    0.750E-01
DAV:   3    -0.191381453768E+03    0.49563E-02   -0.11115E-02 11240   0.705E-01    0.167E-01
DAV:   4    -0.191381258746E+03    0.19502E-03   -0.11003E-03  9640   0.150E-01    0.101E-01
DAV:   5    -0.191381267508E+03   -0.87621E-05   -0.63625E-04  9400   0.169E-01
  80 F= -.19138127E+03 E0= -.19127363E+03  d E =-.591160E-02
       N       E                     dE             d eps       ncg     rms          rms(c)
DAV:   1    -0.191386267062E+03   -0.50083E-02   -0.37406E-01  8160   0.132E+00    0.182E-01
DAV:   2    -0.191390666689E+03   -0.43996E-02   -0.18650E-02 13600   0.657E-01    0.660E-01
DAV:   3    -0.191386901475E+03    0.37652E-02   -0.86121E-03 11080   0.614E-01    0.146E-01
DAV:   4    -0.191386791842E+03    0.10963E-03   -0.71897E-04  8640   0.134E-01    0.980E-02
DAV:   5    -0.191386751696E+03    0.40146E-04   -0.48433E-04  9400   0.154E-01
  81 F= -.19138675E+03 E0= -.19127896E+03  d E =-.548419E-02
       N       E                     dE             d eps       ncg     rms          rms(c)
DAV:   1    -0.191389447012E+03   -0.26552E-02   -0.86596E-02  8160   0.640E-01    0.116E-01
DAV:   2    -0.191391684403E+03   -0.22374E-02   -0.59968E-03 12440   0.485E-01    0.482E-01
DAV:   3    -0.191389425948E+03    0.22585E-02   -0.35907E-03 10880   0.437E-01    0.737E-02
DAV:   4    -0.191389524040E+03   -0.98091E-04   -0.38085E-04  8360   0.133E-01
  82 F= -.19138952E+03 E0= -.19128177E+03  d E =-.277234E-02
       N       E                     dE             d eps       ncg     rms          rms(c)
DAV:   1    -0.191392667592E+03   -0.32416E-02   -0.11518E-01  8160   0.735E-01    0.124E-01
DAV:   2    -0.191395371664E+03   -0.27041E-02   -0.81000E-03 13480   0.495E-01    0.538E-01
DAV:   3    -0.191392722847E+03    0.26488E-02   -0.50368E-03 10800   0.467E-01    0.803E-02
DAV:   4    -0.191392736668E+03   -0.13821E-04   -0.30542E-04  7640   0.884E-02
  83 F= -.19139274E+03 E0= -.19128493E+03  d E =-.321263E-02
       N       E                     dE             d eps       ncg     rms          rms(c)
DAV:   1    -0.191394267982E+03   -0.15451E-02   -0.29706E-02  8160   0.396E-01    0.117E-01
DAV:   2    -0.191397435337E+03   -0.31674E-02   -0.60702E-03 12320   0.560E-01    0.572E-01
DAV:   3    -0.191394135237E+03    0.33001E-02   -0.44759E-03 10480   0.507E-01    0.609E-02
DAV:   4    -0.191394192936E+03   -0.57700E-04   -0.24035E-04  7040   0.874E-02
  84 F= -.19139419E+03 E0= -.19128653E+03  d E =-.145627E-02
       N       E                     dE             d eps       ncg     rms          rms(c)
DAV:   1    -0.191402198499E+03   -0.80633E-02   -0.64898E-01  8160   0.173E+00    0.255E-01
DAV:   2    -0.191412053319E+03   -0.98548E-02   -0.34813E-02 13480   0.960E-01    0.102E+00
DAV:   3    -0.191402999545E+03    0.90538E-02   -0.20300E-02 11160   0.928E-01    0.211E-01
DAV:   4    -0.191402661686E+03    0.33786E-03   -0.17953E-03 10320   0.196E-01    0.124E-01
DAV:   5    -0.191402724624E+03   -0.62938E-04   -0.10774E-03 11080   0.227E-01    0.183E-01
DAV:   6    -0.191402420857E+03    0.30377E-03   -0.65083E-04  8160   0.189E-01    0.588E-02
DAV:   7    -0.191402427265E+03   -0.64083E-05   -0.15391E-04  5520   0.669E-02
  85 F= -.19140243E+03 E0= -.19129484E+03  d E =-.823433E-02
       N       E                     dE             d eps       ncg     rms          rms(c)
DAV:   1    -0.191389051056E+03    0.13370E-01   -0.14528E+00  8160   0.258E+00    0.327E-01
DAV:   2    -0.191402708452E+03   -0.13657E-01   -0.61138E-02 13600   0.119E+00    0.110E+00
DAV:   3    -0.191391328874E+03    0.11380E-01   -0.26707E-02 11840   0.108E+00    0.293E-01
DAV:   4    -0.191390806138E+03    0.52274E-03   -0.32717E-03 10960   0.282E-01    0.187E-01
DAV:   5    -0.191390661406E+03    0.14473E-03   -0.17291E-03 11200   0.285E-01    0.205E-01
DAV:   6    -0.191390327197E+03    0.33421E-03   -0.11776E-03  9480   0.238E-01    0.103E-01
DAV:   7    -0.191390457043E+03   -0.12985E-03   -0.69277E-04  9160   0.181E-01    0.140E-01
DAV:   8    -0.191390234012E+03    0.22303E-03   -0.36031E-04  8600   0.144E-01    0.288E-02
DAV:   9    -0.191390228670E+03    0.53414E-05   -0.35861E-05  6000   0.325E-02
  86 F= -.19139023E+03 E0= -.19128238E+03  d E =0.121986E-01
       N       E                     dE             d eps       ncg     rms          rms(c)
DAV:   1    -0.191375473956E+03    0.14760E-01   -0.26307E+00  8160   0.348E+00    0.412E-01
DAV:   2    -0.191391188293E+03   -0.15714E-01   -0.90135E-02 13600   0.129E+00    0.115E+00
DAV:   3    -0.191379724027E+03    0.11464E-01   -0.35523E-02 11880   0.123E+00    0.447E-01
DAV:   4    -0.191378411094E+03    0.13129E-02   -0.63682E-03 11080   0.416E-01    0.252E-01
DAV:   5    -0.191378003424E+03    0.40767E-03   -0.30181E-03 12000   0.368E-01    0.254E-01
DAV:   6    -0.191377553414E+03    0.45001E-03   -0.21393E-03 10200   0.323E-01    0.155E-01
DAV:   7    -0.191377742997E+03   -0.18958E-03   -0.13459E-03  9840   0.257E-01    0.201E-01
DAV:   8    -0.191377321479E+03    0.42152E-03   -0.71877E-04  9040   0.200E-01    0.428E-02
DAV:   9    -0.191377304588E+03    0.16892E-04   -0.61677E-05  5760   0.420E-02
  87 F= -.19137730E+03 E0= -.19126887E+03  d E =0.129241E-01
       N       E                     dE             d eps       ncg     rms          rms(c)
DAV:   1    -0.191382068608E+03   -0.47471E-02   -0.39068E-01  8160   0.133E+00    0.179E-01
DAV:   2    -0.191387013167E+03   -0.49446E-02   -0.19335E-02 13520   0.687E-01    0.697E-01
DAV:   3    -0.191382750944E+03    0.42622E-02   -0.97403E-03 11080   0.649E-01    0.154E-01
DAV:   4    -0.191382591872E+03    0.15907E-03   -0.92154E-04  9600   0.139E-01    0.893E-02
DAV:   5    -0.191382548282E+03    0.43590E-04   -0.40996E-04  9240   0.133E-01
  88 F= -.19138255E+03 E0= -.19127373E+03  d E =-.524369E-02
       N       E                     dE             d eps       ncg     rms          rms(c)
DAV:   1    -0.191382283391E+03    0.30848E-03   -0.18756E-03 11400   0.148E-01    0.583E-02
DAV:   2    -0.191383188721E+03   -0.90533E-03   -0.16837E-03 10240   0.300E-01    0.306E-01
DAV:   3    -0.191382237348E+03    0.95137E-03   -0.12312E-03  9400   0.261E-01    0.293E-02
DAV:   4    -0.191382262754E+03   -0.25406E-04   -0.37688E-05  5760   0.339E-02
  89 F= -.19138226E+03 E0= -.19127353E+03  d E =0.285528E-03
       N       E                     dE             d eps       ncg     rms          rms(c)
DAV:   1    -0.191386579463E+03   -0.43421E-02   -0.32736E-01  8160   0.122E+00    0.152E-01
DAV:   2    -0.191389163620E+03   -0.25842E-02   -0.12853E-02 13400   0.518E-01    0.491E-01
DAV:   3    -0.191387117764E+03    0.20459E-02   -0.56222E-03 11080   0.492E-01    0.151E-01
DAV:   4    -0.191386957706E+03    0.16006E-03   -0.68732E-04  8720   0.128E-01    0.775E-02
DAV:   5    -0.191386952730E+03    0.49759E-05   -0.37006E-04  8840   0.128E-01
  90 F= -.19138695E+03 E0= -.19127779E+03  d E =-.468998E-02
       N       E                     dE             d eps       ncg     rms          rms(c)
DAV:   1    -0.191385610621E+03    0.13471E-02   -0.35011E-02  8160   0.409E-01    0.681E-02
DAV:   2    -0.191386481507E+03   -0.87089E-03   -0.26569E-03 11640   0.285E-01    0.296E-01
DAV:   3    -0.191385627334E+03    0.85417E-03   -0.15714E-03  9840   0.268E-01    0.542E-02
DAV:   4    -0.191385625003E+03    0.23308E-05   -0.11388E-04  5760   0.551E-02
  91 F= -.19138563E+03 E0= -.19127667E+03  d E =0.132773E-02
       N       E                     dE             d eps       ncg     rms          rms(c)
DAV:   1    -0.191387561983E+03   -0.19346E-02   -0.13421E-01  8160   0.795E-01    0.118E-01
DAV:   2    -0.191388099218E+03   -0.53723E-03   -0.48777E-03 12960   0.331E-01    0.247E-01
DAV:   3    -0.191387543473E+03    0.55574E-03   -0.16119E-03 10040   0.290E-01    0.103E-01
DAV:   4    -0.191387601184E+03   -0.57711E-04   -0.67556E-04  8360   0.175E-01
  92 F= -.19138760E+03 E0= -.19127840E+03  d E =-.197618E-02
       N       E                     dE             d eps       ncg     rms          rms(c)
DAV:   1    -0.191388496442E+03   -0.95297E-03   -0.49358E-02  8160   0.510E-01    0.948E-02
DAV:   2    -0.191389416958E+03   -0.92052E-03   -0.33560E-03 12640   0.312E-01    0.309E-01
DAV:   3    -0.191388478273E+03    0.93868E-03   -0.22186E-03  9760   0.320E-01    0.966E-02
DAV:   4    -0.191388478252E+03    0.21708E-07   -0.40236E-04  7640   0.117E-01
  93 F= -.19138848E+03 E0= -.19127938E+03  d E =-.877068E-03
       N       E                     dE             d eps       ncg     rms          rms(c)
DAV:   1    -0.191387455387E+03    0.10229E-02   -0.29663E-02  8160   0.390E-01    0.452E-02
DAV:   2    -0.191387807104E+03   -0.35172E-03   -0.12732E-03 12400   0.194E-01    0.172E-01
DAV:   3    -0.191387489031E+03    0.31807E-03   -0.51501E-04  8280   0.170E-01    0.359E-02
DAV:   4    -0.191387500169E+03   -0.11138E-04   -0.60750E-05  5520   0.552E-02
  94 F= -.19138750E+03 E0= -.19127848E+03  d E =0.978083E-03
       N       E                     dE             d eps       ncg     rms          rms(c)
DAV:   1    -0.191392187628E+03   -0.46986E-02   -0.33192E-01  8160   0.123E+00    0.161E-01
DAV:   2    -0.191395745623E+03   -0.35580E-02   -0.15966E-02 13080   0.599E-01    0.581E-01
DAV:   3    -0.191392776248E+03    0.29694E-02   -0.74762E-03 11200   0.556E-01    0.149E-01
DAV:   4    -0.191392629233E+03    0.14702E-03   -0.77683E-04  9600   0.135E-01    0.825E-02
DAV:   5    -0.191392632085E+03   -0.28521E-05   -0.40993E-04  8840   0.142E-01
  95 F= -.19139263E+03 E0= -.19128347E+03  d E =-.513192E-02
       N       E                     dE             d eps       ncg     rms          rms(c)
DAV:   1    -0.191384464553E+03    0.81647E-02   -0.78468E-01  8160   0.189E+00    0.240E-01
DAV:   2    -0.191392950439E+03   -0.84859E-02   -0.34251E-02 13560   0.903E-01    0.871E-01
DAV:   3    -0.191385694140E+03    0.72563E-02   -0.15977E-02 11440   0.845E-01    0.217E-01
DAV:   4    -0.191385345836E+03    0.34830E-03   -0.18230E-03 10200   0.204E-01    0.122E-01
DAV:   5    -0.191385328006E+03    0.17830E-04   -0.85812E-04 10680   0.195E-01
  96 F= -.19138533E+03 E0= -.19127659E+03  d E =0.730408E-02
       N       E                     dE             d eps       ncg     rms          rms(c)
DAV:   1    -0.191370543209E+03    0.14803E-01   -0.34838E+00  8160   0.400E+00    0.533E-01
DAV:   2    -0.191405370392E+03   -0.34827E-01   -0.14503E-01 13560   0.191E+00    0.180E+00
DAV:   3    -0.191375217986E+03    0.30152E-01   -0.68712E-02 11920   0.175E+00    0.461E-01
DAV:   4    -0.191374533714E+03    0.68427E-03   -0.86692E-03 10360   0.536E-01    0.424E-01
DAV:   5    -0.191373493547E+03    0.10402E-02   -0.61841E-03 12240   0.575E-01    0.330E-01
DAV:   6    -0.191372563131E+03    0.93042E-03   -0.30625E-03 11320   0.363E-01    0.174E-01
DAV:   7    -0.191372833231E+03   -0.27010E-03   -0.20666E-03 10280   0.327E-01    0.220E-01
DAV:   8    -0.191372246464E+03    0.58677E-03   -0.89767E-04  9680   0.214E-01    0.305E-02
DAV:   9    -0.191372251950E+03   -0.54859E-05   -0.72105E-05  6080   0.340E-02
  97 F= -.19137225E+03 E0= -.19126423E+03  d E =0.130761E-01
       N       E                     dE             d eps       ncg     rms          rms(c)
DAV:   1    -0.191377741394E+03   -0.54949E-02   -0.81768E-01  8160   0.194E+00    0.243E-01
DAV:   2    -0.191384193026E+03   -0.64516E-02   -0.31092E-02 13520   0.844E-01    0.799E-01
DAV:   3    -0.191378829871E+03    0.53632E-02   -0.14017E-02 11280   0.776E-01    0.225E-01
DAV:   4    -0.191378572746E+03    0.25713E-03   -0.19751E-03 10720   0.250E-01    0.165E-01
DAV:   5    -0.191378373708E+03    0.19904E-03   -0.11418E-03 10600   0.242E-01    0.131E-01
DAV:   6    -0.191378192237E+03    0.18147E-03   -0.56809E-04  8200   0.153E-01    0.509E-02
DAV:   7    -0.191378191845E+03    0.39215E-06   -0.16268E-04  6760   0.723E-02
  98 F= -.19137819E+03 E0= -.19127014E+03  d E =-.593990E-02
       N       E                     dE             d eps       ncg     rms          rms(c)
DAV:   1    -0.191371273912E+03    0.69183E-02   -0.24648E+00  8160   0.338E+00    0.397E-01
DAV:   2    -0.191378631573E+03   -0.73577E-02   -0.70902E-02 13480   0.108E+00    0.773E-01
DAV:   3    -0.191374559265E+03    0.40723E-02   -0.20750E-02 11960   0.974E-01    0.487E-01
DAV:   4    -0.191373505968E+03    0.10533E-02   -0.79932E-03 11280   0.563E-01    0.372E-01
DAV:   5    -0.191372431684E+03    0.10743E-02   -0.49280E-03 10320   0.489E-01    0.225E-01
DAV:   6    -0.191371932481E+03    0.49920E-03   -0.19185E-03 11760   0.246E-01    0.964E-02
DAV:   7    -0.191372062567E+03   -0.13009E-03   -0.88188E-04  9880   0.198E-01    0.164E-01
DAV:   8    -0.191371800726E+03    0.26184E-03   -0.43002E-04  8320   0.156E-01    0.323E-02
DAV:   9    -0.191371804703E+03   -0.39769E-05   -0.41062E-05  5560   0.313E-02
  99 F= -.19137180E+03 E0= -.19126338E+03  d E =0.638714E-02
       N       E                     dE             d eps       ncg     rms          rms(c)
DAV:   1    -0.191376237039E+03   -0.44363E-02   -0.51528E-01  8160   0.153E+00    0.226E-01
DAV:   2    -0.191383995632E+03   -0.77586E-02   -0.27018E-02 13320   0.911E-01    0.909E-01
DAV:   3    -0.191376791785E+03    0.72038E-02   -0.15189E-02 11160   0.826E-01    0.181E-01
DAV:   4    -0.191376667555E+03    0.12423E-03   -0.16576E-03  9800   0.224E-01    0.158E-01
DAV:   5    -0.191376532742E+03    0.13481E-03   -0.11147E-03 10320   0.223E-01    0.138E-01
DAV:   6    -0.191376365635E+03    0.16711E-03   -0.57247E-04  8120   0.152E-01    0.802E-02
DAV:   7    -0.191376391374E+03   -0.25738E-04   -0.35011E-04  8000   0.136E-01
 100 F= -.19137639E+03 E0= -.19126757E+03  d E =-.458667E-02
