<?xml version="1.0" encoding="ISO-8859-1"?>
<modeling>
 <generator>
  <i name="program" type="string">vasp </i>
  <i name="version" type="string">5.4.1  </i>
  <i name="subversion" type="string">05Feb16 (build Jul 05 2020 17:13:04) complex                          parallel </i>
  <i name="platform" type="string">IFC91_ompi </i>
  <i name="date" type="string">2024 04 27 </i>
  <i name="time" type="string">02:13:48 </i>
 </generator>
 <incar>
  <i type="int" name="ISTART">     0</i>
  <i type="string" name="PREC">normal</i>
  <i type="string" name="ALGO"> Normal</i>
  <i type="int" name="ISPIN">     1</i>
  <i type="int" name="ICHARG">     2</i>
  <i type="int" name="IBRION">     1</i>
  <i type="int" name="NSW">   100</i>
  <i type="int" name="ISIF">     3</i>
  <i type="int" name="ISYM">     0</i>
  <i name="SYMPREC">      0.00000001</i>
  <i name="POTIM">      0.50000000</i>
  <i type="logical" name="LREAL"> F  </i>
  <i type="logical" name="LPLANE"> F  </i>
  <i type="int" name="ISMEAR">     0</i>
  <i type="logical" name="LWAVE"> F  </i>
  <i type="logical" name="LCHARG"> F  </i>
  <v type="int" name="KPOINT_BSE">    -1     0     0     0</v>
 </incar>
 <kpoints>
  <generation param="Gamma">
   <v type="int" name="divisions">       8        8        1 </v>
   <v name="usershift">      0.00000000       0.00000000       0.00000000 </v>
   <v name="genvec1">      0.12500000       0.00000000       0.00000000 </v>
   <v name="genvec2">     -0.00000000       0.12500000       0.00000000 </v>
   <v name="genvec3">      0.00000000       0.00000000       1.00000000 </v>
   <v name="shift">      0.00000000       0.00000000       0.00000000 </v>
  </generation>
  <varray name="kpointlist" >
   <v>       0.00000000       0.00000000       0.00000000 </v>
   <v>       0.12500000       0.00000000       0.00000000 </v>
   <v>       0.25000000       0.00000000       0.00000000 </v>
   <v>       0.37500000       0.00000000       0.00000000 </v>
   <v>       0.50000000       0.00000000       0.00000000 </v>
   <v>       0.00000000       0.12500000       0.00000000 </v>
   <v>       0.12500000       0.12500000       0.00000000 </v>
   <v>       0.25000000       0.12500000       0.00000000 </v>
   <v>       0.37500000       0.12500000       0.00000000 </v>
   <v>       0.50000000       0.12500000       0.00000000 </v>
   <v>      -0.37500000       0.12500000       0.00000000 </v>
   <v>      -0.25000000       0.12500000       0.00000000 </v>
   <v>      -0.12500000       0.12500000       0.00000000 </v>
   <v>       0.00000000       0.25000000       0.00000000 </v>
   <v>       0.12500000       0.25000000       0.00000000 </v>
   <v>       0.25000000       0.25000000       0.00000000 </v>
   <v>       0.37500000       0.25000000       0.00000000 </v>
   <v>       0.50000000       0.25000000       0.00000000 </v>
   <v>      -0.37500000       0.25000000       0.00000000 </v>
   <v>      -0.25000000       0.25000000       0.00000000 </v>
   <v>      -0.12500000       0.25000000       0.00000000 </v>
   <v>      -0.00000000       0.37500000       0.00000000 </v>
   <v>       0.12500000       0.37500000       0.00000000 </v>
   <v>       0.25000000       0.37500000       0.00000000 </v>
   <v>       0.37500000       0.37500000       0.00000000 </v>
   <v>       0.50000000       0.37500000       0.00000000 </v>
   <v>      -0.37500000       0.37500000       0.00000000 </v>
   <v>      -0.25000000       0.37500000       0.00000000 </v>
   <v>      -0.12500000       0.37500000       0.00000000 </v>
   <v>       0.00000000       0.50000000       0.00000000 </v>
   <v>       0.12500000       0.50000000       0.00000000 </v>
   <v>       0.25000000       0.50000000       0.00000000 </v>
   <v>       0.37500000       0.50000000       0.00000000 </v>
   <v>       0.50000000       0.50000000       0.00000000 </v>
  </varray>
  <varray name="weights" >
   <v>       0.01562500 </v>
   <v>       0.03125000 </v>
   <v>       0.03125000 </v>
   <v>       0.03125000 </v>
   <v>       0.01562500 </v>
   <v>       0.03125000 </v>
   <v>       0.03125000 </v>
   <v>       0.03125000 </v>
   <v>       0.03125000 </v>
   <v>       0.03125000 </v>
   <v>       0.03125000 </v>
   <v>       0.03125000 </v>
   <v>       0.03125000 </v>
   <v>       0.03125000 </v>
   <v>       0.03125000 </v>
   <v>       0.03125000 </v>
   <v>       0.03125000 </v>
   <v>       0.03125000 </v>
   <v>       0.03125000 </v>
   <v>       0.03125000 </v>
   <v>       0.03125000 </v>
   <v>       0.03125000 </v>
   <v>       0.03125000 </v>
   <v>       0.03125000 </v>
   <v>       0.03125000 </v>
   <v>       0.03125000 </v>
   <v>       0.03125000 </v>
   <v>       0.03125000 </v>
   <v>       0.03125000 </v>
   <v>       0.01562500 </v>
   <v>       0.03125000 </v>
   <v>       0.03125000 </v>
   <v>       0.03125000 </v>
   <v>       0.01562500 </v>
  </varray>
 </kpoints>
 <parameters>
  <separator name="general" >
   <i type="string" name="SYSTEM">unknown system</i>
   <i type="logical" name="LCOMPAT"> F  </i>
  </separator>
  <separator name="electronic" >
   <i type="string" name="PREC">normal</i>
   <i name="ENMAX">    280.00000000</i>
   <i name="ENAUG">    373.43800000</i>
   <i name="EDIFF">      0.00010000</i>
   <i type="int" name="IALGO">    38</i>
   <i type="int" name="IWAVPR">    11</i>
   <i type="int" name="NBANDS">   120</i>
   <i name="NELECT">    159.00000000</i>
   <i type="int" name="TURBO">     0</i>
   <i type="int" name="IRESTART">     0</i>
   <i type="int" name="NREBOOT">     0</i>
   <i type="int" name="NMIN">     0</i>
   <i name="EREF">      0.00000000</i>
   <separator name="electronic smearing" >
    <i type="int" name="ISMEAR">     0</i>
    <i name="SIGMA">      0.20000000</i>
    <i name="KSPACING">      0.50000000</i>
    <i type="logical" name="KGAMMA"> T  </i>
   </separator>
   <separator name="electronic projectors" >
    <i type="logical" name="LREAL"> F  </i>
    <v name="ROPT">      0.00000000      0.00000000      0.00000000      0.00000000</v>
    <i type="int" name="LMAXPAW">  -100</i>
    <i type="int" name="LMAXMIX">     2</i>
    <i type="logical" name="NLSPLINE"> F  </i>
   </separator>
   <separator name="electronic startup" >
    <i type="int" name="ISTART">     0</i>
    <i type="int" name="ICHARG">     2</i>
    <i type="int" name="INIWAV">     1</i>
   </separator>
   <separator name="electronic spin" >
    <i type="int" name="ISPIN">     1</i>
    <i type="logical" name="LNONCOLLINEAR"> F  </i>
    <v name="MAGMOM">      1.00000000      1.00000000      1.00000000      1.00000000      1.00000000      1.00000000      1.00000000      1.00000000      1.00000000      1.00000000      1.00000000      1.00000000      1.00000000      1.00000000      1.00000000      1.00000000      1.00000000      1.00000000      1.00000000      1.00000000
      1.00000000      1.00000000      1.00000000      1.00000000      1.00000000      1.00000000      1.00000000</v>
    <i name="NUPDOWN">     -1.00000000</i>
    <i type="logical" name="LSORBIT"> F  </i>
    <v name="SAXIS">      0.00000000      0.00000000      1.00000000</v>
    <i type="logical" name="LSPIRAL"> F  </i>
    <v name="QSPIRAL">      0.00000000      0.00000000      0.00000000</v>
    <i type="logical" name="LZEROZ"> F  </i>
   </separator>
   <separator name="electronic exchange-correlation" >
    <i type="logical" name="LASPH"> F  </i>
    <i type="logical" name="LMETAGGA"> F  </i>
   </separator>
   <separator name="electronic convergence" >
    <i type="int" name="NELM">    60</i>
    <i type="int" name="NELMDL">    -5</i>
    <i type="int" name="NELMIN">     2</i>
    <i name="ENINI">    280.00000000</i>
    <separator name="electronic convergence detail" >
     <i type="logical" name="LDIAG"> T  </i>
     <i type="logical" name="LSUBROT"> F  </i>
     <i name="WEIMIN">      0.00100000</i>
     <i name="EBREAK">      0.00000021</i>
     <i name="DEPER">      0.30000000</i>
     <i type="int" name="NRMM">     4</i>
     <i name="TIME">      0.40000000</i>
    </separator>
   </separator>
   <separator name="electronic mixer" >
    <i name="AMIX">      0.40000000</i>
    <i name="BMIX">      1.00000000</i>
    <i name="AMIN">      0.10000000</i>
    <i name="AMIX_MAG">      1.60000000</i>
    <i name="BMIX_MAG">      1.00000000</i>
    <separator name="electronic mixer details" >
     <i type="int" name="IMIX">     4</i>
     <i type="logical" name="MIXFIRST"> F  </i>
     <i type="int" name="MAXMIX">   -45</i>
     <i name="WC">    100.00000000</i>
     <i type="int" name="INIMIX">     1</i>
     <i type="int" name="MIXPRE">     1</i>
     <i type="int" name="MREMOVE">     5</i>
    </separator>
   </separator>
   <separator name="electronic dipolcorrection" >
    <i type="logical" name="LDIPOL"> F  </i>
    <i type="logical" name="LMONO"> F  </i>
    <i type="int" name="IDIPOL">     0</i>
    <i name="EPSILON">      1.00000000</i>
    <v name="DIPOL">   -100.00000000   -100.00000000   -100.00000000</v>
    <i name="EFIELD">      0.00000000</i>
   </separator>
  </separator>
  <separator name="grids" >
   <i type="int" name="NGX">    42</i>
   <i type="int" name="NGY">    42</i>
   <i type="int" name="NGZ">   126</i>
   <i type="int" name="NGXF">    84</i>
   <i type="int" name="NGYF">    84</i>
   <i type="int" name="NGZF">   252</i>
   <i type="logical" name="ADDGRID"> F  </i>
  </separator>
  <separator name="ionic" >
   <i type="int" name="NSW">   100</i>
   <i type="int" name="IBRION">     1</i>
   <i type="int" name="ISIF">     3</i>
   <i name="PSTRESS">      0.00000000</i>
   <i name="EDIFFG">      0.00100000</i>
   <i type="int" name="NFREE">     0</i>
   <i name="POTIM">      0.50000000</i>
   <i name="SMASS">     -3.00000000</i>
   <i name="SCALEE">      1.00000000</i>
  </separator>
  <separator name="ionic md" >
   <i name="TEBEG">      0.00010000</i>
   <i name="TEEND">      0.00010000</i>
   <i type="int" name="NBLOCK">     1</i>
   <i type="int" name="KBLOCK">   100</i>
   <i type="int" name="NPACO">   256</i>
   <i name="APACO">     16.00000000</i>
  </separator>
  <separator name="symmetry" >
   <i type="int" name="ISYM">     0</i>
   <i name="SYMPREC">      0.00000001</i>
  </separator>
  <separator name="dos" >
   <i type="logical" name="LORBIT"> F  </i>
   <v name="RWIGS">     -1.00000000     -1.00000000     -1.00000000     -1.00000000</v>
   <i type="int" name="NEDOS">   301</i>
   <i name="EMIN">     10.00000000</i>
   <i name="EMAX">    -10.00000000</i>
   <i name="EFERMI">      0.00000000</i>
  </separator>
  <separator name="writing" >
   <i type="int" name="NWRITE">     2</i>
   <i type="logical" name="LWAVE"> F  </i>
   <i type="logical" name="LCHARG"> F  </i>
   <i type="logical" name="LPARD"> F  </i>
   <i type="logical" name="LVTOT"> F  </i>
   <i type="logical" name="LVHAR"> F  </i>
   <i type="logical" name="LELF"> F  </i>
   <i type="logical" name="LOPTICS"> F  </i>
   <v name="STM">      0.00000000      0.00000000      0.00000000      0.00000000      0.00000000      0.00000000      0.00000000</v>
  </separator>
  <separator name="performance" >
   <i type="int" name="NPAR">    40</i>
   <i type="int" name="NSIM">     4</i>
   <i type="int" name="NBLK">    -1</i>
   <i type="logical" name="LPLANE"> F  </i>
   <i type="logical" name="LSCALAPACK"> T  </i>
   <i type="logical" name="LSCAAWARE"> F  </i>
   <i type="logical" name="LSCALU"> F  </i>
   <i type="logical" name="LASYNC"> F  </i>
   <i type="logical" name="LORBITALREAL"> F  </i>
  </separator>
  <separator name="miscellaneous" >
   <i type="int" name="IDIOT">     3</i>
   <i type="logical" name="LMUSIC"> F  </i>
   <v name="POMASS">     50.94100000     95.94000000    183.85000000     32.06600000</v>
   <v name="DARWINR">      0.00000000      0.00000000      0.00000000      0.00000000</v>
   <v name="DARWINV">      1.00000000      1.00000000      1.00000000      1.00000000</v>
   <i type="logical" name="LCORR"> T  </i>
  </separator>
  <i type="logical" name="GGA_COMPAT"> T  </i>
  <i type="logical" name="LBERRY"> F  </i>
  <i type="int" name="ICORELEVEL">     0</i>
  <i type="logical" name="LDAU"> F  </i>
  <i type="int" name="I_CONSTRAINED_M">     0</i>
  <separator name="electronic exchange-correlation" >
   <i type="string" name="GGA">--</i>
   <i type="int" name="VOSKOWN">     0</i>
   <i type="logical" name="LHFCALC"> F  </i>
   <i type="string" name="PRECFOCK"></i>
   <i type="logical" name="LSYMGRAD"> F  </i>
   <i type="logical" name="LHFONE"> F  </i>
   <i type="logical" name="LRHFCALC"> F  </i>
   <i type="logical" name="LTHOMAS"> F  </i>
   <i type="logical" name="LMODELHF"> F  </i>
   <i name="ENCUT4O">     -1.00000000</i>
   <i type="int" name="EXXOEP">     0</i>
   <i type="int" name="FOURORBIT">     0</i>
   <i name="AEXX">      0.00000000</i>
   <i name="HFALPHA">      0.00000000</i>
   <i name="MCALPHA">      0.00000000</i>
   <i name="ALDAX">      1.00000000</i>
   <i name="AGGAX">      1.00000000</i>
   <i name="ALDAC">      1.00000000</i>
   <i name="AGGAC">      1.00000000</i>
   <i type="int" name="NKREDX">     1</i>
   <i type="int" name="NKREDY">     1</i>
   <i type="int" name="NKREDZ">     1</i>
   <i type="logical" name="SHIFTRED"> F  </i>
   <i type="logical" name="ODDONLY"> F  </i>
   <i type="logical" name="EVENONLY"> F  </i>
   <i type="int" name="LMAXFOCK">     0</i>
   <i type="int" name="NMAXFOCKAE">     0</i>
   <i type="logical" name="LFOCKAEDFT"> F  </i>
   <i name="HFSCREEN">      0.00000000</i>
   <i name="HFSCREENC">      0.00000000</i>
   <i type="int" name="NBANDSGWLOW">     0</i>
  </separator>
  <separator name="vdW DFT" >
   <i type="logical" name="LUSE_VDW"> F  </i>
   <i name="Zab_VDW">     -0.84910000</i>
   <i name="PARAM1">      0.12340000</i>
   <i name="PARAM2">      1.00000000</i>
   <i name="PARAM3">      0.00000000</i>
  </separator>
  <separator name="model GW" >
   <i type="int" name="MODEL_GW">     0</i>
   <i name="MODEL_EPS0">     58.26239943</i>
   <i name="MODEL_ALPHA">      1.00000000</i>
  </separator>
  <separator name="linear response parameters" >
   <i type="logical" name="LEPSILON"> F  </i>
   <i type="logical" name="LRPA"> F  </i>
   <i type="logical" name="LNABLA"> F  </i>
   <i type="logical" name="LVEL"> F  </i>
   <i type="int" name="KINTER">     0</i>
   <i name="CSHIFT">      0.10000000</i>
   <i name="OMEGAMAX">     -1.00000000</i>
   <i name="DEG_THRESHOLD">      0.00200000</i>
  </separator>
  <separator name="orbital magnetization" >
   <i type="logical" name="NUCIND"> F  </i>
   <v name="MAGPOS">      0.00000000      0.00000000      0.00000000</v>
   <i type="logical" name="LNICSALL"> T  </i>
   <i type="logical" name="ORBITALMAG"> F  </i>
   <i type="logical" name="LMAGBLOCH"> F  </i>
   <i type="logical" name="LCHIMAG"> F  </i>
   <i type="logical" name="LGAUGE"> T  </i>
   <i type="int" name="MAGATOM">     0</i>
   <v name="MAGDIPOL">      0.00000000      0.00000000      0.00000000</v>
   <v name="AVECCONST">      0.00000000      0.00000000      0.00000000</v>
  </separator>
  <separator name="response functions" >
   <i type="logical" name="LADDER"> F  </i>
   <i type="logical" name="LFXC"> F  </i>
   <i type="logical" name="LHARTREE"> T  </i>
   <i type="int" name="IBSE">     0</i>
   <v type="int" name="KPOINT">    -1     0     0     0</v>
   <i type="logical" name="LTCTE"> F  </i>
   <i type="logical" name="LTETE"> F  </i>
   <i type="logical" name="LTRIPLET"> F  </i>
   <i type="logical" name="LFXCEPS"> F  </i>
   <i type="logical" name="LFXHEG"> F  </i>
   <i type="int" name="NATURALO">     0</i>
   <i type="logical" name="L2ORDER"> F  </i>
   <i type="logical" name="LUSEW"> F  </i>
   <i name="ENCUTGW">     -2.00000000</i>
   <i name="ENCUTGWSOFT">     -2.00000000</i>
   <i name="ENCUTLF">     -1.00000000</i>
   <i type="int" name="LMAXMP2">    -1</i>
   <i name="SCISSOR">      0.00000000</i>
   <i type="int" name="NOMEGA">     0</i>
   <i type="int" name="NOMEGAR">     0</i>
   <i type="int" name="NBANDSGW">    -1</i>
   <i type="int" name="NBANDSO">    -1</i>
   <i type="int" name="NBANDSV">    -1</i>
   <i type="int" name="NELM">     1</i>
   <i type="int" name="NELMHF">     1</i>
   <i type="int" name="DIM">     3</i>
   <i type="int" name="ANTIRES">     0</i>
   <i name="OMEGAMAX">    -30.00000000</i>
   <i name="OMEGAMIN">    -30.00000000</i>
   <i name="OMEGATL">   -200.00000000</i>
   <i type="int" name="OMEGAGRID">     0</i>
   <i name="CSHIFT">     -0.10000000</i>
   <i type="logical" name="SELFENERGY"> F  </i>
   <i type="logical" name="LSPECTRAL"> F  </i>
   <i type="logical" name="LSPECTRALGW"> F  </i>
   <i type="logical" name="LSINGLES"> F  </i>
   <i type="logical" name="LFERMIGW"> F  </i>
   <i type="logical" name="ODDONLYGW"> F  </i>
   <i type="logical" name="EVENONLYGW"> F  </i>
   <i type="int" name="NKREDLFX">     1</i>
   <i type="int" name="NKREDLFY">     1</i>
   <i type="int" name="NKREDLFZ">     1</i>
   <i type="int" name="MAXMEM">  1800</i>
   <i type="int" name="TELESCOPE">     0</i>
   <i type="int" name="TAUPAR">     1</i>
   <i type="int" name="OMEGAPAR">    -1</i>
   <i name="LAMBDA">      1.00000000</i>
  </separator>
  <separator name="External order field" >
   <i name="OFIELD_KAPPA">      0.00000000</i>
   <v name="OFIELD_K">      0.00000000      0.00000000      0.00000000</v>
   <i name="OFIELD_Q6_NEAR">      0.00000000</i>
   <i name="OFIELD_Q6_FAR">      0.00000000</i>
   <i name="OFIELD_A">      0.00000000</i>
  </separator>
 </parameters>
 <atominfo>
  <atoms>      27 </atoms>
  <types>       4 </types>
  <array name="atoms" >
   <dimension dim="1">ion</dimension>
   <field type="string">element</field>
   <field type="int">atomtype</field>
   <set>
    <rc><c>V </c><c>   1</c></rc>
    <rc><c>V </c><c>   1</c></rc>
    <rc><c>V </c><c>   1</c></rc>
    <rc><c>Mo</c><c>   2</c></rc>
    <rc><c>Mo</c><c>   2</c></rc>
    <rc><c>Mo</c><c>   2</c></rc>
    <rc><c>W </c><c>   3</c></rc>
    <rc><c>W </c><c>   3</c></rc>
    <rc><c>W </c><c>   3</c></rc>
    <rc><c>S </c><c>   4</c></rc>
    <rc><c>S </c><c>   4</c></rc>
    <rc><c>S </c><c>   4</c></rc>
    <rc><c>S </c><c>   4</c></rc>
    <rc><c>S </c><c>   4</c></rc>
    <rc><c>S </c><c>   4</c></rc>
    <rc><c>S </c><c>   4</c></rc>
    <rc><c>S </c><c>   4</c></rc>
    <rc><c>S </c><c>   4</c></rc>
    <rc><c>S </c><c>   4</c></rc>
    <rc><c>S </c><c>   4</c></rc>
    <rc><c>S </c><c>   4</c></rc>
    <rc><c>S </c><c>   4</c></rc>
    <rc><c>S </c><c>   4</c></rc>
    <rc><c>S </c><c>   4</c></rc>
    <rc><c>S </c><c>   4</c></rc>
    <rc><c>S </c><c>   4</c></rc>
    <rc><c>S </c><c>   4</c></rc>
   </set>
  </array>
  <array name="atomtypes" >
   <dimension dim="1">type</dimension>
   <field type="int">atomspertype</field>
   <field type="string">element</field>
   <field>mass</field>
   <field>valence</field>
   <field type="string">pseudopotential</field>
   <set>
    <rc><c>   3</c><c>V </c><c>     50.94100000</c><c>      5.00000000</c><c> PAW_PBE V 08Apr2002                    </c></rc>
    <rc><c>   3</c><c>Mo</c><c>     95.94000000</c><c>      6.00000000</c><c> PAW_PBE Mo 08Apr2002                   </c></rc>
    <rc><c>   3</c><c>W </c><c>    183.85000000</c><c>      6.00000000</c><c> PAW_PBE W 08Apr2002                    </c></rc>
    <rc><c>  18</c><c>S </c><c>     32.06600000</c><c>      6.00000000</c><c>  PAW_PBE S 17Jan2003                   </c></rc>
   </set>
  </array>
 </atominfo>
 <structure name="initialpos" >
  <crystal>
   <varray name="basis" >
    <v>       8.66999996       5.03999989       0.00000000 </v>
    <v>      -8.66999982       5.04000013       0.00000000 </v>
    <v>       0.00000000       0.00000000      30.00000000 </v>
   </varray>
   <i name="volume">   2621.80797419 </i>
   <varray name="rec_basis" >
    <v>       0.05767013       0.09920635       0.00000000 </v>
    <v>      -0.05767013       0.09920635       0.00000000 </v>
    <v>       0.00000000       0.00000000       0.03333333 </v>
   </varray>
  </crystal>
  <varray name="positions" >
   <v>       0.00000000       0.00000000       0.00000000 </v>
   <v>       0.66666669       0.66666669       0.00000000 </v>
   <v>       0.33333334       0.66666669       0.00000000 </v>
   <v>       0.33333334       0.33333334       0.00000000 </v>
   <v>       0.66666669       0.00000000       0.00000000 </v>
   <v>       0.66666669       0.33333334       0.00000000 </v>
   <v>       1.00000000       0.33333334       0.00000000 </v>
   <v>       0.00000000       0.66666669       0.00000000 </v>
   <v>       0.33333334       0.00000000       0.00000000 </v>
   <v>       0.11068511       0.22244981       0.95539999 </v>
   <v>       0.22244981       0.11068511       0.04460000 </v>
   <v>       0.11068511       0.55578315       0.95539999 </v>
   <v>       0.22244981       0.44401845       0.04460000 </v>
   <v>       0.11068511       0.88911647       0.95539999 </v>
   <v>       0.22244981       0.77735180       0.04460000 </v>
   <v>       0.44401845       0.22244981       0.95539999 </v>
   <v>       0.55578315       0.11068511       0.04460000 </v>
   <v>       0.44401845       0.55578315       0.95539999 </v>
   <v>       0.55578315       0.44401845       0.04460000 </v>
   <v>       0.44401845       0.88911647       0.95539999 </v>
   <v>       0.55578315       0.77735180       0.04460000 </v>
   <v>       0.77735180       0.22244981       0.95539999 </v>
   <v>       0.88911647       0.11068511       0.04460000 </v>
   <v>       0.77735180       0.55578315       0.95539999 </v>
   <v>       0.88911647       0.44401845       0.04460000 </v>
   <v>       0.77735180       0.88911647       0.95539999 </v>
   <v>       0.88911647       0.77735180       0.04460000 </v>
  </varray>
 </structure>
 <calculation>
  <scstep>
   <time name="dav">   21.70   21.75</time>
   <time name="total">   21.74   21.80</time>
   <energy>
    <i name="alphaZ">     81.65567618 </i>
    <i name="ewald">  41890.23009656 </i>
    <i name="hartreedc"> -47722.86568707 </i>
    <i name="XCdc">   -242.92872175 </i>
    <i name="pawpsdc">   3467.42045192 </i>
    <i name="pawaedc">  -2871.19716117 </i>
    <i name="eentropy">     -0.53628947 </i>
    <i name="bandstr">   -236.97652791 </i>
    <i name="atom">   6761.44252427 </i>
    <i name="e_fr_energy">   1126.24436156 </i>
    <i name="e_wo_entrp">   1126.78065103 </i>
    <i name="e_0_energy">   1126.51250630 </i>
   </energy>
  </scstep>
  <scstep>
   <time name="dav">   28.37   28.44</time>
   <time name="total">   28.37   28.45</time>
   <energy>
    <i name="e_fr_energy">     -0.59451629 </i>
    <i name="e_wo_entrp">     -0.39687640 </i>
    <i name="e_0_energy">     -0.49569634 </i>
   </energy>
  </scstep>
  <scstep>
   <time name="dav">   27.54   27.61</time>
   <time name="total">   27.54   27.61</time>
   <energy>
    <i name="e_fr_energy">   -199.85070575 </i>
    <i name="e_wo_entrp">   -199.56823911 </i>
    <i name="e_0_energy">   -199.70947243 </i>
   </energy>
  </scstep>
  <scstep>
   <time name="dav">   30.26   30.33</time>
   <time name="total">   30.26   30.34</time>
   <energy>
    <i name="e_fr_energy">   -208.98800421 </i>
    <i name="e_wo_entrp">   -208.67139684 </i>
    <i name="e_0_energy">   -208.82970052 </i>
   </energy>
  </scstep>
  <scstep>
   <time name="dav">   28.57   28.64</time>
   <time name="total">   29.03   29.11</time>
   <energy>
    <i name="e_fr_energy">   -209.28920814 </i>
    <i name="e_wo_entrp">   -208.97506998 </i>
    <i name="e_0_energy">   -209.13213906 </i>
   </energy>
  </scstep>
  <scstep>
   <time name="dav">   31.21   31.29</time>
   <time name="total">   31.71   31.79</time>
   <energy>
    <i name="e_fr_energy">   -236.80435252 </i>
    <i name="e_wo_entrp">   -236.51691861 </i>
    <i name="e_0_energy">   -236.66063556 </i>
   </energy>
  </scstep>
  <scstep>
   <time name="dav">   32.32   32.39</time>
   <time name="total">   32.82   32.91</time>
   <energy>
    <i name="e_fr_energy">   -196.66714341 </i>
    <i name="e_wo_entrp">   -196.34557929 </i>
    <i name="e_0_energy">   -196.50636135 </i>
   </energy>
  </scstep>
  <scstep>
   <time name="dav">   29.28   29.36</time>
   <time name="total">   29.80   29.88</time>
   <energy>
    <i name="e_fr_energy">   -190.03126319 </i>
    <i name="e_wo_entrp">   -189.75743452 </i>
    <i name="e_0_energy">   -189.89434886 </i>
   </energy>
  </scstep>
  <scstep>
   <time name="dav">   29.02   29.09</time>
   <time name="total">   29.54   29.62</time>
   <energy>
    <i name="e_fr_energy">   -188.24027935 </i>
    <i name="e_wo_entrp">   -187.90185075 </i>
    <i name="e_0_energy">   -188.07106505 </i>
   </energy>
  </scstep>
  <scstep>
   <time name="dav">   32.11   32.19</time>
   <time name="total">   32.64   32.73</time>
   <energy>
    <i name="e_fr_energy">   -187.05657946 </i>
    <i name="e_wo_entrp">   -186.71283535 </i>
    <i name="e_0_energy">   -186.88470740 </i>
   </energy>
  </scstep>
  <scstep>
   <time name="dav">   30.73   30.80</time>
   <time name="total">   31.26   31.35</time>
   <energy>
    <i name="e_fr_energy">   -186.99943330 </i>
    <i name="e_wo_entrp">   -186.64801584 </i>
    <i name="e_0_energy">   -186.82372457 </i>
   </energy>
  </scstep>
  <scstep>
   <time name="dav">   30.40   30.47</time>
   <time name="total">   30.93   31.01</time>
   <energy>
    <i name="e_fr_energy">   -187.08563694 </i>
    <i name="e_wo_entrp">   -186.75167792 </i>
    <i name="e_0_energy">   -186.91865743 </i>
   </energy>
  </scstep>
  <scstep>
   <time name="dav">   31.73   31.81</time>
   <time name="total">   32.27   32.36</time>
   <energy>
    <i name="e_fr_energy">   -186.90898567 </i>
    <i name="e_wo_entrp">   -186.57080870 </i>
    <i name="e_0_energy">   -186.73989718 </i>
   </energy>
  </scstep>
  <scstep>
   <time name="dav">   31.88   31.96</time>
   <time name="total">   32.42   32.50</time>
   <energy>
    <i name="e_fr_energy">   -186.89818766 </i>
    <i name="e_wo_entrp">   -186.55425802 </i>
    <i name="e_0_energy">   -186.72622284 </i>
   </energy>
  </scstep>
  <scstep>
   <time name="dav">   31.20   31.28</time>
   <time name="total">   31.74   31.83</time>
   <energy>
    <i name="e_fr_energy">   -186.87233212 </i>
    <i name="e_wo_entrp">   -186.52558510 </i>
    <i name="e_0_energy">   -186.69895861 </i>
   </energy>
  </scstep>
  <scstep>
   <time name="dav">   31.52   31.59</time>
   <time name="total">   32.05   32.13</time>
   <energy>
    <i name="e_fr_energy">   -186.86785364 </i>
    <i name="e_wo_entrp">   -186.52213551 </i>
    <i name="e_0_energy">   -186.69499457 </i>
   </energy>
  </scstep>
  <scstep>
   <time name="dav">   31.66   31.73</time>
   <time name="total">   32.19   32.28</time>
   <energy>
    <i name="e_fr_energy">   -186.86608981 </i>
    <i name="e_wo_entrp">   -186.52189253 </i>
    <i name="e_0_energy">   -186.69399117 </i>
   </energy>
  </scstep>
  <scstep>
   <time name="dav">   28.90   28.97</time>
   <time name="total">   29.44   29.52</time>
   <energy>
    <i name="e_fr_energy">   -186.86542797 </i>
    <i name="e_wo_entrp">   -186.52106969 </i>
    <i name="e_0_energy">   -186.69324883 </i>
   </energy>
  </scstep>
  <scstep>
   <time name="dav">   25.66   25.72</time>
   <time name="total">   26.20   26.27</time>
   <energy>
    <i name="e_fr_energy">   -186.86530539 </i>
    <i name="e_wo_entrp">   -186.52071192 </i>
    <i name="e_0_energy">   -186.69300865 </i>
   </energy>
  </scstep>
  <scstep>
   <time name="dav">   23.98   24.04</time>
   <time name="total">   24.52   24.60</time>
   <energy>
    <i name="e_fr_energy">   -186.86614859 </i>
    <i name="e_wo_entrp">   -186.52174934 </i>
    <i name="e_0_energy">   -186.69394897 </i>
   </energy>
  </scstep>
  <scstep>
   <time name="dav">   21.85   21.91</time>
   <time name="total">   22.39   22.45</time>
   <energy>
    <i name="e_fr_energy">   -186.86683769 </i>
    <i name="e_wo_entrp">   -186.52251330 </i>
    <i name="e_0_energy">   -186.69467549 </i>
   </energy>
  </scstep>
  <scstep>
   <time name="dav">   20.56   20.61</time>
   <time name="total">   21.09   21.15</time>
   <energy>
    <i name="e_fr_energy">   -186.86785433 </i>
    <i name="e_wo_entrp">   -186.52339521 </i>
    <i name="e_0_energy">   -186.69562477 </i>
   </energy>
  </scstep>
  <scstep>
   <time name="dav">   20.43   20.48</time>
   <time name="total">   20.96   21.02</time>
   <energy>
    <i name="e_fr_energy">   -186.86901451 </i>
    <i name="e_wo_entrp">   -186.52468771 </i>
    <i name="e_0_energy">   -186.69685111 </i>
   </energy>
  </scstep>
  <scstep>
   <time name="dav">   19.09   19.13</time>
   <time name="total">   19.63   19.68</time>
   <energy>
    <i name="e_fr_energy">   -186.86958871 </i>
    <i name="e_wo_entrp">   -186.52521374 </i>
    <i name="e_0_energy">   -186.69740122 </i>
   </energy>
  </scstep>
  <scstep>
   <time name="dav">   16.53   16.57</time>
   <time name="total">   17.07   17.12</time>
   <energy>
    <i name="e_fr_energy">   -186.86995306 </i>
    <i name="e_wo_entrp">   -186.52555694 </i>
    <i name="e_0_energy">   -186.69775500 </i>
   </energy>
  </scstep>
  <scstep>
   <time name="dav">   18.98   19.02</time>
   <time name="total">   19.52   19.57</time>
   <energy>
    <i name="e_fr_energy">   -186.87019733 </i>
    <i name="e_wo_entrp">   -186.52581843 </i>
    <i name="e_0_energy">   -186.69800788 </i>
   </energy>
  </scstep>
  <scstep>
   <time name="dav">   20.23   20.28</time>
   <time name="total">   20.27   20.33</time>
   <energy>
    <i name="alphaZ">     81.65567618 </i>
    <i name="ewald">  41890.23009656 </i>
    <i name="hartreedc"> -47832.99231121 </i>
    <i name="XCdc">   -231.60402354 </i>
    <i name="pawpsdc">   4192.12473598 </i>
    <i name="pawaedc">  -3610.13970039 </i>
    <i name="eentropy">     -0.34438425 </i>
    <i name="bandstr">  -1437.24290049 </i>
    <i name="atom">   6761.44252427 </i>
    <i name="e_fr_energy">   -186.87028689 </i>
    <i name="e_wo_entrp">   -186.52590264 </i>
    <i name="e_0_energy">   -186.69809476 </i>
   </energy>
  </scstep>
  <structure>
   <crystal>
    <varray name="basis" >
     <v>       8.66999996       5.03999989       0.00000000 </v>
     <v>      -8.66999982       5.04000013       0.00000000 </v>
     <v>       0.00000000       0.00000000      30.00000000 </v>
    </varray>
    <i name="volume">   2621.80797419 </i>
    <varray name="rec_basis" >
     <v>       0.05767013       0.09920635       0.00000000 </v>
     <v>      -0.05767013       0.09920635       0.00000000 </v>
     <v>       0.00000000       0.00000000       0.03333333 </v>
    </varray>
   </crystal>
   <varray name="positions" >
    <v>       0.00000000       0.00000000       0.00000000 </v>
    <v>       0.66666669       0.66666669       0.00000000 </v>
    <v>       0.33333334       0.66666669       0.00000000 </v>
    <v>       0.33333334       0.33333334       0.00000000 </v>
    <v>       0.66666669       0.00000000       0.00000000 </v>
    <v>       0.66666669       0.33333334       0.00000000 </v>
    <v>       1.00000000       0.33333334       0.00000000 </v>
    <v>       0.00000000       0.66666669       0.00000000 </v>
    <v>       0.33333334       0.00000000       0.00000000 </v>
    <v>       0.11068511       0.22244981       0.95539999 </v>
    <v>       0.22244981       0.11068511       0.04460000 </v>
    <v>       0.11068511       0.55578315       0.95539999 </v>
    <v>       0.22244981       0.44401845       0.04460000 </v>
    <v>       0.11068511       0.88911647       0.95539999 </v>
    <v>       0.22244981       0.77735180       0.04460000 </v>
    <v>       0.44401845       0.22244981       0.95539999 </v>
    <v>       0.55578315       0.11068511       0.04460000 </v>
    <v>       0.44401845       0.55578315       0.95539999 </v>
    <v>       0.55578315       0.44401845       0.04460000 </v>
    <v>       0.44401845       0.88911647       0.95539999 </v>
    <v>       0.55578315       0.77735180       0.04460000 </v>
    <v>       0.77735180       0.22244981       0.95539999 </v>
    <v>       0.88911647       0.11068511       0.04460000 </v>
    <v>       0.77735180       0.55578315       0.95539999 </v>
    <v>       0.88911647       0.44401845       0.04460000 </v>
    <v>       0.77735180       0.88911647       0.95539999 </v>
    <v>       0.88911647       0.77735180       0.04460000 </v>
   </varray>
  </structure>
  <varray name="forces" >
   <v>      -0.22559478       0.02510675       0.06510623 </v>
   <v>      -0.08295248      -0.19101577      -0.01418599 </v>
   <v>       0.28621770       0.15127758      -0.08039021 </v>
   <v>       0.25954977       0.18412915       0.02487433 </v>
   <v>      -0.16744328       0.10928911      -0.05083554 </v>
   <v>      -0.01813807      -0.29351323       0.02435027 </v>
   <v>       0.05690566      -0.29629006      -0.10911481 </v>
   <v>      -0.09085738      -0.31426292       0.02989109 </v>
   <v>      -0.00778435       0.60790302       0.12876408 </v>
   <v>       0.34682103      -0.68704606      -2.14480162 </v>
   <v>      -0.35888475      -0.73067022       2.17328725 </v>
   <v>       0.48021076       0.58592786      -2.19882248 </v>
   <v>      -0.60668009       0.55425075       2.10710838 </v>
   <v>      -0.59175645      -0.00819316      -2.06505283 </v>
   <v>       0.58098123       0.00781877       2.07050237 </v>
   <v>       0.19560660      -0.12769130      -2.93501168 </v>
   <v>      -0.21981934      -0.16473679       2.93666146 </v>
   <v>      -0.34612038       0.67161354      -1.45089931 </v>
   <v>      -0.52181247       0.69220044       2.15158800 </v>
   <v>       0.39354014      -0.72798335      -2.16015204 </v>
   <v>       0.32106157      -0.66627635       1.41996776 </v>
   <v>       0.20265564       0.18063245      -2.89561553 </v>
   <v>       0.69446299       0.14267979       2.14858667 </v>
   <v>      -0.65176238       0.15027874      -2.11323057 </v>
   <v>      -0.08005966       0.12224675       2.89126796 </v>
   <v>       0.88905457       0.00023586      -1.43689176 </v>
   <v>      -0.73740178       0.02208863       1.48304852 </v>
  </varray>
  <varray name="stress" >
   <v>       7.29415159      -0.09675280      -1.50664047 </v>
   <v>      -0.09675285       4.46893602      -0.04748013 </v>
   <v>      -1.50664033      -0.04748010      30.29950512 </v>
  </varray>
  <energy>
   <i name="e_fr_energy">   -186.87028689 </i>
   <i name="e_wo_entrp">   -186.69809476 </i>
   <i name="e_0_energy">     -0.34438425 </i>
  </energy>
  <time name="totalsc">  779.34  781.43</time>
 </calculation>
 <calculation>
  <scstep>
   <time name="dav">   21.65   21.70</time>
   <time name="total">   22.20   22.25</time>
   <energy>
    <i name="alphaZ">     78.91936009 </i>
    <i name="ewald">  39378.97068022 </i>
    <i name="hartreedc"> -45336.45395233 </i>
    <i name="XCdc">   -239.06232300 </i>
    <i name="pawpsdc">   4192.10665092 </i>
    <i name="pawaedc">  -3610.12174711 </i>
    <i name="eentropy">     -0.28526140 </i>
    <i name="bandstr">  -1413.02169630 </i>
    <i name="atom">   6761.44252427 </i>
    <i name="e_fr_energy">   -187.50576463 </i>
    <i name="e_wo_entrp">   -187.22050324 </i>
    <i name="e_0_energy">   -187.36313393 </i>
   </energy>
  </scstep>
  <scstep>
   <time name="dav">   30.24   30.32</time>
   <time name="total">   30.78   30.86</time>
   <energy>
    <i name="e_fr_energy">   -189.49779743 </i>
    <i name="e_wo_entrp">   -189.16412477 </i>
    <i name="e_0_energy">   -189.33096110 </i>
   </energy>
  </scstep>
  <scstep>
   <time name="dav">   30.37   30.45</time>
   <time name="total">   30.93   31.01</time>
   <energy>
    <i name="e_fr_energy">   -189.35560403 </i>
    <i name="e_wo_entrp">   -189.07650670 </i>
    <i name="e_0_energy">   -189.21605536 </i>
   </energy>
  </scstep>
  <scstep>
   <time name="dav">   30.51   30.59</time>
   <time name="total">   31.06   31.14</time>
   <energy>
    <i name="e_fr_energy">   -188.79475226 </i>
    <i name="e_wo_entrp">   -188.50969455 </i>
    <i name="e_0_energy">   -188.65222341 </i>
   </energy>
  </scstep>
  <scstep>
   <time name="dav">   28.51   28.58</time>
   <time name="total">   29.06   29.14</time>
   <energy>
    <i name="e_fr_energy">   -188.86805893 </i>
    <i name="e_wo_entrp">   -188.57786053 </i>
    <i name="e_0_energy">   -188.72295973 </i>
   </energy>
  </scstep>
  <scstep>
   <time name="dav">   30.86   30.94</time>
   <time name="total">   31.41   31.49</time>
   <energy>
    <i name="e_fr_energy">   -188.78295293 </i>
    <i name="e_wo_entrp">   -188.49535662 </i>
    <i name="e_0_energy">   -188.63915477 </i>
   </energy>
  </scstep>
  <scstep>
   <time name="dav">   28.83   28.90</time>
   <time name="total">   29.38   29.46</time>
   <energy>
    <i name="e_fr_energy">   -188.70000954 </i>
    <i name="e_wo_entrp">   -188.41491065 </i>
    <i name="e_0_energy">   -188.55746010 </i>
   </energy>
  </scstep>
  <scstep>
   <time name="dav">   28.72   28.79</time>
   <time name="total">   29.27   29.34</time>
   <energy>
    <i name="e_fr_energy">   -188.68337106 </i>
    <i name="e_wo_entrp">   -188.39967944 </i>
    <i name="e_0_energy">   -188.54152525 </i>
   </energy>
  </scstep>
  <scstep>
   <time name="dav">   28.87   28.94</time>
   <time name="total">   29.42   29.50</time>
   <energy>
    <i name="e_fr_energy">   -188.68043994 </i>
    <i name="e_wo_entrp">   -188.39673874 </i>
    <i name="e_0_energy">   -188.53858934 </i>
   </energy>
  </scstep>
  <scstep>
   <time name="dav">   29.15   29.22</time>
   <time name="total">   29.69   29.77</time>
   <energy>
    <i name="e_fr_energy">   -188.67596497 </i>
    <i name="e_wo_entrp">   -188.39234796 </i>
    <i name="e_0_energy">   -188.53415647 </i>
   </energy>
  </scstep>
  <scstep>
   <time name="dav">   32.05   32.13</time>
   <time name="total">   32.60   32.69</time>
   <energy>
    <i name="e_fr_energy">   -188.67535021 </i>
    <i name="e_wo_entrp">   -188.39237202 </i>
    <i name="e_0_energy">   -188.53386111 </i>
   </energy>
  </scstep>
  <scstep>
   <time name="dav">   29.79   29.86</time>
   <time name="total">   30.34   30.42</time>
   <energy>
    <i name="e_fr_energy">   -188.67518815 </i>
    <i name="e_wo_entrp">   -188.39259008 </i>
    <i name="e_0_energy">   -188.53388911 </i>
   </energy>
  </scstep>
  <scstep>
   <time name="dav">   20.87   20.92</time>
   <time name="total">   20.90   20.96</time>
   <energy>
    <i name="alphaZ">     78.91936009 </i>
    <i name="ewald">  39378.97068022 </i>
    <i name="hartreedc"> -45347.21496486 </i>
    <i name="XCdc">   -237.97582485 </i>
    <i name="pawpsdc">   3950.41791203 </i>
    <i name="pawaedc">  -3364.92976848 </i>
    <i name="eentropy">     -0.28279115 </i>
    <i name="bandstr">  -1408.02234820 </i>
    <i name="atom">   6761.44252427 </i>
    <i name="e_fr_energy">   -188.67522093 </i>
    <i name="e_wo_entrp">   -188.39242978 </i>
    <i name="e_0_energy">   -188.53382536 </i>
   </energy>
  </scstep>
  <structure>
   <crystal>
    <varray name="basis" >
     <v>       8.85348043       5.10340277       0.00000000 </v>
     <v>      -8.85633185       5.10830836       0.00000000 </v>
     <v>       0.00000000       0.00000000      30.00000000 </v>
    </varray>
    <i name="volume">   2712.71209881 </i>
    <varray name="rec_basis" >
     <v>       0.05649300       0.09794256       0.00000000 </v>
     <v>      -0.05643875       0.09791102       0.00000000 </v>
     <v>       0.00000000       0.00000000       0.03333333 </v>
    </varray>
   </crystal>
   <varray name="positions" >
    <v>      -0.00050748       0.00074780       0.00010470 </v>
    <v>       0.66552170       0.66598328      -0.00002281 </v>
    <v>       0.33485366       0.66659439      -0.00012927 </v>
    <v>       0.33493669       0.33349247       0.00004000 </v>
    <v>       0.66672389       0.00098891      -0.00008175 </v>
    <v>       0.66521148       0.33197906       0.00003916 </v>
    <v>       0.99874028       0.33175699      -0.00017547 </v>
    <v>      -0.00175684       0.66541541       0.00004807 </v>
    <v>       0.33622110       0.00293107       0.00020706 </v>
    <v>       0.10836183       0.21819671       0.95195096 </v>
    <v>       0.21795436       0.10818661       0.04809484 </v>
    <v>       0.11482537       0.55725137       0.95186409 </v>
    <v>       0.22341456       0.44835897       0.04798842 </v>
    <v>       0.10899954       0.89072361       0.95207920 </v>
    <v>       0.22410361       0.77577283       0.04792955 </v>
    <v>       0.44395153       0.22129447       0.95068023 </v>
    <v>       0.55438315       0.11050826       0.04932241 </v>
    <v>       0.44626982       0.55996044       0.95306682 </v>
    <v>       0.55764424       0.44878307       0.04805994 </v>
    <v>       0.44162923       0.88453746       0.95192627 </v>
    <v>       0.55348761       0.77326977       0.04688343 </v>
    <v>       0.77878012       0.22275049       0.95074358 </v>
    <v>       0.89173144       0.10943587       0.04805512 </v>
    <v>       0.77625772       0.55831569       0.95200173 </v>
    <v>       0.88947880       0.44482626       0.04924941 </v>
    <v>       0.77982642       0.88664410       0.95308934 </v>
    <v>       0.88717061       0.77950908       0.04698487 </v>
   </varray>
  </structure>
  <varray name="forces" >
   <v>      -0.19409947       0.05821734      -0.07243512 </v>
   <v>      -0.02550633      -0.15986076      -0.00250612 </v>
   <v>       0.18741588       0.07122256       0.05067004 </v>
   <v>       0.39088496       0.07169513       0.08571759 </v>
   <v>      -0.41274862       0.24418469      -0.08116342 </v>
   <v>       0.11006076      -0.40074222       0.01074883 </v>
   <v>      -0.11103636      -0.26462372      -0.03952603 </v>
   <v>       0.07204047      -0.35047006      -0.01304527 </v>
   <v>      -0.02248587       0.72681171       0.03334525 </v>
   <v>      -0.10259601      -0.05157890       0.05418209 </v>
   <v>       0.11948512      -0.05781231       0.00470611 </v>
   <v>      -0.04468557      -0.06280989       0.10800882 </v>
   <v>      -0.07926297      -0.05459307      -0.16732768 </v>
   <v>       0.09935700      -0.00325310       0.27127081 </v>
   <v>      -0.09557666       0.00152375      -0.23056272 </v>
   <v>       0.06319161      -0.10213797      -0.22685370 </v>
   <v>      -0.06325481      -0.10495690       0.27815899 </v>
   <v>       0.00569101       0.05531829      -0.03075821 </v>
   <v>      -0.04064577       0.07879737       0.07195611 </v>
   <v>      -0.11832520      -0.05786136       0.03319628 </v>
   <v>       0.01622004      -0.02717398      -0.08725902 </v>
   <v>       0.04148113       0.12102161      -0.17715603 </v>
   <v>      -0.00880787       0.09703244       0.07618573 </v>
   <v>       0.01773384       0.10277099       0.01384599 </v>
   <v>       0.07038531       0.08447867       0.00075158 </v>
   <v>       0.03126021      -0.00774145       0.16131422 </v>
   <v>       0.09382416      -0.00745885      -0.12546511 </v>
  </varray>
  <varray name="stress" >
   <v>     -19.90481320       0.01818220       0.01133352 </v>
   <v>       0.01818225     -19.50040412       0.02032118 </v>
   <v>       0.01133376       0.02032105      -1.74842114 </v>
  </varray>
  <energy>
   <i name="e_fr_energy">   -188.67522093 </i>
   <i name="e_wo_entrp">   -188.53382536 </i>
   <i name="e_0_energy">     -0.28279115 </i>
  </energy>
  <time name="totalsc">  418.91  420.01</time>
 </calculation>
 <calculation>
  <scstep>
   <time name="dav">   23.62   23.68</time>
   <time name="total">   24.16   24.22</time>
   <energy>
    <i name="alphaZ">     82.33974556 </i>
    <i name="ewald">  41300.34305372 </i>
    <i name="hartreedc"> -47299.13445803 </i>
    <i name="XCdc">   -233.85604532 </i>
    <i name="pawpsdc">   3949.96294076 </i>
    <i name="pawaedc">  -3364.47026902 </i>
    <i name="eentropy">     -0.23718965 </i>
    <i name="bandstr">  -1386.98489921 </i>
    <i name="atom">   6761.44252427 </i>
    <i name="e_fr_energy">   -190.59459691 </i>
    <i name="e_wo_entrp">   -190.35740726 </i>
    <i name="e_0_energy">   -190.47600209 </i>
   </energy>
  </scstep>
  <scstep>
   <time name="dav">   27.89   27.96</time>
   <time name="total">   28.41   28.49</time>
   <energy>
    <i name="e_fr_energy">   -190.55957166 </i>
    <i name="e_wo_entrp">   -190.31613565 </i>
    <i name="e_0_energy">   -190.43785365 </i>
   </energy>
  </scstep>
  <scstep>
   <time name="dav">   30.23   30.31</time>
   <time name="total">   30.76   30.84</time>
   <energy>
    <i name="e_fr_energy">   -190.07910401 </i>
    <i name="e_wo_entrp">   -189.82832146 </i>
    <i name="e_0_energy">   -189.95371274 </i>
   </energy>
  </scstep>
  <scstep>
   <time name="dav">   31.08   31.15</time>
   <time name="total">   31.61   31.70</time>
   <energy>
    <i name="e_fr_energy">   -189.87501979 </i>
    <i name="e_wo_entrp">   -189.63581076 </i>
    <i name="e_0_energy">   -189.75541528 </i>
   </energy>
  </scstep>
  <scstep>
   <time name="dav">   30.08   30.15</time>
   <time name="total">   30.61   30.70</time>
   <energy>
    <i name="e_fr_energy">   -189.91365859 </i>
    <i name="e_wo_entrp">   -189.66703845 </i>
    <i name="e_0_energy">   -189.79034852 </i>
   </energy>
  </scstep>
  <scstep>
   <time name="dav">   30.18   30.25</time>
   <time name="total">   30.71   30.79</time>
   <energy>
    <i name="e_fr_energy">   -189.77098041 </i>
    <i name="e_wo_entrp">   -189.53076966 </i>
    <i name="e_0_energy">   -189.65087504 </i>
   </energy>
  </scstep>
  <scstep>
   <time name="dav">   30.09   30.16</time>
   <time name="total">   30.63   30.71</time>
   <energy>
    <i name="e_fr_energy">   -189.76443663 </i>
    <i name="e_wo_entrp">   -189.52414456 </i>
    <i name="e_0_energy">   -189.64429060 </i>
   </energy>
  </scstep>
  <scstep>
   <time name="dav">   29.06   29.13</time>
   <time name="total">   29.59   29.67</time>
   <energy>
    <i name="e_fr_energy">   -189.76523184 </i>
    <i name="e_wo_entrp">   -189.52497247 </i>
    <i name="e_0_energy">   -189.64510215 </i>
   </energy>
  </scstep>
  <scstep>
   <time name="dav">   25.97   26.03</time>
   <time name="total">   26.50   26.58</time>
   <energy>
    <i name="e_fr_energy">   -189.76447359 </i>
    <i name="e_wo_entrp">   -189.52424447 </i>
    <i name="e_0_energy">   -189.64435903 </i>
   </energy>
  </scstep>
  <scstep>
   <time name="dav">   25.55   25.61</time>
   <time name="total">   26.08   26.15</time>
   <energy>
    <i name="e_fr_energy">   -189.76463945 </i>
    <i name="e_wo_entrp">   -189.52427354 </i>
    <i name="e_0_energy">   -189.64445649 </i>
   </energy>
  </scstep>
  <scstep>
   <time name="dav">   22.89   22.95</time>
   <time name="total">   23.42   23.49</time>
   <energy>
    <i name="e_fr_energy">   -189.76446089 </i>
    <i name="e_wo_entrp">   -189.52412306 </i>
    <i name="e_0_energy">   -189.64429198 </i>
   </energy>
  </scstep>
  <scstep>
   <time name="dav">   20.34   20.38</time>
   <time name="total">   20.37   20.43</time>
   <energy>
    <i name="alphaZ">     82.33974556 </i>
    <i name="ewald">  41300.34305372 </i>
    <i name="hartreedc"> -47272.61202262 </i>
    <i name="XCdc">   -235.24663971 </i>
    <i name="pawpsdc">   4038.77189612 </i>
    <i name="pawaedc">  -3454.47801150 </i>
    <i name="eentropy">     -0.24032009 </i>
    <i name="bandstr">  -1410.08470674 </i>
    <i name="atom">   6761.44252427 </i>
    <i name="e_fr_energy">   -189.76448099 </i>
    <i name="e_wo_entrp">   -189.52416090 </i>
    <i name="e_0_energy">   -189.64432095 </i>
   </energy>
  </scstep>
  <structure>
   <crystal>
    <varray name="basis" >
     <v>       8.66583553       4.99755206       0.00000000 </v>
     <v>      -8.66842867       5.00201270       0.00000000 </v>
     <v>       0.00000000       0.00000000      30.00000000 </v>
    </varray>
    <i name="volume">   2600.02628705 </i>
    <varray name="rec_basis" >
     <v>       0.05771495       0.10001932       0.00000000 </v>
     <v>      -0.05766348       0.09998940       0.00000000 </v>
     <v>       0.00000000       0.00000000       0.03333333 </v>
    </varray>
   </crystal>
   <varray name="positions" >
    <v>      -0.00059690       0.00103075       0.00006368 </v>
    <v>       0.66523123       0.66574182      -0.00002423 </v>
    <v>       0.33515204       0.66653317      -0.00010058 </v>
    <v>       0.33543114       0.33323694       0.00008854 </v>
    <v>       0.66673406       0.00179084      -0.00012771 </v>
    <v>       0.66465030       0.33120694       0.00004524 </v>
    <v>       0.99819340       0.33142328      -0.00019785 </v>
    <v>      -0.00227085       0.66476337       0.00004068 </v>
    <v>       0.33740888       0.00416160       0.00022595 </v>
    <v>       0.10817754       0.21820929       0.95198164 </v>
    <v>       0.21797284       0.10797588       0.04809750 </v>
    <v>       0.11467797       0.55718974       0.95192525 </v>
    <v>       0.22324765       0.44834416       0.04789366 </v>
    <v>       0.10908948       0.89062294       0.95223282 </v>
    <v>       0.22401442       0.77586701       0.04779898 </v>
    <v>       0.44384223       0.22106399       0.95055177 </v>
    <v>       0.55414780       0.11039432       0.04947993 </v>
    <v>       0.44636733       0.56004700       0.95304940 </v>
    <v>       0.55773635       0.44895312       0.04810069 </v>
    <v>       0.44141939       0.88455467       0.95194507 </v>
    <v>       0.55345797       0.77320901       0.04683402 </v>
    <v>       0.77902130       0.22291203       0.95064326 </v>
    <v>       0.89188444       0.10960571       0.04809826 </v>
    <v>       0.77644574       0.55846964       0.95200957 </v>
    <v>       0.88968692       0.44489930       0.04924984 </v>
    <v>       0.77984354       0.88660125       0.95318069 </v>
    <v>       0.88724825       0.77940671       0.04691382 </v>
   </varray>
  </structure>
  <varray name="forces" >
   <v>      -0.19719777       0.08427560      -0.08623562 </v>
   <v>       0.00505536      -0.15399132       0.00113461 </v>
   <v>       0.14106032       0.03031486       0.07198402 </v>
   <v>       0.42291901       0.02999984       0.07775657 </v>
   <v>      -0.48665012       0.28976421      -0.06239872 </v>
   <v>       0.16466192      -0.43364404       0.00408682 </v>
   <v>      -0.16619969      -0.25772238      -0.00548197 </v>
   <v>       0.13012322      -0.35216232      -0.02184276 </v>
   <v>      -0.02287683       0.74355824      -0.00242408 </v>
   <v>       0.02180274      -0.09716322      -0.43767242 </v>
   <v>       0.00453030      -0.12318883       0.51415404 </v>
   <v>       0.04160065       0.06130427      -0.40791871 </v>
   <v>      -0.07281522       0.05983287       0.30456758 </v>
   <v>      -0.02522435       0.01348008      -0.19762022 </v>
   <v>       0.03770556       0.01453935       0.24639569 </v>
   <v>       0.02219961      -0.02881207      -0.80218697 </v>
   <v>      -0.01027986      -0.02261771       0.87083757 </v>
   <v>      -0.02111779       0.11178992      -0.48849390 </v>
   <v>      -0.06939912       0.15386271       0.56810085 </v>
   <v>      -0.01352975      -0.11616218      -0.46262552 </v>
   <v>       0.04562509      -0.06715522       0.34792468 </v>
   <v>      -0.00884338       0.05215858      -0.75018525 </v>
   <v>       0.09358315       0.02082155       0.57990977 </v>
   <v>      -0.09726019       0.00944963      -0.48860687 </v>
   <v>       0.03944047       0.00206152       0.56303880 </v>
   <v>       0.09563674      -0.01341366      -0.27550157 </v>
   <v>      -0.07455005      -0.01118026       0.33930357 </v>
  </varray>
  <varray name="stress" >
   <v>     -10.14603330       0.02136197      -0.01395137 </v>
   <v>       0.02136186      -9.85424016       0.03868326 </v>
   <v>      -0.01395115       0.03868337       6.48674934 </v>
  </varray>
  <energy>
   <i name="e_fr_energy">   -189.76448099 </i>
   <i name="e_wo_entrp">   -189.64432095 </i>
   <i name="e_0_energy">     -0.24032009 </i>
  </energy>
  <time name="totalsc">  374.62  375.61</time>
 </calculation>
 <calculation>
  <scstep>
   <time name="dav">   21.64   21.69</time>
   <time name="total">   22.16   22.21</time>
   <energy>
    <i name="alphaZ">     85.81966879 </i>
    <i name="ewald">  42832.62346073 </i>
    <i name="hartreedc"> -48849.36694755 </i>
    <i name="XCdc">   -232.95830737 </i>
    <i name="pawpsdc">   4038.81299577 </i>
    <i name="pawaedc">  -3454.51663619 </i>
    <i name="eentropy">     -0.20362537 </i>
    <i name="bandstr">  -1372.98694781 </i>
    <i name="atom">   6761.44252427 </i>
    <i name="e_fr_energy">   -191.33381472 </i>
    <i name="e_wo_entrp">   -191.13018935 </i>
    <i name="e_0_energy">   -191.23200204 </i>
   </energy>
  </scstep>
  <scstep>
   <time name="dav">   32.12   32.20</time>
   <time name="total">   32.63   32.72</time>
   <energy>
    <i name="e_fr_energy">   -191.18003774 </i>
    <i name="e_wo_entrp">   -190.97059128 </i>
    <i name="e_0_energy">   -191.07531451 </i>
   </energy>
  </scstep>
  <scstep>
   <time name="dav">   30.10   30.17</time>
   <time name="total">   30.61   30.69</time>
   <energy>
    <i name="e_fr_energy">   -191.27860433 </i>
    <i name="e_wo_entrp">   -191.05751631 </i>
    <i name="e_0_energy">   -191.16806032 </i>
   </energy>
  </scstep>
  <scstep>
   <time name="dav">   31.61   31.68</time>
   <time name="total">   32.13   32.22</time>
   <energy>
    <i name="e_fr_energy">   -190.88080159 </i>
    <i name="e_wo_entrp">   -190.67353811 </i>
    <i name="e_0_energy">   -190.77716985 </i>
   </energy>
  </scstep>
  <scstep>
   <time name="dav">   30.06   30.13</time>
   <time name="total">   30.58   30.66</time>
   <energy>
    <i name="e_fr_energy">   -190.80778245 </i>
    <i name="e_wo_entrp">   -190.59739894 </i>
    <i name="e_0_energy">   -190.70259070 </i>
   </energy>
  </scstep>
  <scstep>
   <time name="dav">   30.47   30.55</time>
   <time name="total">   30.99   31.08</time>
   <energy>
    <i name="e_fr_energy">   -190.77184355 </i>
    <i name="e_wo_entrp">   -190.56113291 </i>
    <i name="e_0_energy">   -190.66648823 </i>
   </energy>
  </scstep>
  <scstep>
   <time name="dav">   29.35   29.42</time>
   <time name="total">   29.86   29.94</time>
   <energy>
    <i name="e_fr_energy">   -190.75297249 </i>
    <i name="e_wo_entrp">   -190.54307632 </i>
    <i name="e_0_energy">   -190.64802441 </i>
   </energy>
  </scstep>
  <scstep>
   <time name="dav">   28.07   28.14</time>
   <time name="total">   28.59   28.67</time>
   <energy>
    <i name="e_fr_energy">   -190.74989938 </i>
    <i name="e_wo_entrp">   -190.53994710 </i>
    <i name="e_0_energy">   -190.64492324 </i>
   </energy>
  </scstep>
  <scstep>
   <time name="dav">   27.10   27.17</time>
   <time name="total">   27.61   27.69</time>
   <energy>
    <i name="e_fr_energy">   -190.74961986 </i>
    <i name="e_wo_entrp">   -190.53969210 </i>
    <i name="e_0_energy">   -190.64465598 </i>
   </energy>
  </scstep>
  <scstep>
   <time name="dav">   28.24   28.30</time>
   <time name="total">   28.75   28.83</time>
   <energy>
    <i name="e_fr_energy">   -190.74971049 </i>
    <i name="e_wo_entrp">   -190.53953229 </i>
    <i name="e_0_energy">   -190.64462139 </i>
   </energy>
  </scstep>
  <scstep>
   <time name="dav">   25.56   25.62</time>
   <time name="total">   26.08   26.15</time>
   <energy>
    <i name="e_fr_energy">   -190.74947998 </i>
    <i name="e_wo_entrp">   -190.53955992 </i>
    <i name="e_0_energy">   -190.64451995 </i>
   </energy>
  </scstep>
  <scstep>
   <time name="dav">   20.15   20.20</time>
   <time name="total">   20.19   20.24</time>
   <energy>
    <i name="alphaZ">     85.81966879 </i>
    <i name="ewald">  42832.62346073 </i>
    <i name="hartreedc"> -48820.75820344 </i>
    <i name="XCdc">   -234.28794824 </i>
    <i name="pawpsdc">   4063.76733332 </i>
    <i name="pawaedc">  -3479.65545623 </i>
    <i name="eentropy">     -0.20994626 </i>
    <i name="bandstr">  -1399.49090727 </i>
    <i name="atom">   6761.44252427 </i>
    <i name="e_fr_energy">   -190.74947433 </i>
    <i name="e_wo_entrp">   -190.53952807 </i>
    <i name="e_0_energy">   -190.64450120 </i>
   </energy>
  </scstep>
  <structure>
   <crystal>
    <varray name="basis" >
     <v>       8.48499854       4.89804523       0.00000000 </v>
     <v>      -8.48671633       4.90099301       0.00000000 </v>
     <v>       0.00000000       0.00000000      30.00000000 </v>
    </varray>
    <i name="volume">   2494.59717058 </i>
    <varray name="rec_basis" >
     <v>       0.05893929       0.10206116       0.00000000 </v>
     <v>      -0.05890384       0.10204051       0.00000000 </v>
     <v>       0.00000000       0.00000000       0.03333333 </v>
    </varray>
   </crystal>
   <varray name="positions" >
    <v>      -0.00072132       0.00233992      -0.00012650 </v>
    <v>       0.66434372       0.66473018      -0.00001879 </v>
    <v>       0.33568301       0.66617819       0.00006648 </v>
    <v>       0.33708968       0.33174751       0.00024270 </v>
    <v>       0.66679717       0.00558223      -0.00024092 </v>
    <v>       0.66252621       0.32773687       0.00004805 </v>
    <v>       0.99591655       0.33050641      -0.00018030 </v>
    <v>      -0.00392664       0.66200097      -0.00001199 </v>
    <v>       0.34202398       0.00894176       0.00019057 </v>
    <v>       0.10771312       0.21722980       0.95065838 </v>
    <v>       0.21688931       0.10719048       0.04959397 </v>
    <v>       0.11564593       0.55760876       0.95064314 </v>
    <v>       0.22365384       0.44925774       0.04892452 </v>
    <v>       0.10894525       0.89101919       0.95142584 </v>
    <v>       0.22446595       0.77566277       0.04871375 </v>
    <v>       0.44386594       0.22104517       0.94840329 </v>
    <v>       0.55425057       0.11041900       0.05178520 </v>
    <v>       0.44709337       0.56100248       0.95164992 </v>
    <v>       0.55859494       0.45039551       0.04969751 </v>
    <v>       0.44064837       0.88358029       0.95056681 </v>
    <v>       0.55314489       0.77248187       0.04792344 </v>
    <v>       0.77907184       0.22317114       0.94860436 </v>
    <v>       0.89231030       0.10906095       0.04972595 </v>
    <v>       0.77575521       0.55881262       0.95057191 </v>
    <v>       0.88959231       0.44460876       0.05089233 </v>
    <v>       0.78018366       0.88606524       0.95223976 </v>
    <v>       0.88665728       0.77983864       0.04801052 </v>
   </varray>
  </structure>
  <varray name="forces" >
   <v>      -0.22316553       0.09350124      -0.08301380 </v>
   <v>       0.03014340      -0.11578087       0.00688666 </v>
   <v>       0.09564147      -0.03177788       0.08156492 </v>
   <v>       0.44546234       0.01939249       0.04262744 </v>
   <v>      -0.50294764       0.31924780      -0.00799165 </v>
   <v>       0.22209241      -0.41642935      -0.00307327 </v>
   <v>      -0.23854056      -0.25627820       0.03093986 </v>
   <v>       0.17426076      -0.40054111      -0.03430354 </v>
   <v>      -0.02087581       0.74052774      -0.03150029 </v>
   <v>       0.01068507       0.01204515      -0.26075360 </v>
   <v>       0.03082971      -0.02626878       0.38306691 </v>
   <v>       0.06868904       0.00617817      -0.31255696 </v>
   <v>       0.03562436      -0.02055893       0.14666834 </v>
   <v>       0.04928375       0.04800191      -0.00010059 </v>
   <v>      -0.03442552       0.05661708       0.07667276 </v>
   <v>       0.00537888       0.04448341      -0.61738447 </v>
   <v>       0.00174954       0.03071531       0.70340217 </v>
   <v>       0.04497298       0.01618216      -0.36576054 </v>
   <v>       0.01562389       0.04781282       0.40001767 </v>
   <v>      -0.02207586       0.01802449      -0.30492364 </v>
   <v>      -0.01257842       0.05672473       0.22411581 </v>
   <v>      -0.04565099       0.00901642      -0.59838573 </v>
   <v>      -0.00523317      -0.02507663       0.39047867 </v>
   <v>      -0.02457742      -0.08246223      -0.31987416 </v>
   <v>      -0.00599327      -0.09325953       0.41354231 </v>
   <v>      -0.05198100      -0.02001609      -0.19201195 </v>
   <v>      -0.04239241      -0.03002132       0.23165066 </v>
  </varray>
  <varray name="stress" >
   <v>      -5.78960842      -0.07921018      -0.04017939 </v>
   <v>      -0.07921017      -5.70817094      -0.05368535 </v>
   <v>      -0.04017953      -0.05368532       4.48948308 </v>
  </varray>
  <energy>
   <i name="e_fr_energy">   -190.74947433 </i>
   <i name="e_wo_entrp">   -190.64450120 </i>
   <i name="e_0_energy">     -0.20994626 </i>
  </energy>
  <time name="totalsc">  382.50  383.51</time>
 </calculation>
 <calculation>
  <scstep>
   <time name="dav">   21.61   21.67</time>
   <time name="total">   22.13   22.18</time>
   <energy>
    <i name="alphaZ">     90.18035038 </i>
    <i name="ewald">  44666.32623183 </i>
    <i name="hartreedc"> -50709.84554576 </i>
    <i name="XCdc">   -231.83538937 </i>
    <i name="pawpsdc">   4063.73669748 </i>
    <i name="pawaedc">  -3479.61946775 </i>
    <i name="eentropy">     -0.19664441 </i>
    <i name="bandstr">  -1352.30940540 </i>
    <i name="atom">   6761.44252427 </i>
    <i name="e_fr_energy">   -192.12064872 </i>
    <i name="e_wo_entrp">   -191.92400431 </i>
    <i name="e_0_energy">   -192.02232651 </i>
   </energy>
  </scstep>
  <scstep>
   <time name="dav">   28.07   28.14</time>
   <time name="total">   28.57   28.65</time>
   <energy>
    <i name="e_fr_energy">   -191.85328835 </i>
    <i name="e_wo_entrp">   -191.64985434 </i>
    <i name="e_0_energy">   -191.75157135 </i>
   </energy>
  </scstep>
  <scstep>
   <time name="dav">   29.34   29.41</time>
   <time name="total">   29.85   29.93</time>
   <energy>
    <i name="e_fr_energy">   -191.98484744 </i>
    <i name="e_wo_entrp">   -191.78088714 </i>
    <i name="e_0_energy">   -191.88286729 </i>
   </energy>
  </scstep>
  <scstep>
   <time name="dav">   28.47   28.54</time>
   <time name="total">   28.97   29.05</time>
   <energy>
    <i name="e_fr_energy">   -191.74779152 </i>
    <i name="e_wo_entrp">   -191.54727734 </i>
    <i name="e_0_energy">   -191.64753443 </i>
   </energy>
  </scstep>
  <scstep>
   <time name="dav">   30.17   30.25</time>
   <time name="total">   30.68   30.77</time>
   <energy>
    <i name="e_fr_energy">   -191.57769720 </i>
    <i name="e_wo_entrp">   -191.37418902 </i>
    <i name="e_0_energy">   -191.47594311 </i>
   </energy>
  </scstep>
  <scstep>
   <time name="dav">   30.29   30.36</time>
   <time name="total">   30.80   30.88</time>
   <energy>
    <i name="e_fr_energy">   -191.43581938 </i>
    <i name="e_wo_entrp">   -191.22994906 </i>
    <i name="e_0_energy">   -191.33288422 </i>
   </energy>
  </scstep>
  <scstep>
   <time name="dav">   30.18   30.25</time>
   <time name="total">   30.69   30.77</time>
   <energy>
    <i name="e_fr_energy">   -191.42819574 </i>
    <i name="e_wo_entrp">   -191.22418792 </i>
    <i name="e_0_energy">   -191.32619183 </i>
   </energy>
  </scstep>
  <scstep>
   <time name="dav">   29.84   29.91</time>
   <time name="total">   30.35   30.43</time>
   <energy>
    <i name="e_fr_energy">   -191.42597284 </i>
    <i name="e_wo_entrp">   -191.22111991 </i>
    <i name="e_0_energy">   -191.32354638 </i>
   </energy>
  </scstep>
  <scstep>
   <time name="dav">   30.54   30.61</time>
   <time name="total">   31.05   31.13</time>
   <energy>
    <i name="e_fr_energy">   -191.41926294 </i>
    <i name="e_wo_entrp">   -191.21440614 </i>
    <i name="e_0_energy">   -191.31683454 </i>
   </energy>
  </scstep>
  <scstep>
   <time name="dav">   27.58   27.64</time>
   <time name="total">   28.09   28.16</time>
   <energy>
    <i name="e_fr_energy">   -191.41957061 </i>
    <i name="e_wo_entrp">   -191.21444369 </i>
    <i name="e_0_energy">   -191.31700715 </i>
   </energy>
  </scstep>
  <scstep>
   <time name="dav">   27.83   27.89</time>
   <time name="total">   28.34   28.41</time>
   <energy>
    <i name="e_fr_energy">   -191.41941800 </i>
    <i name="e_wo_entrp">   -191.21443652 </i>
    <i name="e_0_energy">   -191.31692726 </i>
   </energy>
  </scstep>
  <scstep>
   <time name="dav">   19.63   19.68</time>
   <time name="total">   19.67   19.73</time>
   <energy>
    <i name="alphaZ">     90.18035038 </i>
    <i name="ewald">  44666.32623183 </i>
    <i name="hartreedc"> -50675.88704002 </i>
    <i name="XCdc">   -233.36281269 </i>
    <i name="pawpsdc">   4085.77729588 </i>
    <i name="pawaedc">  -3501.75584880 </i>
    <i name="eentropy">     -0.20506084 </i>
    <i name="bandstr">  -1383.93504211 </i>
    <i name="atom">   6761.44252427 </i>
    <i name="e_fr_energy">   -191.41940209 </i>
    <i name="e_wo_entrp">   -191.21434125 </i>
    <i name="e_0_energy">   -191.31687167 </i>
   </energy>
  </scstep>
  <structure>
   <crystal>
    <varray name="basis" >
     <v>       8.27297287       4.77553295       0.00000000 </v>
     <v>      -8.27908971       4.78610158       0.00000000 </v>
     <v>       0.00000000       0.00000000      30.00000000 </v>
    </varray>
    <i name="volume">   2373.97062699 </i>
    <varray name="rec_basis" >
     <v>       0.06048223       0.10462332       0.00000000 </v>
     <v>      -0.06034868       0.10454602       0.00000000 </v>
     <v>       0.00000000       0.00000000       0.03333333 </v>
    </varray>
   </crystal>
   <varray name="positions" >
    <v>      -0.00107691       0.00511691      -0.00047488 </v>
    <v>       0.66311259       0.66301710       0.00000934 </v>
    <v>       0.33592327       0.66512619       0.00040959 </v>
    <v>       0.34042452       0.32868604       0.00042470 </v>
    <v>       0.66712685       0.01327646      -0.00028364 </v>
    <v>       0.65888988       0.32087267       0.00003299 </v>
    <v>       0.99106019       0.32908666      -0.00004212 </v>
    <v>      -0.00748888       0.65585350      -0.00015161 </v>
    <v>       0.35104427       0.01826205       0.00004451 </v>
    <v>       0.10784160       0.21676946       0.94903249 </v>
    <v>       0.21621643       0.10651417       0.05170337 </v>
    <v>       0.11678007       0.55753023       0.94882938 </v>
    <v>       0.22402595       0.44931080       0.05006284 </v>
    <v>       0.10959752       0.89153048       0.95085727 </v>
    <v>       0.22517799       0.77627982       0.04958259 </v>
    <v>       0.44448966       0.22169678       0.94526008 </v>
    <v>       0.55486762       0.11085727       0.05528130 </v>
    <v>       0.44782709       0.56131367       0.94966543 </v>
    <v>       0.55955924       0.45139738       0.05188162 </v>
    <v>       0.44050375       0.88338304       0.94877009 </v>
    <v>       0.55353647       0.77284180       0.04931801 </v>
    <v>       0.77868219       0.22352765       0.94555733 </v>
    <v>       0.89208654       0.10837921       0.05189071 </v>
    <v>       0.77418601       0.55811730       0.94870276 </v>
    <v>       0.88831391       0.44343164       0.05318595 </v>
    <v>       0.77981210       0.88593313       0.95099399 </v>
    <v>       0.88569454       0.78010305       0.04945583 </v>
   </varray>
  </structure>
  <varray name="forces" >
   <v>      -0.29880056       0.10742678      -0.01976001 </v>
   <v>       0.02930891      -0.06857705       0.02212518 </v>
   <v>       0.08539952      -0.07665577       0.01710232 </v>
   <v>       0.30389314       0.07541176      -0.02466168 </v>
   <v>      -0.14226401       0.20405381       0.05510863 </v>
   <v>       0.07606294       0.06233931      -0.03383955 </v>
   <v>      -0.31502926      -0.21418157      -0.04834066 </v>
   <v>       0.21800257      -0.49105112      -0.05978343 </v>
   <v>      -0.01081624       0.29017937       0.04810344 </v>
   <v>      -0.07075701       0.12401594       0.07007113 </v>
   <v>       0.11498964       0.05529947       0.05964249 </v>
   <v>       0.07656913      -0.07844519      -0.06350887 </v>
   <v>       0.16236863      -0.16044206      -0.12054446 </v>
   <v>       0.18528045       0.09269520       0.33820794 </v>
   <v>      -0.16479093       0.11525633      -0.24485846 </v>
   <v>       0.00709957       0.12203914      -0.28737632 </v>
   <v>       0.00825019       0.04719452       0.29286799 </v>
   <v>       0.06861241      -0.07011815      -0.02118608 </v>
   <v>       0.14555040      -0.07806673       0.06575792 </v>
   <v>      -0.08284499       0.15840333       0.01989368 </v>
   <v>      -0.07279667       0.16083381      -0.07438086 </v>
   <v>      -0.07361787       0.00406112      -0.24513859 </v>
   <v>      -0.10062693      -0.02484115       0.11115583 </v>
   <v>       0.07125843      -0.14705857      -0.05949379 </v>
   <v>      -0.02982497      -0.17333890       0.22994816 </v>
   <v>      -0.23372732      -0.01244515       0.04488548 </v>
   <v>       0.04325083      -0.02398847      -0.07199743 </v>
  </varray>
  <varray name="stress" >
   <v>       0.10223678      -0.28335764       0.18436248 </v>
   <v>      -0.28335737       0.27102038      -0.29741055 </v>
   <v>       0.18436267      -0.29741053      -0.57833969 </v>
  </varray>
  <energy>
   <i name="e_fr_energy">   -191.41940209 </i>
   <i name="e_wo_entrp">   -191.31687167 </i>
   <i name="e_0_energy">     -0.20506084 </i>
  </energy>
  <time name="totalsc">  381.22  382.22</time>
 </calculation>
 <calculation>
  <scstep>
   <time name="dav">   21.63   21.68</time>
   <time name="total">   22.14   22.20</time>
   <energy>
    <i name="alphaZ">     90.05317052 </i>
    <i name="ewald">  44594.07692498 </i>
    <i name="hartreedc"> -50602.84192730 </i>
    <i name="XCdc">   -233.51077509 </i>
    <i name="pawpsdc">   4085.71271868 </i>
    <i name="pawaedc">  -3501.68696721 </i>
    <i name="eentropy">     -0.20880865 </i>
    <i name="bandstr">  -1384.52542334 </i>
    <i name="atom">   6761.44252427 </i>
    <i name="e_fr_energy">   -191.48856313 </i>
    <i name="e_wo_entrp">   -191.27975448 </i>
    <i name="e_0_energy">   -191.38415881 </i>
   </energy>
  </scstep>
  <scstep>
   <time name="dav">   32.92   33.00</time>
   <time name="total">   33.42   33.51</time>
   <energy>
    <i name="e_fr_energy">   -191.55599176 </i>
    <i name="e_wo_entrp">   -191.34217093 </i>
    <i name="e_0_energy">   -191.44908134 </i>
   </energy>
  </scstep>
  <scstep>
   <time name="dav">   30.36   30.43</time>
   <time name="total">   30.86   30.95</time>
   <energy>
    <i name="e_fr_energy">   -191.50182243 </i>
    <i name="e_wo_entrp">   -191.29216622 </i>
    <i name="e_0_energy">   -191.39699432 </i>
   </energy>
  </scstep>
  <scstep>
   <time name="dav">   28.39   28.45</time>
   <time name="total">   28.89   28.97</time>
   <energy>
    <i name="e_fr_energy">   -191.50358913 </i>
    <i name="e_wo_entrp">   -191.29429251 </i>
    <i name="e_0_energy">   -191.39894082 </i>
   </energy>
  </scstep>
  <scstep>
   <time name="dav">   28.28   28.35</time>
   <time name="total">   28.79   28.87</time>
   <energy>
    <i name="e_fr_energy">   -191.49914004 </i>
    <i name="e_wo_entrp">   -191.28919714 </i>
    <i name="e_0_energy">   -191.39416859 </i>
   </energy>
  </scstep>
  <scstep>
   <time name="dav">   26.73   26.79</time>
   <time name="total">   27.24   27.31</time>
   <energy>
    <i name="e_fr_energy">   -191.49901815 </i>
    <i name="e_wo_entrp">   -191.28907515 </i>
    <i name="e_0_energy">   -191.39404665 </i>
   </energy>
  </scstep>
  <scstep>
   <time name="dav">   28.69   28.76</time>
   <time name="total">   29.20   29.27</time>
   <energy>
    <i name="e_fr_energy">   -191.49957785 </i>
    <i name="e_wo_entrp">   -191.28987223 </i>
    <i name="e_0_energy">   -191.39472504 </i>
   </energy>
  </scstep>
  <scstep>
   <time name="dav">   24.48   24.54</time>
   <time name="total">   24.98   25.05</time>
   <energy>
    <i name="e_fr_energy">   -191.49851468 </i>
    <i name="e_wo_entrp">   -191.28859077 </i>
    <i name="e_0_energy">   -191.39355272 </i>
   </energy>
  </scstep>
  <scstep>
   <time name="dav">   16.80   16.84</time>
   <time name="total">   16.83   16.88</time>
   <energy>
    <i name="alphaZ">     90.05317052 </i>
    <i name="ewald">  44594.07692498 </i>
    <i name="hartreedc"> -50604.81576507 </i>
    <i name="XCdc">   -233.44851094 </i>
    <i name="pawpsdc">   4082.98863152 </i>
    <i name="pawaedc">  -3498.92352364 </i>
    <i name="eentropy">     -0.20978853 </i>
    <i name="bandstr">  -1382.66218973 </i>
    <i name="atom">   6761.44252427 </i>
    <i name="e_fr_energy">   -191.49852662 </i>
    <i name="e_wo_entrp">   -191.28873809 </i>
    <i name="e_0_energy">   -191.39363235 </i>
   </energy>
  </scstep>
  <structure>
   <crystal>
    <varray name="basis" >
     <v>       8.27358490       4.77393331       0.00000000 </v>
     <v>      -8.28663222       4.79650379       0.00000000 </v>
     <v>       0.00000000       0.00000000      30.00000000 </v>
    </varray>
    <i name="volume">   2377.32332691 </i>
    <varray name="rec_basis" >
     <v>       0.06052820       0.10457095       0.00000000 </v>
     <v>      -0.06024338       0.10440631       0.00000000 </v>
     <v>       0.00000000       0.00000000       0.03333333 </v>
    </varray>
   </crystal>
   <varray name="positions" >
    <v>      -0.00139333       0.00644865      -0.00050028 </v>
    <v>       0.66287803       0.66262439       0.00004356 </v>
    <v>       0.33578588       0.66452350       0.00043091 </v>
    <v>       0.34160808       0.32824357       0.00038313 </v>
    <v>       0.66772092       0.01456113      -0.00019654 </v>
    <v>       0.65946992       0.32107139      -0.00001976 </v>
    <v>       0.98918707       0.32894942      -0.00012013 </v>
    <v>      -0.00922971       0.65291776      -0.00024308 </v>
    <v>       0.35229979       0.01957323       0.00012233 </v>
    <v>       0.10824924       0.21759210       0.94917345 </v>
    <v>       0.21683149       0.10647162       0.05175818 </v>
    <v>       0.11658852       0.55692543       0.94876379 </v>
    <v>       0.22368898       0.44805542       0.04985067 </v>
    <v>       0.11057279       0.89144970       0.95140177 </v>
    <v>       0.22526255       0.77730724       0.04917974 </v>
    <v>       0.44509982       0.22226466       0.94486550 </v>
    <v>       0.55511120       0.11105819       0.05567894 </v>
    <v>       0.44766375       0.56076528       0.94966834 </v>
    <v>       0.55957141       0.45058006       0.05194479 </v>
    <v>       0.44105152       0.88440527       0.94883503 </v>
    <v>       0.55411652       0.77383730       0.04917475 </v>
    <v>       0.77850077       0.22375168       0.94522722 </v>
    <v>       0.89168059       0.10855737       0.05202510 </v>
    <v>       0.77369377       0.55720196       0.94864459 </v>
    <v>       0.88739760       0.44268359       0.05350406 </v>
    <v>       0.77908980       0.88653955       0.95108853 </v>
    <v>       0.88571748       0.77985499       0.04931530 </v>
   </varray>
  </structure>
  <varray name="forces" >
   <v>      -0.36110973       0.11190344      -0.03141792 </v>
   <v>       0.01477961      -0.07526101       0.04700106 </v>
   <v>       0.09192348      -0.04360040       0.04536905 </v>
   <v>       0.38270690       0.09082268      -0.00873733 </v>
   <v>      -0.13717170       0.22477381       0.02541848 </v>
   <v>       0.07376036       0.03972777       0.00052028 </v>
   <v>      -0.35741908      -0.24944474      -0.01201252 </v>
   <v>       0.25121378      -0.55196156      -0.03508246 </v>
   <v>      -0.03643192       0.42490667      -0.01377602 </v>
   <v>      -0.06461368       0.09464751       0.08211008 </v>
   <v>       0.05593331       0.03533989       0.03351755 </v>
   <v>       0.05761306      -0.06515201      -0.06834126 </v>
   <v>       0.11057641      -0.12808547      -0.16755014 </v>
   <v>       0.13474412       0.01130707       0.36917955 </v>
   <v>      -0.11642509       0.04783260      -0.24991629 </v>
   <v>       0.03765238       0.06603739      -0.17967798 </v>
   <v>      -0.00427179       0.05775033       0.18600543 </v>
   <v>       0.04383571      -0.03853653      -0.01380215 </v>
   <v>       0.08982888      -0.03641811       0.05257170 </v>
   <v>      -0.04413817       0.09555764       0.05130485 </v>
   <v>      -0.04664702       0.09960517      -0.09292011 </v>
   <v>      -0.04214597      -0.01089468      -0.20975682 </v>
   <v>      -0.06293899       0.01602581       0.11818838 </v>
   <v>       0.02179200      -0.08981487      -0.10943097 </v>
   <v>      -0.00274273      -0.10921643       0.23529704 </v>
   <v>      -0.14056657      -0.00634920       0.06613694 </v>
   <v>       0.05026242      -0.01150277      -0.12019840 </v>
  </varray>
  <varray name="stress" >
   <v>      -0.07350264      -0.03578588       0.08373648 </v>
   <v>      -0.03578601      -0.16841816      -0.08511231 </v>
   <v>       0.08373632      -0.08511237      -1.18817951 </v>
  </varray>
  <energy>
   <i name="e_fr_energy">   -191.49852662 </i>
   <i name="e_wo_entrp">   -191.39363235 </i>
   <i name="e_0_energy">     -0.20978853 </i>
  </energy>
  <time name="totalsc">  284.85  285.60</time>
 </calculation>
 <calculation>
  <scstep>
   <time name="dav">   21.66   21.71</time>
   <time name="total">   22.17   22.22</time>
   <energy>
    <i name="alphaZ">     90.09434888 </i>
    <i name="ewald">  44613.47606291 </i>
    <i name="hartreedc"> -50624.62011329 </i>
    <i name="XCdc">   -233.41942766 </i>
    <i name="pawpsdc">   4082.81839686 </i>
    <i name="pawaedc">  -3498.75154657 </i>
    <i name="eentropy">     -0.21081952 </i>
    <i name="bandstr">  -1382.37475209 </i>
    <i name="atom">   6761.44252427 </i>
    <i name="e_fr_energy">   -191.54532621 </i>
    <i name="e_wo_entrp">   -191.33450669 </i>
    <i name="e_0_energy">   -191.43991645 </i>
   </energy>
  </scstep>
  <scstep>
   <time name="dav">   33.07   33.15</time>
   <time name="total">   33.57   33.66</time>
   <energy>
    <i name="e_fr_energy">   -191.56193197 </i>
    <i name="e_wo_entrp">   -191.34773927 </i>
    <i name="e_0_energy">   -191.45483562 </i>
   </energy>
  </scstep>
  <scstep>
   <time name="dav">   30.22   30.30</time>
   <time name="total">   30.73   30.81</time>
   <energy>
    <i name="e_fr_energy">   -191.54854320 </i>
    <i name="e_wo_entrp">   -191.33736212 </i>
    <i name="e_0_energy">   -191.44295266 </i>
   </energy>
  </scstep>
  <scstep>
   <time name="dav">   27.69   27.75</time>
   <time name="total">   28.20   28.27</time>
   <energy>
    <i name="e_fr_energy">   -191.54907073 </i>
    <i name="e_wo_entrp">   -191.33803873 </i>
    <i name="e_0_energy">   -191.44355473 </i>
   </energy>
  </scstep>
  <scstep>
   <time name="dav">   27.64   27.71</time>
   <time name="total">   28.15   28.23</time>
   <energy>
    <i name="e_fr_energy">   -191.54751588 </i>
    <i name="e_wo_entrp">   -191.33596585 </i>
    <i name="e_0_energy">   -191.44174086 </i>
   </energy>
  </scstep>
  <scstep>
   <time name="dav">   25.71   25.77</time>
   <time name="total">   25.75   25.82</time>
   <energy>
    <i name="alphaZ">     90.09434888 </i>
    <i name="ewald">  44613.47606291 </i>
    <i name="hartreedc"> -50624.63508586 </i>
    <i name="XCdc">   -233.42321780 </i>
    <i name="pawpsdc">   4083.83561746 </i>
    <i name="pawaedc">  -3499.78112430 </i>
    <i name="eentropy">     -0.21153547 </i>
    <i name="bandstr">  -1382.34505023 </i>
    <i name="atom">   6761.44252427 </i>
    <i name="e_fr_energy">   -191.54746014 </i>
    <i name="e_wo_entrp">   -191.33592467 </i>
[...]
      <set comment="kpoint 31">
       <r>  -17.4908    1.0000 </r>
       <r>  -17.3047    1.0000 </r>
       <r>  -16.8793    1.0000 </r>
       <r>  -16.5056    1.0000 </r>
       <r>  -16.4160    1.0000 </r>
       <r>  -16.3592    1.0000 </r>
       <r>  -16.2788    1.0000 </r>
       <r>  -16.1296    1.0000 </r>
       <r>  -16.0952    1.0000 </r>
       <r>  -16.0722    1.0000 </r>
       <r>  -15.9725    1.0000 </r>
       <r>  -15.8882    1.0000 </r>
       <r>  -15.7832    1.0000 </r>
       <r>  -15.6872    1.0000 </r>
       <r>  -15.6310    1.0000 </r>
       <r>  -15.5866    1.0000 </r>
       <r>  -15.5061    1.0000 </r>
       <r>  -15.4556    1.0000 </r>
       <r>   -9.7618    1.0000 </r>
       <r>   -9.3832    1.0000 </r>
       <r>   -9.3681    1.0000 </r>
       <r>   -8.8908    1.0000 </r>
       <r>   -8.8441    1.0000 </r>
       <r>   -8.7025    1.0000 </r>
       <r>   -8.5809    1.0000 </r>
       <r>   -8.4634    1.0000 </r>
       <r>   -8.3686    1.0000 </r>
       <r>   -8.3314    1.0000 </r>
       <r>   -8.2453    1.0000 </r>
       <r>   -8.2046    1.0000 </r>
       <r>   -8.1481    1.0000 </r>
       <r>   -8.0905    1.0000 </r>
       <r>   -7.9382    1.0000 </r>
       <r>   -7.8719    1.0000 </r>
       <r>   -7.8289    1.0000 </r>
       <r>   -7.5456    1.0000 </r>
       <r>   -7.5053    1.0000 </r>
       <r>   -7.3611    1.0000 </r>
       <r>   -7.2861    1.0000 </r>
       <r>   -7.1800    1.0000 </r>
       <r>   -7.1188    1.0000 </r>
       <r>   -7.0134    1.0000 </r>
       <r>   -6.9971    1.0000 </r>
       <r>   -6.9223    1.0000 </r>
       <r>   -6.8507    1.0000 </r>
       <r>   -6.7858    1.0000 </r>
       <r>   -6.7085    1.0000 </r>
       <r>   -6.6638    1.0000 </r>
       <r>   -6.5862    1.0000 </r>
       <r>   -6.5108    1.0000 </r>
       <r>   -6.4220    1.0000 </r>
       <r>   -6.2988    1.0000 </r>
       <r>   -6.2465    1.0000 </r>
       <r>   -6.1516    1.0000 </r>
       <r>   -6.1301    1.0000 </r>
       <r>   -6.0207    1.0000 </r>
       <r>   -5.9781    1.0000 </r>
       <r>   -5.9454    1.0000 </r>
       <r>   -5.8693    1.0000 </r>
       <r>   -5.8232    1.0000 </r>
       <r>   -5.7687    1.0000 </r>
       <r>   -5.6577    1.0000 </r>
       <r>   -5.6080    1.0000 </r>
       <r>   -5.5294    1.0000 </r>
       <r>   -5.2372    1.0000 </r>
       <r>   -5.1376    1.0000 </r>
       <r>   -5.0524    1.0000 </r>
       <r>   -4.9345    1.0000 </r>
       <r>   -4.8978    1.0000 </r>
       <r>   -4.7054    1.0000 </r>
       <r>   -4.5609    1.0000 </r>
       <r>   -4.4069    1.0000 </r>
       <r>   -4.1978    1.0000 </r>
       <r>   -4.1063    1.0000 </r>
       <r>   -3.9023    1.0000 </r>
       <r>   -3.6584    1.0000 </r>
       <r>   -3.5600    0.9999 </r>
       <r>   -3.4038    0.9960 </r>
       <r>   -3.2280    0.9210 </r>
       <r>   -3.0133    0.4575 </r>
       <r>   -2.8978    0.1780 </r>
       <r>   -2.7191    0.0144 </r>
       <r>   -2.6552    0.0042 </r>
       <r>   -2.6016    0.0013 </r>
       <r>   -2.4720    0.0000 </r>
       <r>   -2.4357    0.0000 </r>
       <r>   -2.3109    0.0000 </r>
       <r>   -2.2819    0.0000 </r>
       <r>   -2.1815    0.0000 </r>
       <r>   -2.0278    0.0000 </r>
       <r>   -1.8404    0.0000 </r>
       <r>   -1.7184    0.0000 </r>
       <r>   -1.5877    0.0000 </r>
       <r>   -1.4092    0.0000 </r>
       <r>   -1.2696    0.0000 </r>
       <r>   -1.1898    0.0000 </r>
       <r>   -1.1074    0.0000 </r>
       <r>   -0.9464    0.0000 </r>
       <r>   -0.8341    0.0000 </r>
       <r>   -0.7732    0.0000 </r>
       <r>   -0.7212    0.0000 </r>
       <r>   -0.6533    0.0000 </r>
       <r>   -0.5819    0.0000 </r>
       <r>   -0.5481    0.0000 </r>
       <r>   -0.4759    0.0000 </r>
       <r>   -0.2851    0.0000 </r>
       <r>   -0.1611    0.0000 </r>
       <r>    0.0058    0.0000 </r>
       <r>    0.0970    0.0000 </r>
       <r>    0.2786    0.0000 </r>
       <r>    0.5096    0.0000 </r>
       <r>    0.6996    0.0000 </r>
       <r>    0.8469    0.0000 </r>
       <r>    1.1794    0.0000 </r>
       <r>    1.2330    0.0000 </r>
       <r>    1.3797    0.0000 </r>
       <r>    1.4624    0.0000 </r>
       <r>    2.1625    0.0000 </r>
       <r>    2.2937    0.0000 </r>
       <r>    2.4214    0.0000 </r>
      </set>
      <set comment="kpoint 32">
       <r>  -17.5203    1.0000 </r>
       <r>  -17.1990    1.0000 </r>
       <r>  -17.0127    1.0000 </r>
       <r>  -16.4955    1.0000 </r>
       <r>  -16.3539    1.0000 </r>
       <r>  -16.3242    1.0000 </r>
       <r>  -16.2356    1.0000 </r>
       <r>  -16.1867    1.0000 </r>
       <r>  -16.1126    1.0000 </r>
       <r>  -16.0397    1.0000 </r>
       <r>  -15.9699    1.0000 </r>
       <r>  -15.9315    1.0000 </r>
       <r>  -15.8269    1.0000 </r>
       <r>  -15.6978    1.0000 </r>
       <r>  -15.6429    1.0000 </r>
       <r>  -15.5672    1.0000 </r>
       <r>  -15.4971    1.0000 </r>
       <r>  -15.4270    1.0000 </r>
       <r>   -9.6776    1.0000 </r>
       <r>   -9.5419    1.0000 </r>
       <r>   -9.4099    1.0000 </r>
       <r>   -8.8906    1.0000 </r>
       <r>   -8.7201    1.0000 </r>
       <r>   -8.5749    1.0000 </r>
       <r>   -8.4900    1.0000 </r>
       <r>   -8.4059    1.0000 </r>
       <r>   -8.3874    1.0000 </r>
       <r>   -8.3447    1.0000 </r>
       <r>   -8.2990    1.0000 </r>
       <r>   -8.2504    1.0000 </r>
       <r>   -8.2098    1.0000 </r>
       <r>   -8.1263    1.0000 </r>
       <r>   -8.0939    1.0000 </r>
       <r>   -7.9132    1.0000 </r>
       <r>   -7.7950    1.0000 </r>
       <r>   -7.4986    1.0000 </r>
       <r>   -7.4018    1.0000 </r>
       <r>   -7.3750    1.0000 </r>
       <r>   -7.3089    1.0000 </r>
       <r>   -7.1997    1.0000 </r>
       <r>   -7.1419    1.0000 </r>
       <r>   -7.0559    1.0000 </r>
       <r>   -6.9918    1.0000 </r>
       <r>   -6.9213    1.0000 </r>
       <r>   -6.8562    1.0000 </r>
       <r>   -6.7879    1.0000 </r>
       <r>   -6.7500    1.0000 </r>
       <r>   -6.6537    1.0000 </r>
       <r>   -6.5010    1.0000 </r>
       <r>   -6.4615    1.0000 </r>
       <r>   -6.4418    1.0000 </r>
       <r>   -6.3979    1.0000 </r>
       <r>   -6.2853    1.0000 </r>
       <r>   -6.2247    1.0000 </r>
       <r>   -6.1299    1.0000 </r>
       <r>   -6.0121    1.0000 </r>
       <r>   -5.9566    1.0000 </r>
       <r>   -5.8727    1.0000 </r>
       <r>   -5.8417    1.0000 </r>
       <r>   -5.7468    1.0000 </r>
       <r>   -5.6840    1.0000 </r>
       <r>   -5.5279    1.0000 </r>
       <r>   -5.4343    1.0000 </r>
       <r>   -5.4020    1.0000 </r>
       <r>   -5.3253    1.0000 </r>
       <r>   -5.2930    1.0000 </r>
       <r>   -5.1736    1.0000 </r>
       <r>   -5.0898    1.0000 </r>
       <r>   -4.9666    1.0000 </r>
       <r>   -4.6803    1.0000 </r>
       <r>   -4.5982    1.0000 </r>
       <r>   -4.4415    1.0000 </r>
       <r>   -4.2049    1.0000 </r>
       <r>   -3.9779    1.0000 </r>
       <r>   -3.8991    1.0000 </r>
       <r>   -3.6454    1.0000 </r>
       <r>   -3.5410    0.9999 </r>
       <r>   -3.4295    0.9977 </r>
       <r>   -3.2123    0.9033 </r>
       <r>   -2.9950    0.4068 </r>
       <r>   -2.8486    0.1019 </r>
       <r>   -2.7025    0.0106 </r>
       <r>   -2.6555    0.0042 </r>
       <r>   -2.5986    0.0012 </r>
       <r>   -2.5227    0.0002 </r>
       <r>   -2.4672    0.0000 </r>
       <r>   -2.3716    0.0000 </r>
       <r>   -2.3378    0.0000 </r>
       <r>   -2.1660    0.0000 </r>
       <r>   -2.0875    0.0000 </r>
       <r>   -1.8266    0.0000 </r>
       <r>   -1.7158    0.0000 </r>
       <r>   -1.4847    0.0000 </r>
       <r>   -1.4231    0.0000 </r>
       <r>   -1.2571    0.0000 </r>
       <r>   -1.1821    0.0000 </r>
       <r>   -1.0908    0.0000 </r>
       <r>   -0.9705    0.0000 </r>
       <r>   -0.8236    0.0000 </r>
       <r>   -0.7767    0.0000 </r>
       <r>   -0.7411    0.0000 </r>
       <r>   -0.6998    0.0000 </r>
       <r>   -0.5611    0.0000 </r>
       <r>   -0.4935    0.0000 </r>
       <r>   -0.3861    0.0000 </r>
       <r>   -0.2786    0.0000 </r>
       <r>   -0.2122    0.0000 </r>
       <r>   -0.0287    0.0000 </r>
       <r>    0.0996    0.0000 </r>
       <r>    0.2076    0.0000 </r>
       <r>    0.4759    0.0000 </r>
       <r>    0.7284    0.0000 </r>
       <r>    0.8723    0.0000 </r>
       <r>    1.1364    0.0000 </r>
       <r>    1.2617    0.0000 </r>
       <r>    1.4025    0.0000 </r>
       <r>    1.4519    0.0000 </r>
       <r>    2.1319    0.0000 </r>
       <r>    2.2659    0.0000 </r>
       <r>    2.6013    0.0000 </r>
      </set>
      <set comment="kpoint 33">
       <r>  -17.5109    1.0000 </r>
       <r>  -17.2619    1.0000 </r>
       <r>  -16.9015    1.0000 </r>
       <r>  -16.4902    1.0000 </r>
       <r>  -16.4544    1.0000 </r>
       <r>  -16.3830    1.0000 </r>
       <r>  -16.2635    1.0000 </r>
       <r>  -16.1392    1.0000 </r>
       <r>  -16.0853    1.0000 </r>
       <r>  -16.0244    1.0000 </r>
       <r>  -15.9394    1.0000 </r>
       <r>  -15.8782    1.0000 </r>
       <r>  -15.8351    1.0000 </r>
       <r>  -15.7282    1.0000 </r>
       <r>  -15.6367    1.0000 </r>
       <r>  -15.5773    1.0000 </r>
       <r>  -15.4752    1.0000 </r>
       <r>  -15.4555    1.0000 </r>
       <r>   -9.7450    1.0000 </r>
       <r>   -9.4309    1.0000 </r>
       <r>   -9.3190    1.0000 </r>
       <r>   -8.9142    1.0000 </r>
       <r>   -8.8227    1.0000 </r>
       <r>   -8.7772    1.0000 </r>
       <r>   -8.5160    1.0000 </r>
       <r>   -8.4670    1.0000 </r>
       <r>   -8.3948    1.0000 </r>
       <r>   -8.2950    1.0000 </r>
       <r>   -8.2676    1.0000 </r>
       <r>   -8.2353    1.0000 </r>
       <r>   -8.1439    1.0000 </r>
       <r>   -8.0792    1.0000 </r>
       <r>   -7.9537    1.0000 </r>
       <r>   -7.9179    1.0000 </r>
       <r>   -7.7097    1.0000 </r>
       <r>   -7.5755    1.0000 </r>
       <r>   -7.5289    1.0000 </r>
       <r>   -7.4048    1.0000 </r>
       <r>   -7.3343    1.0000 </r>
       <r>   -7.1826    1.0000 </r>
       <r>   -7.1006    1.0000 </r>
       <r>   -7.0164    1.0000 </r>
       <r>   -6.9536    1.0000 </r>
       <r>   -6.9054    1.0000 </r>
       <r>   -6.8537    1.0000 </r>
       <r>   -6.8041    1.0000 </r>
       <r>   -6.7068    1.0000 </r>
       <r>   -6.6306    1.0000 </r>
       <r>   -6.5982    1.0000 </r>
       <r>   -6.4602    1.0000 </r>
       <r>   -6.4062    1.0000 </r>
       <r>   -6.3319    1.0000 </r>
       <r>   -6.2756    1.0000 </r>
       <r>   -6.2073    1.0000 </r>
       <r>   -6.0866    1.0000 </r>
       <r>   -5.9990    1.0000 </r>
       <r>   -5.9366    1.0000 </r>
       <r>   -5.8524    1.0000 </r>
       <r>   -5.8280    1.0000 </r>
       <r>   -5.8122    1.0000 </r>
       <r>   -5.7331    1.0000 </r>
       <r>   -5.6708    1.0000 </r>
       <r>   -5.6322    1.0000 </r>
       <r>   -5.5640    1.0000 </r>
       <r>   -5.3118    1.0000 </r>
       <r>   -5.1511    1.0000 </r>
       <r>   -5.0430    1.0000 </r>
       <r>   -4.9524    1.0000 </r>
       <r>   -4.8752    1.0000 </r>
       <r>   -4.7631    1.0000 </r>
       <r>   -4.5777    1.0000 </r>
       <r>   -4.3893    1.0000 </r>
       <r>   -4.3623    1.0000 </r>
       <r>   -3.9347    1.0000 </r>
       <r>   -3.8087    1.0000 </r>
       <r>   -3.6570    1.0000 </r>
       <r>   -3.5319    0.9998 </r>
       <r>   -3.4505    0.9986 </r>
       <r>   -3.2165    0.9083 </r>
       <r>   -2.9822    0.3719 </r>
       <r>   -2.9773    0.3590 </r>
       <r>   -2.7082    0.0118 </r>
       <r>   -2.6633    0.0049 </r>
       <r>   -2.5778    0.0007 </r>
       <r>   -2.4965    0.0001 </r>
       <r>   -2.4215    0.0000 </r>
       <r>   -2.3985    0.0000 </r>
       <r>   -2.3349    0.0000 </r>
       <r>   -2.1777    0.0000 </r>
       <r>   -2.1641    0.0000 </r>
       <r>   -1.7989    0.0000 </r>
       <r>   -1.7188    0.0000 </r>
       <r>   -1.4479    0.0000 </r>
       <r>   -1.4185    0.0000 </r>
       <r>   -1.2391    0.0000 </r>
       <r>   -1.1566    0.0000 </r>
       <r>   -1.0626    0.0000 </r>
       <r>   -0.9587    0.0000 </r>
       <r>   -0.8569    0.0000 </r>
       <r>   -0.7693    0.0000 </r>
       <r>   -0.7046    0.0000 </r>
       <r>   -0.6724    0.0000 </r>
       <r>   -0.5880    0.0000 </r>
       <r>   -0.5312    0.0000 </r>
       <r>   -0.4299    0.0000 </r>
       <r>   -0.3307    0.0000 </r>
       <r>   -0.1998    0.0000 </r>
       <r>   -0.1136    0.0000 </r>
       <r>    0.0576    0.0000 </r>
       <r>    0.2332    0.0000 </r>
       <r>    0.5584    0.0000 </r>
       <r>    0.6969    0.0000 </r>
       <r>    0.9639    0.0000 </r>
       <r>    1.0815    0.0000 </r>
       <r>    1.2925    0.0000 </r>
       <r>    1.4482    0.0000 </r>
       <r>    1.4870    0.0000 </r>
       <r>    2.1659    0.0000 </r>
       <r>    2.3005    0.0000 </r>
       <r>    2.4281    0.0000 </r>
      </set>
      <set comment="kpoint 34">
       <r>  -17.4928    1.0000 </r>
       <r>  -17.3181    1.0000 </r>
       <r>  -16.7303    1.0000 </r>
       <r>  -16.6461    1.0000 </r>
       <r>  -16.4621    1.0000 </r>
       <r>  -16.4203    1.0000 </r>
       <r>  -16.2315    1.0000 </r>
       <r>  -16.1605    1.0000 </r>
       <r>  -16.0696    1.0000 </r>
       <r>  -16.0313    1.0000 </r>
       <r>  -15.9105    1.0000 </r>
       <r>  -15.8583    1.0000 </r>
       <r>  -15.7874    1.0000 </r>
       <r>  -15.7236    1.0000 </r>
       <r>  -15.6785    1.0000 </r>
       <r>  -15.5476    1.0000 </r>
       <r>  -15.5080    1.0000 </r>
       <r>  -15.4635    1.0000 </r>
       <r>   -9.7870    1.0000 </r>
       <r>   -9.3030    1.0000 </r>
       <r>   -9.1566    1.0000 </r>
       <r>   -9.0565    1.0000 </r>
       <r>   -8.9792    1.0000 </r>
       <r>   -8.8517    1.0000 </r>
       <r>   -8.5551    1.0000 </r>
       <r>   -8.4700    1.0000 </r>
       <r>   -8.3989    1.0000 </r>
       <r>   -8.3095    1.0000 </r>
       <r>   -8.2468    1.0000 </r>
       <r>   -8.1946    1.0000 </r>
       <r>   -8.1418    1.0000 </r>
       <r>   -7.9810    1.0000 </r>
       <r>   -7.9053    1.0000 </r>
       <r>   -7.8161    1.0000 </r>
       <r>   -7.7390    1.0000 </r>
       <r>   -7.6264    1.0000 </r>
       <r>   -7.5351    1.0000 </r>
       <r>   -7.4015    1.0000 </r>
       <r>   -7.3490    1.0000 </r>
       <r>   -7.2973    1.0000 </r>
       <r>   -7.1003    1.0000 </r>
       <r>   -7.0167    1.0000 </r>
       <r>   -6.9591    1.0000 </r>
       <r>   -6.8566    1.0000 </r>
       <r>   -6.8365    1.0000 </r>
       <r>   -6.7167    1.0000 </r>
       <r>   -6.6791    1.0000 </r>
       <r>   -6.6346    1.0000 </r>
       <r>   -6.5082    1.0000 </r>
       <r>   -6.4428    1.0000 </r>
       <r>   -6.4234    1.0000 </r>
       <r>   -6.3671    1.0000 </r>
       <r>   -6.2881    1.0000 </r>
       <r>   -6.1653    1.0000 </r>
       <r>   -6.0884    1.0000 </r>
       <r>   -6.0687    1.0000 </r>
       <r>   -6.0237    1.0000 </r>
       <r>   -5.8600    1.0000 </r>
       <r>   -5.8244    1.0000 </r>
       <r>   -5.7627    1.0000 </r>
       <r>   -5.7510    1.0000 </r>
       <r>   -5.7211    1.0000 </r>
       <r>   -5.6712    1.0000 </r>
       <r>   -5.5884    1.0000 </r>
       <r>   -5.5352    1.0000 </r>
       <r>   -4.9953    1.0000 </r>
       <r>   -4.9717    1.0000 </r>
       <r>   -4.8673    1.0000 </r>
       <r>   -4.8165    1.0000 </r>
       <r>   -4.6734    1.0000 </r>
       <r>   -4.6116    1.0000 </r>
       <r>   -4.5144    1.0000 </r>
       <r>   -4.3359    1.0000 </r>
       <r>   -3.9322    1.0000 </r>
       <r>   -3.8124    1.0000 </r>
       <r>   -3.6220    1.0000 </r>
       <r>   -3.5391    0.9998 </r>
       <r>   -3.4596    0.9989 </r>
       <r>   -3.2201    0.9124 </r>
       <r>   -3.0486    0.5567 </r>
       <r>   -2.9774    0.3592 </r>
       <r>   -2.7350    0.0190 </r>
       <r>   -2.7047    0.0110 </r>
       <r>   -2.5507    0.0004 </r>
       <r>   -2.4633    0.0000 </r>
       <r>   -2.4135    0.0000 </r>
       <r>   -2.3407    0.0000 </r>
       <r>   -2.2968    0.0000 </r>
       <r>   -2.2607    0.0000 </r>
       <r>   -2.1768    0.0000 </r>
       <r>   -1.7829    0.0000 </r>
       <r>   -1.7251    0.0000 </r>
       <r>   -1.4475    0.0000 </r>
       <r>   -1.4090    0.0000 </r>
       <r>   -1.2321    0.0000 </r>
       <r>   -1.1446    0.0000 </r>
       <r>   -1.0424    0.0000 </r>
       <r>   -0.9426    0.0000 </r>
       <r>   -0.8925    0.0000 </r>
       <r>   -0.7207    0.0000 </r>
       <r>   -0.6694    0.0000 </r>
       <r>   -0.6472    0.0000 </r>
       <r>   -0.6058    0.0000 </r>
       <r>   -0.5699    0.0000 </r>
       <r>   -0.4961    0.0000 </r>
       <r>   -0.4114    0.0000 </r>
       <r>   -0.2213    0.0000 </r>
       <r>   -0.1012    0.0000 </r>
       <r>    0.0417    0.0000 </r>
       <r>    0.2741    0.0000 </r>
       <r>    0.6203    0.0000 </r>
       <r>    0.6493    0.0000 </r>
       <r>    1.0010    0.0000 </r>
       <r>    1.0816    0.0000 </r>
       <r>    1.3053    0.0000 </r>
       <r>    1.4748    0.0000 </r>
       <r>    1.5066    0.0000 </r>
       <r>    2.2585    0.0000 </r>
       <r>    2.2713    0.0000 </r>
       <r>    2.3857    0.0000 </r>
      </set>
     </set>
    </set>
   </array>
  </eigenvalues>
  <separator name="orbital magnetization" >
   <v name="MAGDIPOLOUT">      0.00000000      0.00000000      0.00000000</v>
  </separator>
 </calculation>
 <structure name="finalpos" >
  <crystal>
   <varray name="basis" >
    <v>       8.27924266       4.77897327       0.00000000 </v>
    <v>      -8.30153066       4.81754634       0.00000000 </v>
    <v>       0.00000000       0.00000000      30.00000000 </v>
   </varray>
   <i name="volume">   2386.75284824 </i>
   <varray name="rec_basis" >
    <v>       0.06055356       0.10434508       0.00000000 </v>
    <v>      -0.06006872       0.10406493       0.00000000 </v>
    <v>       0.00000000       0.00000000       0.03333333 </v>
   </varray>
  </crystal>
  <varray name="positions" >
   <v>       0.00300880       0.00517206       0.00005570 </v>
   <v>       0.66932339       0.67022403      -0.00018815 </v>
   <v>       0.33599633       0.66877073       0.00025875 </v>
   <v>       0.33098362       0.31971058       0.00015202 </v>
   <v>       0.66253588       0.01835881       0.00013849 </v>
   <v>       0.64925843       0.31034867      -0.00012475 </v>
   <v>       0.99545114       0.31997627       0.00003769 </v>
   <v>      -0.00207304       0.66786015      -0.00049073 </v>
   <v>       0.35474620       0.01867910       0.00031351 </v>
   <v>       0.10657437       0.21357199       0.94749979 </v>
   <v>       0.21705287       0.10451653       0.05248224 </v>
   <v>       0.11709648       0.55562351       0.94978923 </v>
   <v>       0.22453768       0.44787461       0.04978216 </v>
   <v>       0.11351153       0.89362666       0.95034219 </v>
   <v>       0.22638980       0.77857492       0.04983693 </v>
   <v>       0.44309881       0.22109022       0.94427877 </v>
   <v>       0.55408727       0.11202318       0.05741457 </v>
   <v>       0.44681079       0.55977050       0.95097382 </v>
   <v>       0.55837537       0.44881433       0.05038336 </v>
   <v>       0.44250069       0.88720615       0.94806771 </v>
   <v>       0.55508736       0.77641053       0.04897320 </v>
   <v>       0.77924978       0.22571800       0.94545040 </v>
   <v>       0.88979054       0.10622882       0.05202762 </v>
   <v>       0.77244949       0.55400490       0.95022347 </v>
   <v>       0.88690889       0.44240351       0.05039730 </v>
   <v>       0.77821226       0.89053677       0.95187870 </v>
   <v>       0.88724970       0.78111893       0.05004592 </v>
  </varray>
 </structure>
</modeling>
