unknown system                          
           1
     8.853480    5.103403    0.000000
    -8.856332    5.108308    0.000000
     0.000000    0.000000   30.000000
   V    Mo   W    S 
   3   3   3  18
Direct configuration=     1
   0.00000000  0.00000000  0.00000000
   0.66666669  0.66666669  0.00000000
   0.33333334  0.66666669  0.00000000
   0.33333334  0.33333334  0.00000000
   0.66666669  0.00000000  0.00000000
   0.66666669  0.33333334  0.00000000
   1.00000000  0.33333334  0.00000000
   0.00000000  0.66666669  0.00000000
   0.33333334  0.00000000  0.00000000
   0.11068511  0.22244981  0.95539999
   0.22244981  0.11068511  0.04460000
   0.11068511  0.55578315  0.95539999
   0.22244981  0.44401845  0.04460000
   0.11068511  0.88911647  0.95539999
   0.22244981  0.77735180  0.04460000
   0.44401845  0.22244981  0.95539999
   0.55578315  0.11068511  0.04460000
   0.44401845  0.55578315  0.95539999
   0.55578315  0.44401845  0.04460000
   0.44401845  0.88911647  0.95539999
   0.55578315  0.77735180  0.04460000
   0.77735180  0.22244981  0.95539999
   0.88911647  0.11068511  0.04460000
   0.77735180  0.55578315  0.95539999
   0.88911647  0.44401845  0.04460000
   0.77735180  0.88911647  0.95539999
   0.88911647  0.77735180  0.04460000
unknown system                          
           1
     8.665836    4.997552    0.000000
    -8.668429    5.002013    0.000000
     0.000000    0.000000   30.000000
   V    Mo   W    S 
   3   3   3  18
Direct configuration=     2
  -0.00050748  0.00074780  0.00010470
   0.66552170  0.66598328 -0.00002281
   0.33485366  0.66659439 -0.00012927
   0.33493669  0.33349247  0.00004000
   0.66672389  0.00098891 -0.00008175
   0.66521148  0.33197906  0.00003916
   0.99874028  0.33175699 -0.00017547
  -0.00175684  0.66541541  0.00004807
   0.33622110  0.00293107  0.00020706
   0.10836183  0.21819671  0.95195096
   0.21795436  0.10818661  0.04809484
   0.11482537  0.55725137  0.95186409
   0.22341456  0.44835897  0.04798842
   0.10899954  0.89072361  0.95207920
   0.22410361  0.77577283  0.04792955
   0.44395153  0.22129447  0.95068023
   0.55438315  0.11050826  0.04932241
   0.44626982  0.55996044  0.95306682
   0.55764424  0.44878307  0.04805994
   0.44162923  0.88453746  0.95192627
   0.55348761  0.77326977  0.04688343
   0.77878012  0.22275049  0.95074358
   0.89173144  0.10943587  0.04805512
   0.77625772  0.55831569  0.95200173
   0.88947880  0.44482626  0.04924941
   0.77982642  0.88664410  0.95308934
   0.88717061  0.77950908  0.04698487
unknown system                          
           1
     8.484999    4.898045    0.000000
    -8.486716    4.900993    0.000000
     0.000000    0.000000   30.000000
   V    Mo   W    S 
   3   3   3  18
Direct configuration=     3
  -0.00059690  0.00103075  0.00006368
   0.66523123  0.66574182 -0.00002423
   0.33515204  0.66653317 -0.00010058
   0.33543114  0.33323694  0.00008854
   0.66673406  0.00179084 -0.00012771
   0.66465030  0.33120694  0.00004524
   0.99819340  0.33142328 -0.00019785
  -0.00227085  0.66476337  0.00004068
   0.33740888  0.00416160  0.00022595
   0.10817754  0.21820929  0.95198164
   0.21797284  0.10797588  0.04809750
   0.11467797  0.55718974  0.95192525
   0.22324765  0.44834416  0.04789366
   0.10908948  0.89062294  0.95223282
   0.22401442  0.77586701  0.04779898
   0.44384223  0.22106399  0.95055177
   0.55414780  0.11039432  0.04947993
   0.44636733  0.56004700  0.95304940
   0.55773635  0.44895312  0.04810069
   0.44141939  0.88455467  0.95194507
   0.55345797  0.77320901  0.04683402
   0.77902130  0.22291203  0.95064326
   0.89188444  0.10960571  0.04809826
   0.77644574  0.55846964  0.95200957
   0.88968692  0.44489930  0.04924984
   0.77984354  0.88660125  0.95318069
   0.88724825  0.77940671  0.04691382
unknown system                          
           1
     8.272973    4.775533    0.000000
    -8.279090    4.786102    0.000000
     0.000000    0.000000   30.000000
   V    Mo   W    S 
   3   3   3  18
Direct configuration=     4
  -0.00072132  0.00233992 -0.00012650
   0.66434372  0.66473018 -0.00001879
   0.33568301  0.66617819  0.00006648
   0.33708968  0.33174751  0.00024270
   0.66679717  0.00558223 -0.00024092
   0.66252621  0.32773687  0.00004805
   0.99591655  0.33050641 -0.00018030
  -0.00392664  0.66200097 -0.00001199
   0.34202398  0.00894176  0.00019057
   0.10771312  0.21722980  0.95065838
   0.21688931  0.10719048  0.04959397
   0.11564593  0.55760876  0.95064314
   0.22365384  0.44925774  0.04892452
   0.10894525  0.89101919  0.95142584
   0.22446595  0.77566277  0.04871375
   0.44386594  0.22104517  0.94840329
   0.55425057  0.11041900  0.05178520
   0.44709337  0.56100248  0.95164992
   0.55859494  0.45039551  0.04969751
   0.44064837  0.88358029  0.95056681
   0.55314489  0.77248187  0.04792344
   0.77907184  0.22317114  0.94860436
   0.89231030  0.10906095  0.04972595
   0.77575521  0.55881262  0.95057191
   0.88959231  0.44460876  0.05089233
   0.78018366  0.88606524  0.95223976
   0.88665728  0.77983864  0.04801052
unknown system                          
           1
     8.273585    4.773933    0.000000
    -8.286632    4.796504    0.000000
     0.000000    0.000000   30.000000
   V    Mo   W    S 
   3   3   3  18
Direct configuration=     5
  -0.00107691  0.00511691 -0.00047488
   0.66311259  0.66301710  0.00000934
   0.33592327  0.66512619  0.00040959
   0.34042452  0.32868604  0.00042470
   0.66712685  0.01327646 -0.00028364
   0.65888988  0.32087267  0.00003299
   0.99106019  0.32908666 -0.00004212
  -0.00748888  0.65585350 -0.00015161
   0.35104427  0.01826205  0.00004451
   0.10784160  0.21676946  0.94903249
   0.21621643  0.10651417  0.05170337
   0.11678007  0.55753023  0.94882938
   0.22402595  0.44931080  0.05006284
   0.10959752  0.89153048  0.95085727
   0.22517799  0.77627982  0.04958259
   0.44448966  0.22169678  0.94526008
   0.55486762  0.11085727  0.05528130
   0.44782709  0.56131367  0.94966543
   0.55955924  0.45139738  0.05188162
   0.44050375  0.88338304  0.94877009
   0.55353647  0.77284180  0.04931801
   0.77868219  0.22352765  0.94555733
   0.89208654  0.10837921  0.05189071
   0.77418601  0.55811730  0.94870276
   0.88831391  0.44343164  0.05318595
   0.77981210  0.88593313  0.95099399
   0.88569454  0.78010305  0.04945583
unknown system                          
           1
     8.271966    4.772041    0.000000
    -8.285571    4.795572    0.000000
     0.000000    0.000000   30.000000
   V    Mo   W    S 
   3   3   3  18
Direct configuration=     6
  -0.00139333  0.00644865 -0.00050028
   0.66287803  0.66262439  0.00004356
   0.33578588  0.66452350  0.00043091
   0.34160808  0.32824357  0.00038313
   0.66772092  0.01456113 -0.00019654
   0.65946992  0.32107139 -0.00001976
   0.98918707  0.32894942 -0.00012013
  -0.00922971  0.65291776 -0.00024308
   0.35229979  0.01957323  0.00012233
   0.10824924  0.21759210  0.94917345
   0.21683149  0.10647162  0.05175818
   0.11658852  0.55692543  0.94876379
   0.22368898  0.44805542  0.04985067
   0.11057279  0.89144970  0.95140177
   0.22526255  0.77730724  0.04917974
   0.44509982  0.22226466  0.94486550
   0.55511120  0.11105819  0.05567894
   0.44766375  0.56076528  0.94966834
   0.55957141  0.45058006  0.05194479
   0.44105152  0.88440527  0.94883503
   0.55411652  0.77383730  0.04917475
   0.77850077  0.22375168  0.94522722
   0.89168059  0.10855737  0.05202510
   0.77369377  0.55720196  0.94864459
   0.88739760  0.44268359  0.05350406
   0.77908980  0.88653955  0.95108853
   0.88571748  0.77985499  0.04931530
unknown system                          
           1
     8.269872    4.771629    0.000000
    -8.282088    4.792757    0.000000
     0.000000    0.000000   30.000000
   V    Mo   W    S 
   3   3   3  18
Direct configuration=     7
  -0.00166518  0.00735285 -0.00052956
   0.66268707  0.66238346  0.00008533
   0.33581237  0.66424856  0.00047244
   0.34249269  0.32786921  0.00037590
   0.66812811  0.01543978 -0.00017375
   0.65968704  0.32103725 -0.00001972
   0.98789348  0.32882368 -0.00013066
  -0.01037929  0.65094981 -0.00027517
   0.35346072  0.02085024  0.00011007
   0.10841050  0.21795857  0.94923879
   0.21701864  0.10647677  0.05179796
   0.11650531  0.55665032  0.94869446
   0.22351200  0.44751899  0.04970753
   0.11082801  0.89126846  0.95172705
   0.22521253  0.77763317  0.04896169
   0.44534931  0.22239372  0.94469030
   0.55526872  0.11122771  0.05586116
   0.44762975  0.56058779  0.94964697
   0.55961909  0.45033635  0.05200173
   0.44124762  0.88474389  0.94887206
   0.55432211  0.77419351  0.04909873
   0.77839997  0.22379143  0.94502636
   0.89162092  0.10869929  0.05214033
   0.77346980  0.55691084  0.94853879
   0.88707983  0.44237660  0.05372434
   0.77884164  0.88674877  0.95114127
   0.88576169  0.77974344  0.04921550
unknown system                          
           1
     8.268239    4.771305    0.000000
    -8.278151    4.788445    0.000000
     0.000000    0.000000   30.000000
   V    Mo   W    S 
   3   3   3  18
Direct configuration=     8
  -0.00139577  0.00653757 -0.00050206
   0.66288553  0.66260193  0.00005894
   0.33571972  0.66443057  0.00043292
   0.34172601  0.32809480  0.00037341
   0.66777040  0.01492136 -0.00019136
   0.65944824  0.32083287 -0.00000895
   0.98889947  0.32889641 -0.00011695
  -0.00944909  0.65257259 -0.00022584
   0.35268836  0.01998315  0.00009778
   0.10825867  0.21761615  0.94916767
   0.21687068  0.10646437  0.05179265
   0.11660208  0.55686198  0.94873325
   0.22366205  0.44795280  0.04985440
   0.11070719  0.89146422  0.95143683
   0.22529482  0.77743440  0.04915645
   0.44512362  0.22225599  0.94482665
   0.55514142  0.11111383  0.05574761
   0.44764028  0.56069962  0.94964597
   0.55958676  0.45048148  0.05195818
   0.44112778  0.88453604  0.94882894
   0.55419449  0.77397944  0.04916519
   0.77847278  0.22376483  0.94516759
   0.89164302  0.10858069  0.05204291
   0.77360736  0.55704577  0.94862194
   0.88729365  0.44262732  0.05352741
   0.77899626  0.88662317  0.95109098
   0.88569869  0.77984110  0.04931739
unknown system                          
           1
     8.256725    4.764459    0.000000
    -8.268969    4.785640    0.000000
     0.000000    0.000000   30.000000
   V    Mo   W    S 
   3   3   3  18
Direct configuration=     9
  -0.00036064  0.00372269 -0.00042452
   0.66407081  0.66356648 -0.00002461
   0.33474834  0.66441352  0.00029702
   0.33913408  0.32832249  0.00035405
   0.66692912  0.01459773 -0.00019018
   0.65911964  0.31964562  0.00000391
   0.99145746  0.32908100 -0.00010451
  -0.00703379  0.65721489 -0.00009333
   0.35084653  0.01786685  0.00008804
   0.10757571  0.21646067  0.94891910
   0.21640508  0.10624269  0.05191953
   0.11693912  0.55735771  0.94876022
   0.22390360  0.44892988  0.05038903
   0.11086066  0.89215554  0.95057595
   0.22564778  0.77730886  0.04973451
   0.44476363  0.22206694  0.94502601
   0.55477246  0.11092881  0.05568365
   0.44761100  0.56089734  0.94956156
   0.55962167  0.45051402  0.05184207
   0.44106110  0.88435850  0.94860519
   0.55408841  0.77382816  0.04932734
   0.77868980  0.22392972  0.94536443
   0.89163124  0.10823217  0.05178511
   0.77373417  0.55679816  0.94887148
   0.88743405  0.44306281  0.05303812
   0.77914509  0.88654208  0.95096210
   0.88541834  0.78016911  0.04972865
unknown system                          
           1
     8.266246    4.768919    0.000000
    -8.279969    4.792659    0.000000
     0.000000    0.000000   30.000000
   V    Mo   W    S 
   3   3   3  18
Direct configuration=    10
   0.00022832  0.00330656 -0.00045076
   0.66408516  0.66356736  0.00000990
   0.33410619  0.66316136  0.00036398
   0.33895313  0.32808204  0.00035507
   0.66663983  0.01571481 -0.00015265
   0.65871217  0.31857247 -0.00002386
   0.99132020  0.32926431 -0.00008865
  -0.00706353  0.65743310 -0.00010588
   0.35159741  0.01882409  0.00007782
   0.10756257  0.21647410  0.94895181
   0.21667231  0.10627666  0.05198573
   0.11680404  0.55722112  0.94873352
   0.22383732  0.44853753  0.05034126
   0.11137161  0.89202633  0.95064724
   0.22568674  0.77771413  0.04957167
   0.44496431  0.22232969  0.94497605
   0.55475871  0.11102618  0.05595943
   0.44746898  0.56065534  0.94963237
   0.55946685  0.45001051  0.05170028
   0.44147836  0.88502031  0.94868804
   0.55431346  0.77435243  0.04909543
   0.77885325  0.22414333  0.94511800
   0.89150636  0.10834167  0.05175730
   0.77360943  0.55629014  0.94890805
   0.88717633  0.44290697  0.05306161
   0.77871867  0.88695826  0.95110089
   0.88538627  0.78000366  0.04978624
unknown system                          
           1
     8.268994    4.769648    0.000000
    -8.284284    4.796099    0.000000
     0.000000    0.000000   30.000000
   V    Mo   W    S 
   3   3   3  18
Direct configuration=    11
  -0.00022762  0.00471852 -0.00048482
   0.66363861  0.66314350  0.00004383
   0.33430480  0.66277127  0.00041068
   0.34028280  0.32781336  0.00034426
   0.66728303  0.01648228 -0.00014721
   0.65913171  0.31902104 -0.00003728
   0.98966070  0.32916573 -0.00011893
  -0.00861980  0.65467995 -0.00016392
   0.35279499  0.02021965  0.00011330
   0.10785516  0.21703094  0.94906442
   0.21687884  0.10633076  0.05199362
   0.11668991  0.55692734  0.94866404
   0.22362780  0.44789291  0.05012593
   0.11147649  0.89170958  0.95109430
   0.22555691  0.77793512  0.04925410
   0.44526360  0.22253604  0.94475190
   0.55495461  0.11119697  0.05610904
   0.44745634  0.56051941  0.94961884
   0.55953646  0.44989119  0.05180358
   0.44156396  0.88520640  0.94878038
   0.55445740  0.77460162  0.04901520
   0.77873581  0.22413499  0.94493471
   0.89151040  0.10851754  0.05191341
   0.77341238  0.55622408  0.94874855
   0.88693104  0.44258764  0.05337491
   0.77855288  0.88709562  0.95118484
   0.88550524  0.77986102  0.04960822
unknown system                          
           1
     8.259413    4.767012    0.000000
    -8.269754    4.784898    0.000000
     0.000000    0.000000   30.000000
   V    Mo   W    S 
   3   3   3  18
Direct configuration=    12
  -0.00025072  0.00539926 -0.00051289
   0.66344262  0.66293701  0.00007166
   0.33402517  0.66178533  0.00044262
   0.34106161  0.32754850  0.00032715
   0.66773617  0.01758362 -0.00012767
   0.65940991  0.31892864 -0.00005867
   0.98848805  0.32922918 -0.00014940
  -0.00979544  0.65284378 -0.00019333
   0.35380619  0.02153355  0.00014692
   0.10798139  0.21732988  0.94915822
   0.21706404  0.10636215  0.05203642
   0.11659384  0.55671854  0.94860409
   0.22342609  0.44734133  0.05001313
   0.11176158  0.89149470  0.95139017
   0.22550821  0.77822070  0.04898048
   0.44553690  0.22276313  0.94457876
   0.55505817  0.11135858  0.05629306
   0.44740733  0.56038060  0.94961089
   0.55957738  0.44966486  0.05182494
   0.44172940  0.88553420  0.94889463
   0.55462131  0.77494570  0.04887798
   0.77873827  0.22423210  0.94474388
   0.89149785  0.10866983  0.05198163
   0.77323410  0.55602420  0.94865946
   0.88669009  0.44235022  0.05357883
   0.77831755  0.88731331  0.95130831
   0.88554739  0.77972157  0.04951861
unknown system                          
           1
     8.260998    4.768588    0.000000
    -8.270723    4.785411    0.000000
     0.000000    0.000000   30.000000
   V    Mo   W    S 
   3   3   3  18
Direct configuration=    13
  -0.00022766  0.00336473 -0.00040948
   0.66370204  0.66325060 -0.00003548
   0.33509690  0.66525284  0.00035196
   0.33878629  0.32825867  0.00034865
   0.66607263  0.01454450 -0.00022743
   0.65836532  0.31875589  0.00000170
   0.99175854  0.32895745 -0.00007174
  -0.00618227  0.65818924 -0.00007729
   0.35136847  0.01783487  0.00006021
   0.10767433  0.21646920  0.94880549
   0.21660099  0.10621207  0.05193363
   0.11701058  0.55729837  0.94879096
   0.22414885  0.44905602  0.05032654
   0.11111678  0.89223211  0.95043866
   0.22574077  0.77747989  0.04986795
   0.44466064  0.22213063  0.94504386
   0.55469814  0.11087056  0.05585342
   0.44748689  0.56073086  0.94968046
   0.55942855  0.45023429  0.05177257
   0.44131990  0.88463305  0.94845094
   0.55421180  0.77402346  0.04932365
   0.77872574  0.22392200  0.94531153
   0.89141920  0.10817655  0.05182742
   0.77366461  0.55642221  0.94895772
   0.88736044  0.44307429  0.05293366
   0.77882369  0.88671731  0.95091487
   0.88538230  0.78012280  0.04982544
unknown system                          
           1
     8.256742    4.764439    0.000000
    -8.268642    4.785023    0.000000
     0.000000    0.000000   30.000000
   V    Mo   W    S 
   3   3   3  18
Direct configuration=    14
  -0.00017389  0.00286807 -0.00040350
   0.66379014  0.66325038 -0.00007112
   0.33559108  0.66677089  0.00036378
   0.33793602  0.32814310  0.00037225
   0.66535017  0.01379991 -0.00021742
   0.65779763  0.31838667  0.00001575
   0.99260951  0.32853819 -0.00002617
  -0.00487020  0.66009969 -0.00007989
   0.35078747  0.01662861  0.00003730
   0.10756137  0.21617974  0.94869408
   0.21655194  0.10611483  0.05189782
   0.11719986  0.55743835  0.94884996
   0.22436701  0.44947646  0.05036120
   0.11109082  0.89246019  0.95020908
   0.22587493  0.77747214  0.05014903
   0.44443713  0.22201446  0.94509719
   0.55462937  0.11074569  0.05587029
   0.44741764  0.56075195  0.94970733
   0.55932885  0.45022033  0.05176225
   0.44131984  0.88457022  0.94821190
   0.55424063  0.77397194  0.04944685
   0.77873127  0.22389027  0.94538220
   0.89128244  0.10798442  0.05177166
   0.77376604  0.55634117  0.94908400
   0.88742913  0.44321556  0.05275036
   0.77882701  0.88666604  0.95085460
   0.88534125  0.78021518  0.04990909
unknown system                          
           1
     8.260337    4.766296    0.000000
    -8.272725    4.787725    0.000000
     0.000000    0.000000   30.000000
   V    Mo   W    S 
   3   3   3  18
Direct configuration=    15
  -0.00026968  0.00380790 -0.00044269
   0.66347127  0.66278697 -0.00005165
   0.33571344  0.66664812  0.00041738
   0.33876433  0.32764931  0.00035846
   0.66545081  0.01504982 -0.00018878
   0.65768094  0.31792610 -0.00000311
   0.99118152  0.32812101 -0.00003823
  -0.00565905  0.65861998 -0.00014267
   0.35209248  0.01770208  0.00006268
   0.10767668  0.21650938  0.94879567
   0.21683410  0.10606302  0.05189800
   0.11716315  0.55719370  0.94888229
   0.22414083  0.44888648  0.05011627
   0.11148007  0.89221242  0.95058684
   0.22588336  0.77792633  0.04987403
   0.44468387  0.22219049  0.94492354
   0.55473795  0.11091933  0.05611716
   0.44726918  0.56056736  0.94977408
   0.55928573  0.44982328  0.05174967
   0.44162107  0.88510713  0.94825282
   0.55453108  0.77449327  0.04927187
   0.77872085  0.22401758  0.94518852
   0.89113883  0.10807740  0.05182259
   0.77362468  0.55601206  0.94908445
   0.88716057  0.44296323  0.05286589
   0.77840156  0.88692981  0.95107420
   0.88543482  0.78001091  0.04975061
unknown system                          
           1
     8.269356    4.770512    0.000000
    -8.283312    4.794655    0.000000
     0.000000    0.000000   30.000000
   V    Mo   W    S 
   3   3   3  18
Direct configuration=    16
  -0.00030385  0.00414467 -0.00045713
   0.66345814  0.66278481 -0.00003134
   0.33552353  0.66604255  0.00042702
   0.33914826  0.32757725  0.00035695
   0.66581700  0.01540243 -0.00017357
   0.65796140  0.31813730 -0.00001044
   0.99070020  0.32824100 -0.00005346
  -0.00633795  0.65763651 -0.00015668
   0.35237467  0.01829591  0.00007249
   0.10773115  0.21664635  0.94885065
   0.21687008  0.10609990  0.05191578
   0.11708129  0.55710621  0.94883481
   0.22403047  0.44863802  0.05008610
   0.11152157  0.89210910  0.95072827
   0.22582373  0.77797858  0.04974199
   0.44481823  0.22227148  0.94485716
   0.55480295  0.11099411  0.05615483
   0.44728826  0.56053250  0.94974450
   0.55933338  0.44979671  0.05177416
   0.44163914  0.88517215  0.94833342
   0.55455821  0.77457058  0.04922133
   0.77870725  0.22404749  0.94510648
   0.89118632  0.10816273  0.05185879
   0.77355627  0.55600951  0.94900946
   0.88707728  0.44285449  0.05299323
   0.77839100  0.88699122  0.95110716
   0.88545648  0.77997091  0.04970793
unknown system                          
           1
     8.268642    4.769761    0.000000
    -8.283109    4.794787    0.000000
     0.000000    0.000000   30.000000
   V    Mo   W    S 
   3   3   3  18
Direct configuration=    17
  -0.00045981  0.00537698 -0.00049880
   0.66319133  0.66237166  0.00000795
   0.33556683  0.66563181  0.00047813
   0.34025941  0.32703041  0.00034411
   0.66636958  0.01654454 -0.00013278
   0.65831898  0.31830259 -0.00002596
   0.98898276  0.32801276 -0.00008477
  -0.00785421  0.65514604 -0.00021525
   0.35363607  0.01977196  0.00008769
   0.10788588  0.21703208  0.94896738
   0.21705856  0.10607440  0.05194247
   0.11698169  0.55679505  0.94878243
   0.22375036  0.44795590  0.04986107
   0.11182779  0.89188791  0.95115980
   0.22575626  0.77831082  0.04943700
   0.44512758  0.22243122  0.94464232
   0.55497787  0.11123801  0.05637852
   0.44721549  0.56036460  0.94974206
   0.55938336  0.44952620  0.05183349
   0.44185656  0.88556909  0.94841322
   0.55480652  0.77499456  0.04907733
   0.77863303  0.22415843  0.94485268
   0.89114555  0.10829888  0.05198304
   0.77333642  0.55580265  0.94887422
   0.88680985  0.44254961  0.05326661
   0.77811607  0.88722227  0.95127901
   0.88553467  0.77981404  0.04954693
unknown system                          
           1
     8.267525    4.776818    0.000000
    -8.275171    4.790060    0.000000
     0.000000    0.000000   30.000000
   V    Mo   W    S 
   3   3   3  18
Direct configuration=    18
  -0.00053243  0.00571965 -0.00051062
   0.66310140  0.66227901  0.00002157
   0.33555740  0.66539969  0.00049277
   0.34064442  0.32695148  0.00034315
   0.66658238  0.01681616 -0.00012564
   0.65848897  0.31844870 -0.00003068
   0.98851757  0.32804305 -0.00009665
  -0.00838917  0.65429741 -0.00023114
   0.35396917  0.02023487  0.00009435
   0.10794289  0.21717226  0.94901578
   0.21711227  0.10609374  0.05194162
   0.11691900  0.55670745  0.94876987
   0.22366298  0.44776001  0.04979592
   0.11187535  0.89179535  0.95129357
   0.22570615  0.77836635  0.04932769
   0.44522639  0.22247954  0.94460167
   0.55502625  0.11129963  0.05639942
   0.44722209  0.56032790  0.94974519
   0.55940207  0.44948954  0.05184173
   0.44189257  0.88564914  0.94846858
   0.55484524  0.77506327  0.04902973
   0.77861270  0.22417233  0.94480573
   0.89116255  0.10836949  0.05201107
   0.77328897  0.55579863  0.94883214
   0.88675365  0.44246163  0.05335046
   0.77807222  0.88725933  0.95131919
   0.88555140  0.77975880  0.04949343
unknown system                          
           1
     8.258657    4.768543    0.000000
    -8.269293    4.786951    0.000000
     0.000000    0.000000   30.000000
   V    Mo   W    S 
   3   3   3  18
Direct configuration=    19
   0.00021349  0.00123327 -0.00039128
   0.66413259  0.66308163 -0.00013754
   0.33604906  0.66758393  0.00031731
   0.33679830  0.32813110  0.00035848
   0.66426459  0.01408669 -0.00021278
   0.65601711  0.31645338  0.00001982
   0.99359858  0.32724697 -0.00000630
  -0.00310580  0.66425678 -0.00002325
   0.35047717  0.01560401  0.00002823
   0.10717045  0.21539108  0.94859040
   0.21655861  0.10589701  0.05186216
   0.11747732  0.55764545  0.94902317
   0.22456760  0.44982896  0.05049272
   0.11158040  0.89307181  0.94981371
   0.22633042  0.77781133  0.05045677
   0.44406842  0.22188333  0.94517819
   0.55433117  0.11058559  0.05607522
   0.44748775  0.56084873  0.94986240
   0.55928759  0.45012777  0.05149317
   0.44164758  0.88506838  0.94798797
   0.55467396  0.77423533  0.04934151
   0.77899704  0.22410136  0.94542317
   0.89092495  0.10759827  0.05159913
   0.77375871  0.55601013  0.94952537
   0.88748192  0.44357042  0.05224487
   0.77841735  0.88662436  0.95112385
   0.88500814  0.78023739  0.04995343
unknown system                          
           1
     8.266755    4.775004    0.000000
    -8.276476    4.791836    0.000000
     0.000000    0.000000   30.000000
   V    Mo   W    S 
   3   3   3  18
Direct configuration=    20
   0.00054201  0.00089359 -0.00037599
   0.66408053  0.66281838 -0.00017313
   0.33605597  0.66744005  0.00034172
   0.33645701  0.32802946  0.00037478
   0.66390469  0.01486129 -0.00020572
   0.65518667  0.31532541  0.00001694
   0.99367387  0.32655039  0.00001651
  -0.00206954  0.66602107 -0.00002784
   0.35068633  0.01548738  0.00009867
   0.10712704  0.21524654  0.94859538
   0.21665351  0.10589466  0.05182588
   0.11745269  0.55769531  0.94921307
   0.22448374  0.44975755  0.05040486
   0.11181139  0.89315006  0.94975565
   0.22639231  0.77792499  0.05038532
   0.44401222  0.22190074  0.94514876
   0.55417491  0.11057888  0.05616223
   0.44737515  0.56074256  0.94989030
   0.55916985  0.44982041  0.05145637
   0.44180016  0.88535142  0.94799904
   0.55481596  0.77450232  0.04924384
   0.77905511  0.22428652  0.94543910
   0.89080995  0.10747021  0.05152732
   0.77383946  0.55571759  0.94963653
   0.88746087  0.44365325  0.05195486
   0.77821462  0.88680855  0.95127788
   0.88504799  0.78028587  0.05001757
unknown system                          
           1
     8.264149    4.768454    0.000000
    -8.278647    4.793539    0.000000
     0.000000    0.000000   30.000000
   V    Mo   W    S 
   3   3   3  18
Direct configuration=    21
   0.00097129 -0.00049081 -0.00032606
   0.66431211  0.66272070 -0.00023724
   0.33622592  0.66779903  0.00028891
   0.33535909  0.32832714  0.00035818
   0.66319236  0.01472957 -0.00021512
   0.65401178  0.31414915  0.00000990
   0.99487089  0.32569328  0.00005145
  -0.00006880  0.66993090  0.00002034
   0.34981908  0.01422252  0.00006876
   0.10688577  0.21464861  0.94843186
   0.21650984  0.10582011  0.05185186
   0.11762972  0.55795590  0.94935092
   0.22467654  0.45022567  0.05059160
   0.11190873  0.89364540  0.94926749
   0.22667493  0.77786478  0.05071692
   0.44362234  0.22172247  0.94524214
   0.55394266  0.11041822  0.05624255
   0.44736552  0.56080384  0.94990113
   0.55912527  0.44982320  0.05137889
   0.44182710  0.88536243  0.94784501
   0.55491958  0.77448675  0.04928494
   0.77917539  0.22443661  0.94553270
   0.89064424  0.10711350  0.05143121
   0.77395772  0.55555502  0.94987988
   0.88760825  0.44400385  0.05150071
   0.77813047  0.88676483  0.95132749
   0.88491667  0.78048178  0.05020349
unknown system                          
           1
     8.267744    4.770464    0.000000
    -8.283542    4.797802    0.000000
     0.000000    0.000000   30.000000
   V    Mo   W    S 
   3   3   3  18
Direct configuration=    22
   0.00110053  0.00079639 -0.00034329
   0.66388700  0.66213306 -0.00020977
   0.33598996  0.66663591  0.00034608
   0.33641766  0.32796629  0.00035910
   0.66377614  0.01634198 -0.00017746
   0.65398407  0.31383535 -0.00001410
   0.99321365  0.32510435  0.00004697
  -0.00069709  0.66863226 -0.00004474
   0.35095868  0.01561601  0.00011754
   0.10711323  0.21513863  0.94852873
   0.21674306  0.10593795  0.05189237
   0.11741418  0.55768568  0.94939327
   0.22430505  0.44944015  0.05034630
   0.11212450  0.89334530  0.94962350
   0.22653857  0.77807931  0.05034803
   0.44389801  0.22189294  0.94501637
   0.55404922  0.11064392  0.05645483
   0.44716700  0.56051899  0.94984847
   0.55908498  0.44938356  0.05148919
   0.44199232  0.88569422  0.94802248
   0.55507674  0.77495492  0.04911369
   0.77909197  0.22463882  0.94531070
   0.89062674  0.10721053  0.05154379
   0.77394330  0.55526129  0.94975935
   0.88736327  0.44376970  0.05158299
   0.77786639  0.88714730  0.95151896
   0.88518531  0.78040966  0.05012655
unknown system                          
           1
     8.269627    4.770576    0.000000
    -8.289075    4.804234    0.000000
     0.000000    0.000000   30.000000
   V    Mo   W    S 
   3   3   3  18
Direct configuration=    23
   0.00131054  0.00124075 -0.00034074
   0.66362757  0.66159568 -0.00020739
   0.33588429  0.66587035  0.00035984
   0.33695990  0.32786629  0.00033483
   0.66414200  0.01732880 -0.00014418
   0.65372915  0.31346455 -0.00003525
   0.99230515  0.32445258  0.00002705
  -0.00067610  0.66885471 -0.00006206
   0.35133642  0.01624447  0.00012371
   0.10717925  0.21526534  0.94855200
   0.21685573  0.10599177  0.05193687
   0.11731797  0.55751963  0.94943878
   0.22410179  0.44902419  0.05026362
   0.11231534  0.89343722  0.94970159
   0.22662010  0.77819247  0.05022659
   0.44394405  0.22191783  0.94490409
   0.55405730  0.11077200  0.05660727
   0.44708450  0.56035455  0.94980806
   0.55911107  0.44914438  0.05154361
   0.44210116  0.88591034  0.94811576
   0.55523043  0.77522012  0.04899977
   0.77903984  0.22483792  0.94516898
   0.89055217  0.10716468  0.05162325
   0.77390030  0.55506359  0.94975173
   0.88723503  0.44370674  0.05152985
   0.77766987  0.88734499  0.95168149
   0.88527963  0.78042850  0.05009076
unknown system                          
           1
     8.269372    4.770858    0.000000
    -8.287586    4.802379    0.000000
     0.000000    0.000000   30.000000
   V    Mo   W    S 
   3   3   3  18
Direct configuration=    24
   0.00167914  0.00256210 -0.00033815
   0.66264040  0.66001175 -0.00019453
   0.33560632  0.66372820  0.00041177
   0.33885255  0.32786678  0.00029163
   0.66533764  0.01972970 -0.00005600
   0.65347537  0.31296182 -0.00008237
   0.98963495  0.32315445 -0.00004254
  -0.00111345  0.66839151 -0.00010542
   0.35241323  0.01809345  0.00017684
   0.10741830  0.21576089  0.94867729
   0.21720333  0.10619562  0.05202845
   0.11707473  0.55704549  0.94953688
   0.22349482  0.44786426  0.04998663
   0.11278085  0.89364750  0.94997067
   0.22682615  0.77842590  0.04983690
   0.44415749  0.22201093  0.94463020
   0.55408252  0.11110320  0.05687372
   0.44697163  0.55997055  0.94971217
   0.55922237  0.44864345  0.05167800
   0.44237672  0.88642738  0.94844306