   27   27  100    1
  0.9710400E+02  0.1002848E-08  0.1002848E-08  0.3000000E-08  0.5000000E-15
  1.000000000000000E-004
  CAR 
 unknown system                          
    159     34    120
 
  0.0000000E+00  0.0000000E+00  0.0000000E+00  0.1562500E-01
    1      -17.785419   1.000000
    2      -16.682949   1.000000
    3      -16.606192   1.000000
    4      -16.574750   1.000000
    5      -16.502546   1.000000
    6      -16.481453   1.000000
    7      -16.390261   1.000000
    8      -16.341280   1.000000
    9      -16.147080   1.000000
   10      -16.101129   1.000000
   11      -16.063795   1.000000
   12      -16.023561   1.000000
   13      -15.889138   1.000000
   14      -15.670727   1.000000
   15      -15.631237   1.000000
   16      -15.502984   1.000000
   17      -15.469001   1.000000
   18      -15.288963   1.000000
   19       -9.223934   1.000000
   20       -8.938684   1.000000
   21       -8.915493   1.000000
   22       -8.834968   1.000000
   23       -8.750318   1.000000
   24       -8.727542   1.000000
   25       -8.677367   1.000000
   26       -8.618132   1.000000
   27       -8.497168   1.000000
   28       -8.429185   1.000000
   29       -8.373659   1.000000
   30       -8.338275   1.000000
   31       -8.279077   1.000000
   32       -8.158855   1.000000
   33       -8.040605   1.000000
   34       -7.930470   1.000000
   35       -7.884410   1.000000
   36       -7.848707   1.000000
   37       -7.740899   1.000000
   38       -7.538939   1.000000
   39       -7.415918   1.000000
   40       -7.382508   1.000000
   41       -7.374785   1.000000
   42       -7.241083   1.000000
   43       -7.133132   1.000000
   44       -6.985029   1.000000
   45       -6.828967   1.000000
   46       -6.787425   1.000000
   47       -6.725956   1.000000
   48       -6.602702   1.000000
   49       -6.595668   1.000000
   50       -6.511217   1.000000
   51       -6.457097   1.000000
   52       -6.365060   1.000000
   53       -6.355251   1.000000
   54       -6.275563   1.000000
   55       -6.251764   1.000000
   56       -6.139837   1.000000
   57       -5.993139   1.000000
   58       -5.878567   1.000000
   59       -5.724290   1.000000
   60       -5.653694   1.000000
   61       -5.494954   1.000000
   62       -5.422736   1.000000
   63       -5.257880   1.000000
   64       -5.186998   1.000000
   65       -5.128141   1.000000
   66       -5.040692   1.000000
   67       -4.965018   1.000000
   68       -4.869104   1.000000
   69       -4.798582   1.000000
   70       -4.753256   1.000000
   71       -4.707177   1.000000
   72       -4.620534   1.000000
   73       -4.502544   1.000000
   74       -4.259038   1.000000
   75       -4.125402   1.000000
   76       -4.049403   1.000000
   77       -3.775372   0.999633
   78       -3.628370   0.990291
   79       -3.584984   0.978854
   80       -3.409870   0.785932
   81       -3.249752   0.366996
   82       -2.841360   0.000624
   83       -2.699723   0.000012
   84       -2.628211   0.000001
   85       -2.495365   0.000000
   86       -2.451090   0.000000
   87       -2.342276   0.000000
   88       -2.298402   0.000000
   89       -2.202445   0.000000
   90       -2.062180   0.000000
   91       -1.890935   0.000000
   92       -1.661444   0.000000
   93       -1.524510   0.000000
   94       -1.289343   0.000000
   95       -1.196402   0.000000
   96       -1.065038   0.000000
   97       -0.952682   0.000000
   98       -0.851710   0.000000
   99       -0.726885   0.000000
  100       -0.684780   0.000000
  101       -0.597668   0.000000
  102       -0.492576   0.000000
  103       -0.478262   0.000000
  104       -0.399547   0.000000
  105       -0.283389   0.000000
  106       -0.136755   0.000000
  107       -0.067499   0.000000
  108       -0.031748   0.000000
  109        0.084964   0.000000
  110        0.235211   0.000000
  111        0.250621   0.000000
  112        0.380454   0.000000
  113        0.786931   0.000000
  114        0.842953   0.000000
  115        0.966790   0.000000
  116        1.060978   0.000000
  117        1.150044   0.000000
  118        1.630574   0.000000
  119        1.828255   0.000000
  120        2.135442   0.000000
 
  0.1250000E+00  0.2775558E-16  0.0000000E+00  0.3125000E-01
    1      -17.760224   1.000000
    2      -16.765941   1.000000
    3      -16.652351   1.000000
    4      -16.616186   1.000000
    5      -16.530659   1.000000
    6      -16.446970   1.000000
    7      -16.337149   1.000000
    8      -16.290511   1.000000
    9      -16.175567   1.000000
   10      -16.101335   1.000000
   11      -16.025195   1.000000
   12      -15.963218   1.000000
   13      -15.883211   1.000000
   14      -15.691245   1.000000
   15      -15.628075   1.000000
   16      -15.500743   1.000000
   17      -15.469511   1.000000
   18      -15.303089   1.000000
   19       -9.229112   1.000000
   20       -9.116676   1.000000
   21       -9.000768   1.000000
   22       -8.939834   1.000000
   23       -8.778504   1.000000
   24       -8.727779   1.000000
   25       -8.665739   1.000000
   26       -8.593916   1.000000
   27       -8.501640   1.000000
   28       -8.378308   1.000000
   29       -8.361813   1.000000
   30       -8.293326   1.000000
   31       -8.187430   1.000000
   32       -8.056463   1.000000
   33       -7.983733   1.000000
   34       -7.928374   1.000000
   35       -7.813656   1.000000
   36       -7.743030   1.000000
   37       -7.677635   1.000000
   38       -7.575311   1.000000
   39       -7.517492   1.000000
   40       -7.370442   1.000000
   41       -7.302497   1.000000
   42       -7.241687   1.000000
   43       -7.137903   1.000000
   44       -6.991476   1.000000
   45       -6.931217   1.000000
   46       -6.801511   1.000000
   47       -6.764265   1.000000
   48       -6.620703   1.000000
   49       -6.554369   1.000000
   50       -6.489041   1.000000
   51       -6.420397   1.000000
   52       -6.365456   1.000000
   53       -6.351346   1.000000
   54       -6.287238   1.000000
   55       -6.209855   1.000000
   56       -6.142043   1.000000
   57       -6.020899   1.000000
   58       -5.853215   1.000000
   59       -5.705585   1.000000
   60       -5.637145   1.000000
   61       -5.545736   1.000000
   62       -5.440752   1.000000
   63       -5.313291   1.000000
   64       -5.248707   1.000000
   65       -5.146035   1.000000
   66       -5.077974   1.000000
   67       -4.960108   1.000000
   68       -4.942629   1.000000
   69       -4.807931   1.000000
   70       -4.747207   1.000000
   71       -4.660290   1.000000
   72       -4.593381   1.000000
   73       -4.433763   1.000000
   74       -4.253199   1.000000
   75       -4.094814   1.000000
   76       -3.981494   0.999999
   77       -3.816108   0.999876
   78       -3.808054   0.999846
   79       -3.575636   0.975266
   80       -3.347242   0.636657
   81       -3.183642   0.209750
   82       -2.853463   0.000839
   83       -2.690336   0.000009
   84       -2.596909   0.000000
   85       -2.508334   0.000000
   86       -2.423452   0.000000
   87       -2.347725   0.000000
   88       -2.273843   0.000000
   89       -2.175425   0.000000
   90       -2.068755   0.000000
   91       -1.890846   0.000000
   92       -1.671446   0.000000
   93       -1.513182   0.000000
   94       -1.282520   0.000000
   95       -1.185802   0.000000
   96       -1.056677   0.000000
   97       -0.962484   0.000000
   98       -0.867078   0.000000
   99       -0.761100   0.000000
  100       -0.721040   0.000000
  101       -0.646890   0.000000
  102       -0.590664   0.000000
  103       -0.506072   0.000000
  104       -0.464168   0.000000
  105       -0.345453   0.000000
  106       -0.175669   0.000000
  107       -0.096611   0.000000
  108       -0.027341   0.000000
  109        0.044345   0.000000
  110        0.232081   0.000000
  111        0.371507   0.000000
  112        0.503477   0.000000
  113        0.775117   0.000000
  114        0.833164   0.000000
  115        0.972896   0.000000
  116        1.074305   0.000000
  117        1.126555   0.000000
  118        1.675025   0.000000
  119        1.865979   0.000000
  120        2.170559   0.000000
 
  0.2500000E+00  0.5551115E-16  0.0000000E+00  0.3125000E-01
    1      -17.685740   1.000000
    2      -16.973332   1.000000
    3      -16.686717   1.000000
    4      -16.658132   1.000000
    5      -16.577701   1.000000
    6      -16.412804   1.000000
    7      -16.262969   1.000000
    8      -16.233498   1.000000
    9      -16.164894   1.000000
   10      -16.106035   1.000000
   11      -15.972699   1.000000
   12      -15.874115   1.000000
   13      -15.836143   1.000000
   14      -15.731759   1.000000
   15      -15.630690   1.000000
   16      -15.515903   1.000000
   17      -15.454847   1.000000
   18      -15.335674   1.000000
   19       -9.477394   1.000000
   20       -9.186194   1.000000
   21       -9.093737   1.000000
   22       -9.041817   1.000000
   23       -8.858282   1.000000
   24       -8.793114   1.000000
   25       -8.667631   1.000000
   26       -8.549585   1.000000
   27       -8.434295   1.000000
   28       -8.366394   1.000000
   29       -8.266170   1.000000
   30       -8.175227   1.000000
   31       -8.141179   1.000000
   32       -8.032788   1.000000
   33       -7.880213   1.000000
   34       -7.851647   1.000000
   35       -7.777299   1.000000
   36       -7.682940   1.000000
   37       -7.583659   1.000000
   38       -7.532449   1.000000
   39       -7.409162   1.000000
   40       -7.366912   1.000000
   41       -7.274495   1.000000
   42       -7.210631   1.000000
   43       -7.077150   1.000000
   44       -7.019865   1.000000
   45       -6.964063   1.000000
   46       -6.818190   1.000000
   47       -6.778309   1.000000
   48       -6.659626   1.000000
   49       -6.575546   1.000000
   50       -6.526172   1.000000
   51       -6.423463   1.000000
   52       -6.375461   1.000000
   53       -6.291111   1.000000
   54       -6.215383   1.000000
   55       -6.166175   1.000000
   56       -6.082942   1.000000
   57       -6.023890   1.000000
   58       -5.830010   1.000000
   59       -5.768266   1.000000
   60       -5.677563   1.000000
   61       -5.651970   1.000000
   62       -5.604960   1.000000
   63       -5.447027   1.000000
   64       -5.329133   1.000000
   65       -5.182562   1.000000
   66       -5.110967   1.000000
   67       -5.021420   1.000000
   68       -4.921687   1.000000
   69       -4.830171   1.000000
   70       -4.667067   1.000000
   71       -4.568491   1.000000
   72       -4.508488   1.000000
   73       -4.338661   1.000000
   74       -4.284519   1.000000
   75       -4.219569   1.000000
   76       -4.064157   1.000000
   77       -3.909011   0.999992
   78       -3.709983   0.998219
   79       -3.549779   0.962600
   80       -3.259416   0.393009
   81       -3.094520   0.075292
   82       -2.871517   0.001288
   83       -2.674702   0.000005
   84       -2.551568   0.000000
   85       -2.501093   0.000000
   86       -2.426596   0.000000
   87       -2.344208   0.000000
   88       -2.223014   0.000000
   89       -2.138829   0.000000
   90       -2.031576   0.000000
   91       -1.874362   0.000000
   92       -1.673460   0.000000
   93       -1.498947   0.000000
   94       -1.278130   0.000000
   95       -1.163241   0.000000
   96       -1.058801   0.000000
   97       -1.010570   0.000000
   98       -0.910732   0.000000
   99       -0.881712   0.000000
  100       -0.833836   0.000000
  101       -0.752540   0.000000
  102       -0.683498   0.000000
  103       -0.622835   0.000000
  104       -0.531354   0.000000
  105       -0.428450   0.000000
  106       -0.210368   0.000000
  107       -0.177433   0.000000
  108       -0.142938   0.000000
  109        0.059869   0.000000
  110        0.249630   0.000000
  111        0.529227   0.000000
  112        0.614805   0.000000
  113        0.760569   0.000000
  114        0.856580   0.000000
  115        0.990586   0.000000
  116        1.085645   0.000000
  117        1.152450   0.000000
  118        1.798542   0.000000
  119        1.974965   0.000000
  120        2.274732   0.000000
 
  0.3750000E+00  0.0000000E+00  0.0000000E+00  0.3125000E-01
    1      -17.566306   1.000000
    2      -17.189047   1.000000
    3      -16.732757   1.000000
    4      -16.674340   1.000000
    5      -16.588677   1.000000
    6      -16.414092   1.000000
    7      -16.252383   1.000000
    8      -16.185228   1.000000
    9      -16.117224   1.000000
   10      -16.074962   1.000000
   11      -15.919057   1.000000
   12      -15.874647   1.000000
   13      -15.773267   1.000000
   14      -15.740506   1.000000
   15      -15.633171   1.000000
   16      -15.549699   1.000000
   17      -15.448392   1.000000
   18      -15.351626   1.000000
   19       -9.693889   1.000000
   20       -9.301132   1.000000
   21       -9.142180   1.000000
   22       -9.043784   1.000000
   23       -8.883737   1.000000
   24       -8.824445   1.000000
   25       -8.628627   1.000000
   26       -8.495121   1.000000
   27       -8.417313   1.000000
   28       -8.302146   1.000000
   29       -8.260776   1.000000
   30       -8.213385   1.000000
   31       -8.063443   1.000000
   32       -8.011170   1.000000
   33       -7.891922   1.000000
   34       -7.876767   1.000000
   35       -7.784327   1.000000
   36       -7.651315   1.000000
   37       -7.522333   1.000000
   38       -7.483957   1.000000
   39       -7.362139   1.000000
   40       -7.292918   1.000000
   41       -7.198499   1.000000
   42       -7.139589   1.000000
   43       -7.067028   1.000000
   44       -6.927100   1.000000
   45       -6.877553   1.000000
   46       -6.796225   1.000000
   47       -6.739800   1.000000
   48       -6.622640   1.000000
   49       -6.532536   1.000000
   50       -6.508548   1.000000
   51       -6.435509   1.000000
   52       -6.372625   1.000000
   53       -6.254455   1.000000
   54       -6.205424   1.000000
   55       -6.142987   1.000000
   56       -6.075794   1.000000
   57       -5.981766   1.000000
   58       -5.911364   1.000000
   59       -5.858405   1.000000
   60       -5.850519   1.000000
   61       -5.758286   1.000000
   62       -5.667598   1.000000
   63       -5.646406   1.000000
   64       -5.367070   1.000000
   65       -5.214974   1.000000
   66       -5.099024   1.000000
   67       -5.028629   1.000000
   68       -4.897041   1.000000
   69       -4.809122   1.000000
   70       -4.730809   1.000000
   71       -4.537658   1.000000
   72       -4.486597   1.000000
   73       -4.380312   1.000000
   74       -4.312980   1.000000
   75       -4.251941   1.000000
   76       -4.055966   1.000000
   77       -3.896167   0.999988
   78       -3.652549   0.993936
   79       -3.450976   0.860607
   80       -3.181753   0.205924
   81       -3.040697   0.034528
   82       -2.880345   0.001579
   83       -2.671007   0.000005
   84       -2.536223   0.000000
   85       -2.488237   0.000000
   86       -2.448666   0.000000
   87       -2.325935   0.000000
   88       -2.229402   0.000000
   89       -2.074525   0.000000
   90       -1.986177   0.000000
   91       -1.819821   0.000000
   92       -1.630426   0.000000
   93       -1.495151   0.000000
   94       -1.305105   0.000000
   95       -1.162522   0.000000
   96       -1.115812   0.000000
   97       -1.075511   0.000000
   98       -1.042879   0.000000
   99       -0.970095   0.000000
  100       -0.901838   0.000000
  101       -0.803777   0.000000
  102       -0.728007   0.000000
  103       -0.691717   0.000000
  104       -0.611137   0.000000
  105       -0.430702   0.000000
  106       -0.340167   0.000000
  107       -0.216666   0.000000
  108       -0.183641   0.000000
  109        0.022153   0.000000
  110        0.239336   0.000000
  111        0.572169   0.000000
  112        0.680076   0.000000
  113        0.768883   0.000000
  114        0.868675   0.000000
  115        1.033853   0.000000
  116        1.096552   0.000000
  117        1.250809   0.000000
  118        1.983324   0.000000
  119        2.146578   0.000000
  120        2.445176   0.000000
 
  0.5000000E+00  0.1110223E-15  0.0000000E+00  0.1562500E-01
    1      -17.444788   1.000000
    2      -17.344578   1.000000
    3      -16.748886   1.000000
    4      -16.683234   1.000000
    5      -16.586804   1.000000
    6      -16.419659   1.000000
    7      -16.253224   1.000000
    8      -16.172686   1.000000
    9      -16.099172   1.000000
   10      -16.036519   1.000000
   11      -15.929593   1.000000
   12      -15.830061   1.000000
   13      -15.800784   1.000000
   14      -15.729908   1.000000
   15      -15.607659   1.000000
   16      -15.581515   1.000000
   17      -15.458422   1.000000
   18      -15.345988   1.000000
   19       -9.771907   1.000000
   20       -9.342905   1.000000
   21       -9.176381   1.000000
   22       -9.052210   1.000000
   23       -8.874686   1.000000
   24       -8.771350   1.000000
   25       -8.632689   1.000000
   26       -8.533082   1.000000
   27       -8.365922   1.000000
   28       -8.342938   1.000000
   29       -8.237122   1.000000
   30       -8.141145   1.000000
   31       -8.115125   1.000000
   32       -8.008310   1.000000
   33       -7.884963   1.000000
   34       -7.872450   1.000000
   35       -7.780269   1.000000
   36       -7.730759   1.000000
   37       -7.506091   1.000000
   38       -7.482058   1.000000
   39       -7.355793   1.000000
   40       -7.256517   1.000000
   41       -7.148244   1.000000
   42       -7.053378   1.000000
   43       -7.009699   1.000000
   44       -6.884537   1.000000
   45       -6.851666   1.000000
   46       -6.784830   1.000000
   47       -6.737797   1.000000
   48       -6.577626   1.000000
   49       -6.536147   1.000000
   50       -6.469429   1.000000
   51       -6.431981   1.000000
   52       -6.357941   1.000000
   53       -6.264868   1.000000
   54       -6.192061   1.000000
   55       -6.133498   1.000000
   56       -6.086023   1.000000
   57       -6.051764   1.000000
   58       -5.951558   1.000000
   59       -5.900958   1.000000
   60       -5.852249   1.000000
   61       -5.750086   1.000000
   62       -5.721683   1.000000
   63       -5.613079   1.000000
   64       -5.399986   1.000000
   65       -5.353877   1.000000
   66       -5.175829   1.000000
   67       -5.060197   1.000000
   68       -4.874330   1.000000
   69       -4.806529   1.000000
   70       -4.679594   1.000000
   71       -4.529652   1.000000
   72       -4.488511   1.000000
   73       -4.428716   1.000000
   74       -4.310112   1.000000
   75       -4.240683   1.000000
   76       -4.014317   1.000000
   77       -3.887146   0.999985
   78       -3.651565   0.993815
   79       -3.395353   0.754819
   80       -3.150395   0.148618
   81       -3.017652   0.023795
   82       -2.887655   0.001864
   83       -2.667536   0.000004
   84       -2.544982   0.000000
   85       -2.484500   0.000000
   86       -2.455184   0.000000
   87       -2.313217   0.000000
   88       -2.238254   0.000000
   89       -2.043736   0.000000
   90       -1.972617   0.000000
   91       -1.789915   0.000000
   92       -1.596445   0.000000
   93       -1.483722   0.000000
   94       -1.331401   0.000000
   95       -1.209095   0.000000
   96       -1.141379   0.000000
   97       -1.104740   0.000000
   98       -1.074142   0.000000
   99       -1.012101   0.000000
  100       -0.932538   0.000000
  101       -0.793472   0.000000
  102       -0.768620   0.000000
  103       -0.689117   0.000000
  104       -0.643513   0.000000
  105       -0.435941   0.000000
  106       -0.383386   0.000000
  107       -0.233377   0.000000
  108       -0.203312   0.000000
  109       -0.001319   0.000000
  110        0.231848   0.000000
  111        0.569461   0.000000
  112        0.707667   0.000000
  113        0.774605   0.000000
  114        0.866231   0.000000
  115        1.056920   0.000000
  116        1.106718   0.000000
  117        1.297431   0.000000
  118        2.200490   0.000000
  119        2.238008   0.000000
  120        2.365664   0.000000
 
  0.0000000E+00  0.1250000E+00  0.0000000E+00  0.3125000E-01
    1      -17.760309   1.000000
    2      -16.768344   1.000000
    3      -16.660560   1.000000
    4      -16.612485   1.000000
    5      -16.519689   1.000000
    6      -16.440063   1.000000
    7      -16.360090   1.000000
    8      -16.266366   1.000000
    9      -16.179873   1.000000
   10      -16.088476   1.000000
   11      -16.043248   1.000000
   12      -15.985978   1.000000
   13      -15.859009   1.000000
   14      -15.686914   1.000000
   15      -15.633561   1.000000
   16      -15.508827   1.000000
   17      -15.470598   1.000000
   18      -15.297420   1.000000
   19       -9.218586   1.000000
   20       -9.128678   1.000000
   21       -8.973547   1.000000
   22       -8.940029   1.000000
   23       -8.789423   1.000000
   24       -8.710766   1.000000
   25       -8.683898   1.000000
   26       -8.572817   1.000000
   27       -8.497117   1.000000
   28       -8.459190   1.000000
   29       -8.382365   1.000000
   30       -8.239826   1.000000
   31       -8.152718   1.000000
   32       -8.062475   1.000000
   33       -7.985779   1.000000
   34       -7.897316   1.000000
   35       -7.854668   1.000000
   36       -7.746728   1.000000
   37       -7.695195   1.000000
   38       -7.582920   1.000000
   39       -7.484034   1.000000
   40       -7.412137   1.000000
   41       -7.275850   1.000000
   42       -7.221431   1.000000
   43       -7.164737   1.000000
   44       -7.015970   1.000000
   45       -6.881688   1.000000
   46       -6.831431   1.000000
   47       -6.743769   1.000000
   48       -6.614254   1.000000
   49       -6.570770   1.000000
   50       -6.496721   1.000000
   51       -6.432373   1.000000
   52       -6.369562   1.000000
   53       -6.342496   1.000000
   54       -6.278571   1.000000
   55       -6.209717   1.000000
   56       -6.157516   1.000000
   57       -6.003526   1.000000
   58       -5.852514   1.000000
   59       -5.708108   1.000000
   60       -5.638630   1.000000
   61       -5.513434   1.000000
   62       -5.443685   1.000000
   63       -5.337222   1.000000
   64       -5.241678   1.000000
   65       -5.165409   1.000000
   66       -5.077703   1.000000
   67       -4.997805   1.000000
   68       -4.884663   1.000000
   69       -4.854139   1.000000
   70       -4.708972   1.000000
   71       -4.642511   1.000000
   72       -4.575969   1.000000
   73       -4.448168   1.000000
   74       -4.229522   1.000000
   75       -4.117195   1.000000
   76       -3.966613   0.999999
   77       -3.882212   0.999982
   78       -3.747249   0.999259
   79       -3.550458   0.962990
   80       -3.455153   0.867056
   81       -3.127840   0.114708
   82       -2.841610   0.000628
   83       -2.678632   0.000006
   84       -2.613962   0.000001
   85       -2.513797   0.000000
   86       -2.408893   0.000000
   87       -2.337545   0.000000
   88       -2.285850   0.000000
   89       -2.190707   0.000000
   90       -2.058373   0.000000
   91       -1.893299   0.000000
   92       -1.663585   0.000000
   93       -1.519618   0.000000
   94       -1.296564   0.000000
   95       -1.185253   0.000000
   96       -1.055621   0.000000
   97       -0.952043   0.000000
   98       -0.859268   0.000000
   99       -0.789998   0.000000
  100       -0.694387   0.000000
  101       -0.626558   0.000000
  102       -0.563372   0.000000
  103       -0.523545   0.000000
  104       -0.495637   0.000000
  105       -0.302969   0.000000
  106       -0.190346   0.000000
  107       -0.122455   0.000000
  108       -0.038764   0.000000
  109        0.032968   0.000000
  110        0.244730   0.000000
  111        0.319384   0.000000
  112        0.480263   0.000000
  113        0.725003   0.000000
  114        0.867482   0.000000
  115        1.005332   0.000000
  116        1.101034   0.000000
  117        1.156647   0.000000
  118        1.674286   0.000000
  119        1.868089   0.000000
  120        2.170416   0.000000
 
  0.1250000E+00  0.1250000E+00  0.0000000E+00  0.3125000E-01
    1      -17.709622   1.000000
    2      -16.905285   1.000000
    3      -16.748781   1.000000
    4      -16.616318   1.000000
    5      -16.511723   1.000000
    6      -16.421635   1.000000
    7      -16.287912   1.000000
    8      -16.259984   1.000000
    9      -16.174663   1.000000
   10      -16.075618   1.000000
   11      -16.041936   1.000000
   12      -15.895859   1.000000
   13      -15.830352   1.000000
   14      -15.710554   1.000000
   15      -15.630714   1.000000
   16      -15.516698   1.000000
   17      -15.459992   1.000000
   18      -15.324413   1.000000
   19       -9.374057   1.000000
   20       -9.216151   1.000000
   21       -9.105065   1.000000
   22       -9.009101   1.000000
   23       -8.795444   1.000000
   24       -8.740797   1.000000
   25       -8.673778   1.000000
   26       -8.549914   1.000000
   27       -8.462386   1.000000
   28       -8.397338   1.000000
   29       -8.299838   1.000000
   30       -8.236169   1.000000
   31       -8.109076   1.000000
   32       -8.064604   1.000000
   33       -7.929182   1.000000
   34       -7.816972   1.000000
   35       -7.774128   1.000000
   36       -7.696290   1.000000
   37       -7.638260   1.000000
   38       -7.509629   1.000000
   39       -7.427015   1.000000
   40       -7.352073   1.000000
   41       -7.304456   1.000000
   42       -7.218654   1.000000
   43       -7.154518   1.000000
   44       -7.002918   1.000000
   45       -6.975929   1.000000
   46       -6.820958   1.000000
   47       -6.791837   1.000000
   48       -6.632366   1.000000
   49       -6.572383   1.000000
   50       -6.539210   1.000000
   51       -6.424533   1.000000
   52       -6.359271   1.000000
   53       -6.280372   1.000000
   54       -6.240280   1.000000
   55       -6.181213   1.000000
   56       -6.112669   1.000000
   57       -6.033824   1.000000
   58       -5.833818   1.000000
   59       -5.740134   1.000000
   60       -5.663872   1.000000
   61       -5.570244   1.000000
   62       -5.498736   1.000000
   63       -5.433694   1.000000
   64       -5.317297   1.000000
   65       -5.207001   1.000000
   66       -5.086065   1.000000
   67       -5.043287   1.000000
   68       -4.955202   1.000000
   69       -4.804505   1.000000
   70       -4.695583   1.000000
   71       -4.589305   1.000000
   72       -4.505340   1.000000
   73       -4.358716   1.000000
   74       -4.233829   1.000000
   75       -4.189041   1.000000
   76       -4.039062   1.000000
   77       -3.889240   0.999986
   78       -3.779809   0.999673
   79       -3.515185   0.937862
   80       -3.386145   0.733891
   81       -3.050690   0.040284
   82       -2.864946   0.001104
   83       -2.676037   0.000005
   84       -2.569998   0.000000
   85       -2.514257   0.000000
   86       -2.398615   0.000000
   87       -2.344808   0.000000
   88       -2.245868   0.000000
   89       -2.167233   0.000000
   90       -2.044700   0.000000
   91       -1.891108   0.000000
   92       -1.659454   0.000000
   93       -1.509579   0.000000
   94       -1.291802   0.000000
   95       -1.166366   0.000000
   96       -1.059427   0.000000
   97       -0.960081   0.000000
   98       -0.889553   0.000000
   99       -0.820023   0.000000
  100       -0.774732   0.000000
  101       -0.700986   0.000000
  102       -0.666330   0.000000
  103       -0.622231   0.000000
  104       -0.533048   0.000000
  105       -0.404370   0.000000
  106       -0.218922   0.000000
  107       -0.194405   0.000000
  108       -0.128012   0.000000
  109        0.052666   0.000000
  110        0.262779   0.000000
  111        0.427978   0.000000
  112        0.576037   0.000000
  113        0.754501   0.000000
  114        0.923258   0.000000
  115        1.008764   0.000000
  116        1.068285   0.000000
  117        1.156804   0.000000
  118        1.758652   0.000000
  119        1.941000   0.000000
  120        2.240275   0.000000
 
  0.2500000E+00  0.1250000E+00  0.0000000E+00  0.3125000E-01
    1      -17.611494   1.000000
    2      -17.087673   1.000000
    3      -16.859179   1.000000
    4      -16.604307   1.000000
    5      -16.506310   1.000000
    6      -16.402114   1.000000
    7      -16.265903   1.000000
    8      -16.215928   1.000000
    9      -16.125989   1.000000
   10      -16.086669   1.000000
   11      -15.992913   1.000000
   12      -15.873225   1.000000
   13      -15.772308   1.000000
   14      -15.726566   1.000000
   15      -15.626649   1.000000
   16      -15.538558   1.000000
   17      -15.447791   1.000000
   18      -15.350303   1.000000
   19       -9.597924   1.000000
   20       -9.364890   1.000000
   21       -9.169278   1.000000
   22       -9.020790   1.000000
   23       -8.814862   1.000000
   24       -8.745498   1.000000
   25       -8.617640   1.000000
   26       -8.483253   1.000000
   27       -8.420369   1.000000
   28       -8.350722   1.000000
   29       -8.271610   1.000000
   30       -8.201600   1.000000
   31       -8.098640   1.000000
   32       -8.052299   1.000000
   33       -7.957908   1.000000
   34       -7.896794   1.000000
   35       -7.788097   1.000000
   36       -7.577832   1.000000
   37       -7.543201   1.000000
   38       -7.462267   1.000000
   39       -7.379280   1.000000
   40       -7.309090   1.000000
   41       -7.238389   1.000000
   42       -7.154472   1.000000
   43       -7.078714   1.000000
   44       -6.961754   1.000000
   45       -6.891996   1.000000
   46       -6.786785   1.000000
   47       -6.736538   1.000000