       N       E                     dE             d eps       ncg     rms          rms(c)
DAV:   1     0.112384804985E+04    0.11238E+04   -0.35858E+04  8160   0.577E+02
DAV:   2     0.458921447600E+00   -0.11234E+04   -0.10787E+04 11040   0.173E+02
DAV:   3    -0.199653972945E+03   -0.20011E+03   -0.19181E+03 10960   0.823E+01
DAV:   4    -0.208886209113E+03   -0.92322E+01   -0.89448E+01 12000   0.260E+01
DAV:   5    -0.209222261677E+03   -0.33605E+00   -0.33512E+00 11440   0.375E+00    0.274E+01
DAV:   6    -0.236378536837E+03   -0.27156E+02   -0.11191E+02 12720   0.602E+01    0.592E+01
DAV:   7    -0.196820341289E+03    0.39558E+02   -0.17557E+02 13360   0.151E+02    0.206E+01
DAV:   8    -0.190299755635E+03    0.65206E+01   -0.21208E+01 11720   0.135E+01    0.140E+01
DAV:   9    -0.188295704044E+03    0.20041E+01   -0.37478E+00 12040   0.644E+00    0.935E+00
DAV:  10    -0.187100572648E+03    0.11951E+01   -0.17507E+00 13320   0.771E+00    0.325E+00
DAV:  11    -0.187014061941E+03    0.86511E-01   -0.66061E-01 12320   0.235E+00    0.243E+00
DAV:  12    -0.186975326040E+03    0.38736E-01   -0.37960E-01 12800   0.255E+00    0.275E+00
DAV:  13    -0.186929980758E+03    0.45345E-01   -0.19424E-01 13240   0.281E+00    0.205E+00
DAV:  14    -0.186891998983E+03    0.37982E-01   -0.95283E-02 12960   0.183E+00    0.614E-01
DAV:  15    -0.186887500031E+03    0.44990E-02   -0.15501E-02 11800   0.429E-01    0.491E-01
DAV:  16    -0.186887328330E+03    0.17170E-03   -0.10865E-02 13120   0.515E-01    0.588E-01
DAV:  17    -0.186885101677E+03    0.22267E-02   -0.10352E-02 12680   0.543E-01    0.297E-01
DAV:  18    -0.186883987718E+03    0.11140E-02   -0.26419E-03 12720   0.233E-01    0.187E-01
DAV:  19    -0.186883786841E+03    0.20088E-03   -0.87529E-04 11240   0.149E-01    0.477E-02
DAV:  20    -0.186884652911E+03   -0.86607E-03   -0.84509E-04  9120   0.584E-02    0.460E-02
DAV:  21    -0.186885409722E+03   -0.75681E-03   -0.22929E-04  8160   0.516E-02    0.336E-02
DAV:  22    -0.186886261709E+03   -0.85199E-03   -0.11907E-04  7240   0.315E-02    0.384E-02
DAV:  23    -0.186887505606E+03   -0.12439E-02   -0.15450E-04  7440   0.484E-02    0.222E-02
DAV:  24    -0.186888039251E+03   -0.53365E-03   -0.29718E-05  6800   0.234E-02    0.510E-03
DAV:  25    -0.186888446871E+03   -0.40762E-03   -0.20732E-05  5440   0.101E-02    0.526E-03
DAV:  26    -0.186888685248E+03   -0.23838E-03   -0.92109E-06  6840   0.804E-03    0.164E-03
DAV:  27    -0.186888772096E+03   -0.86849E-04   -0.31654E-06  7160   0.388E-03
   1 F= -.18688877E+03 E0= -.18671738E+03  d E =-.186889E+03
       N       E                     dE             d eps       ncg     rms          rms(c)
DAV:   1    -0.187544115642E+03   -0.65543E+00   -0.27354E+02  8160   0.352E+01    0.470E+00
DAV:   2    -0.189651498276E+03   -0.21074E+01   -0.20593E+01 12320   0.160E+01    0.103E+01
DAV:   3    -0.189341405441E+03    0.31009E+00   -0.45722E+00 12360   0.127E+01    0.619E+00
DAV:   4    -0.188806397757E+03    0.53501E+00   -0.57731E-01 12600   0.429E+00    0.187E+00
DAV:   5    -0.188958633231E+03   -0.15224E+00   -0.52313E-01 12360   0.371E+00    0.588E+00
DAV:   6    -0.188779340541E+03    0.17929E+00   -0.85426E-01 12800   0.448E+00    0.215E+00
DAV:   7    -0.188765892142E+03    0.13448E-01   -0.20565E-01 11640   0.227E+00    0.225E+00
DAV:   8    -0.188735902240E+03    0.29990E-01   -0.12745E-01 13000   0.213E+00    0.147E+00
DAV:   9    -0.188715957557E+03    0.19945E-01   -0.35909E-02 12400   0.950E-01    0.341E-01
DAV:  10    -0.188715245584E+03    0.71197E-03   -0.45763E-03 10840   0.224E-01    0.197E-01
DAV:  11    -0.188714736442E+03    0.50914E-03   -0.25213E-03 12520   0.163E-01    0.101E-01
DAV:  12    -0.188714879937E+03   -0.14350E-03   -0.78845E-04 11760   0.838E-02    0.891E-02
DAV:  13    -0.188714813610E+03    0.66327E-04   -0.25114E-04  7880   0.579E-02
   2 F= -.18871481E+03 E0= -.18857529E+03  d E =-.182604E+01
       N       E                     dE             d eps       ncg     rms          rms(c)
DAV:   1    -0.190645804098E+03   -0.19309E+01   -0.31671E+01  9080   0.143E+01    0.442E+00
DAV:   2    -0.190564742191E+03    0.81062E-01   -0.27498E+00 11120   0.928E+00    0.704E+00
DAV:   3    -0.190135616566E+03    0.42913E+00   -0.13625E+00 12320   0.856E+00    0.427E+00
DAV:   4    -0.189923208354E+03    0.21241E+00   -0.76155E-01 12760   0.437E+00    0.253E+00
DAV:   5    -0.189899993274E+03    0.23215E-01   -0.37914E-01 12240   0.307E+00    0.281E+00
DAV:   6    -0.189825931107E+03    0.74062E-01   -0.15560E-01 12360   0.251E+00    0.856E-01
DAV:   7    -0.189817286944E+03    0.86442E-02   -0.17674E-02 11760   0.629E-01    0.246E-01
DAV:   8    -0.189818310285E+03   -0.10233E-02   -0.50535E-03 12520   0.394E-01    0.402E-01
DAV:   9    -0.189817183476E+03    0.11268E-02   -0.27220E-03 11280   0.331E-01    0.138E-01
DAV:  10    -0.189817446486E+03   -0.26301E-03   -0.92232E-04 10080   0.122E-01    0.128E-01
DAV:  11    -0.189817231168E+03    0.21532E-03   -0.45098E-04  8600   0.765E-02    0.206E-02
DAV:  12    -0.189817254138E+03   -0.22970E-04   -0.76860E-05  6920   0.289E-02
   3 F= -.18981725E+03 E0= -.18969785E+03  d E =-.110244E+01
       N       E                     dE             d eps       ncg     rms          rms(c)
DAV:   1    -0.191415418353E+03   -0.15982E+01   -0.82487E+01  8160   0.206E+01    0.459E+00
DAV:   2    -0.191225904136E+03    0.18951E+00   -0.54482E+00 13160   0.749E+00    0.439E+00
DAV:   3    -0.191375646494E+03   -0.14974E+00   -0.16033E+00 12240   0.895E+00    0.657E+00
DAV:   4    -0.190998380276E+03    0.37727E+00   -0.13953E+00 12320   0.777E+00    0.299E+00
DAV:   5    -0.190920689326E+03    0.77691E-01   -0.39190E-01 12400   0.345E+00    0.252E+00
DAV:   6    -0.190869097853E+03    0.51591E-01   -0.21001E-01 12400   0.305E+00    0.160E+00
DAV:   7    -0.190846224143E+03    0.22874E-01   -0.61273E-02 12640   0.138E+00    0.418E-01
DAV:   8    -0.190844485848E+03    0.17383E-02   -0.85243E-03 11520   0.453E-01    0.349E-01
DAV:   9    -0.190843669124E+03    0.81672E-03   -0.27871E-03 10800   0.352E-01    0.176E-01
DAV:  10    -0.190843888865E+03   -0.21974E-03   -0.13619E-03 11240   0.161E-01    0.113E-01
DAV:  11    -0.190843700937E+03    0.18793E-03   -0.59735E-04 10320   0.887E-02    0.434E-02
DAV:  12    -0.190843707843E+03   -0.69065E-05   -0.10242E-04  7040   0.394E-02
   4 F= -.19084371E+03 E0= -.19073574E+03  d E =-.102645E+01
       N       E                     dE             d eps       ncg     rms          rms(c)
DAV:   1    -0.192145023094E+03   -0.13013E+01   -0.17162E+02  8160   0.290E+01    0.547E+00
DAV:   2    -0.191923594857E+03    0.22143E+00   -0.90966E+00 10880   0.769E+00    0.341E+00
DAV:   3    -0.191798579581E+03    0.12502E+00   -0.14608E+00 11840   0.609E+00    0.369E+00
DAV:   4    -0.191820960175E+03   -0.22381E-01   -0.10786E+00 12360   0.756E+00    0.435E+00
DAV:   5    -0.191551674883E+03    0.26929E+00   -0.43845E-01 12360   0.453E+00    0.812E-01
DAV:   6    -0.191541855274E+03    0.98196E-02   -0.79875E-02 11320   0.114E+00    0.523E-01
DAV:   7    -0.191545638841E+03   -0.37836E-02   -0.34609E-02 11880   0.109E+00    0.963E-01
DAV:   8    -0.191537323988E+03    0.83149E-02   -0.18490E-02 11560   0.827E-01    0.170E-01
DAV:   9    -0.191537845425E+03   -0.52144E-03   -0.24582E-03 11480   0.239E-01    0.231E-01
DAV:  10    -0.191537733356E+03    0.11207E-03   -0.26497E-03 11120   0.330E-01    0.214E-01
DAV:  11    -0.191537363402E+03    0.36995E-03   -0.10870E-03 10080   0.192E-01    0.544E-02
DAV:  12    -0.191537332809E+03    0.30593E-04   -0.11663E-04  6000   0.453E-02
   5 F= -.19153733E+03 E0= -.19142674E+03  d E =-.693625E+00
       N       E                     dE             d eps       ncg     rms          rms(c)
DAV:   1    -0.191610854793E+03   -0.73491E-01   -0.52863E+00  8160   0.486E+00    0.639E-01
DAV:   2    -0.191663210344E+03   -0.52356E-01   -0.28027E-01 13440   0.274E+00    0.205E+00
DAV:   3    -0.191622159145E+03    0.41051E-01   -0.98042E-02 12520   0.206E+00    0.458E-01
DAV:   4    -0.191625078532E+03   -0.29194E-02   -0.21504E-02 10280   0.918E-01    0.765E-01
DAV:   5    -0.191619162969E+03    0.59156E-02   -0.13255E-02 11120   0.742E-01    0.231E-01
DAV:   6    -0.191619904949E+03   -0.74198E-03   -0.52909E-03 11120   0.387E-01    0.382E-01
DAV:   7    -0.191618950871E+03    0.95408E-03   -0.46459E-03 11200   0.440E-01    0.217E-01
DAV:   8    -0.191618449398E+03    0.50147E-03   -0.10007E-03  9880   0.174E-01    0.337E-02
DAV:   9    -0.191618459452E+03   -0.10054E-04   -0.97901E-05  6320   0.345E-02
   6 F= -.19161846E+03 E0= -.19150693E+03  d E =-.811266E-01
       N       E                     dE             d eps       ncg     rms          rms(c)
DAV:   1    -0.191691775667E+03   -0.73326E-01   -0.53746E+00  8160   0.488E+00    0.541E-01
DAV:   2    -0.191726377834E+03   -0.34602E-01   -0.17945E-01 13040   0.190E+00    0.170E+00
DAV:   3    -0.191699060251E+03    0.27318E-01   -0.78513E-02 12480   0.178E+00    0.493E-01
DAV:   4    -0.191699629598E+03   -0.56935E-03   -0.15618E-02 10960   0.749E-01    0.563E-01
DAV:   5    -0.191696386286E+03    0.32433E-02   -0.79695E-03 11120   0.606E-01    0.202E-01
DAV:   6    -0.191696447939E+03   -0.61653E-04   -0.30446E-03 11400   0.290E-01    0.257E-01
DAV:   7    -0.191696454456E+03   -0.65172E-05   -0.34491E-03 10480   0.377E-01    0.264E-01
DAV:   8    -0.191695770891E+03    0.68356E-03   -0.12359E-03  9200   0.212E-01    0.282E-02
DAV:   9    -0.191695795233E+03   -0.24342E-04   -0.85879E-05  5960   0.331E-02
   7 F= -.19169580E+03 E0= -.19158441E+03  d E =-.773358E-01
       N       E                     dE             d eps       ncg     rms          rms(c)
DAV:   1    -0.191763551620E+03   -0.67781E-01   -0.43797E+00  8160   0.444E+00    0.547E-01
DAV:   2    -0.191807059093E+03   -0.43507E-01   -0.19226E-01 11720   0.233E+00    0.204E+00
DAV:   3    -0.191769329036E+03    0.37730E-01   -0.93570E-02 12440   0.192E+00    0.396E-01
DAV:   4    -0.191770752242E+03   -0.14232E-02   -0.13401E-02 11400   0.743E-01    0.565E-01
DAV:   5    -0.191767486916E+03    0.32653E-02   -0.82347E-03 11080   0.609E-01    0.230E-01
DAV:   6    -0.191768182570E+03   -0.69565E-03   -0.45103E-03 11720   0.404E-01    0.385E-01
DAV:   7    -0.191767128285E+03    0.10543E-02   -0.36582E-03 11200   0.394E-01    0.148E-01
DAV:   8    -0.191766814881E+03    0.31340E-03   -0.61515E-04  9680   0.121E-01    0.211E-02
DAV:   9    -0.191766827466E+03   -0.12585E-04   -0.65705E-05  6840   0.259E-02
   8 F= -.19176683E+03 E0= -.19165677E+03  d E =-.710322E-01
       N       E                     dE             d eps       ncg     rms          rms(c)
DAV:   1    -0.191905444463E+03   -0.13863E+00   -0.34586E+01  8160   0.125E+01    0.144E+00
DAV:   2    -0.192195212783E+03   -0.28977E+00   -0.13612E+00 11440   0.577E+00    0.540E+00
DAV:   3    -0.191960539804E+03    0.23467E+00   -0.72755E-01 12320   0.515E+00    0.112E+00
DAV:   4    -0.191973395019E+03   -0.12855E-01   -0.95708E-02 12200   0.202E+00    0.178E+00
DAV:   5    -0.191943290544E+03    0.30104E-01   -0.67450E-02 11360   0.173E+00    0.654E-01
DAV:   6    -0.191944671265E+03   -0.13807E-02   -0.22987E-02 11800   0.102E+00    0.789E-01
DAV:   7    -0.191939980917E+03    0.46903E-02   -0.19558E-02 11720   0.104E+00    0.385E-01
DAV:   8    -0.191937509078E+03    0.24718E-02   -0.39846E-03 11160   0.360E-01    0.616E-02
DAV:   9    -0.191937538083E+03   -0.29005E-04   -0.56732E-04 10200   0.724E-02
   9 F= -.19193754E+03 E0= -.19183378E+03  d E =-.170711E+00
       N       E                     dE             d eps       ncg     rms          rms(c)
DAV:   1    -0.191975538798E+03   -0.38030E-01   -0.23688E+00  8160   0.330E+00    0.480E-01
DAV:   2    -0.191994689754E+03   -0.19151E-01   -0.11752E-01 12200   0.164E+00    0.136E+00
DAV:   3    -0.191978694926E+03    0.15995E-01   -0.44468E-02 12320   0.140E+00    0.388E-01
DAV:   4    -0.191979467074E+03   -0.77215E-03   -0.96588E-03 12240   0.676E-01    0.538E-01
DAV:   5    -0.191977072474E+03    0.23946E-02   -0.81948E-03 11200   0.628E-01    0.305E-01
DAV:   6    -0.191977384962E+03   -0.31249E-03   -0.40494E-03 11520   0.442E-01    0.354E-01
DAV:   7    -0.191976190850E+03    0.11941E-02   -0.24165E-03 10920   0.357E-01    0.683E-02
DAV:   8    -0.191976128297E+03    0.62553E-04   -0.16709E-04  6120   0.659E-02
  10 F= -.19197613E+03 E0= -.19187338E+03  d E =-.385902E-01
       N       E                     dE             d eps       ncg     rms          rms(c)
DAV:   1    -0.192031247982E+03   -0.55057E-01   -0.89081E+00  8160   0.629E+00    0.689E-01
DAV:   2    -0.192087642446E+03   -0.56394E-01   -0.29687E-01 11760   0.254E+00    0.222E+00
DAV:   3    -0.192045225145E+03    0.42417E-01   -0.11221E-01 12280   0.223E+00    0.556E-01
DAV:   4    -0.192048549783E+03   -0.33246E-02   -0.18997E-02 11240   0.910E-01    0.882E-01
DAV:   5    -0.192041565139E+03    0.69846E-02   -0.14113E-02 10840   0.841E-01    0.284E-01
DAV:   6    -0.192041545137E+03    0.20002E-04   -0.36918E-03 12160   0.333E-01    0.237E-01
DAV:   7    -0.192041105559E+03    0.43958E-03   -0.25612E-03 11880   0.389E-01    0.178E-01
DAV:   8    -0.192040689451E+03    0.41611E-03   -0.70066E-04  9600   0.193E-01    0.300E-02
DAV:   9    -0.192040690425E+03   -0.97393E-06   -0.10085E-04  6800   0.374E-02
  11 F= -.19204069E+03 E0= -.19194069E+03  d E =-.645621E-01
       N       E                     dE             d eps       ncg     rms          rms(c)
DAV:   1    -0.192054910885E+03   -0.14221E-01   -0.60499E-01  8160   0.165E+00    0.173E-01
DAV:   2    -0.192055864777E+03   -0.95389E-03   -0.15168E-02 13320   0.426E-01    0.216E-01
DAV:   3    -0.192055763673E+03    0.10110E-03   -0.25755E-03 12280   0.370E-01    0.209E-01
DAV:   4    -0.192055451913E+03    0.31176E-03   -0.13931E-03  9960   0.248E-01    0.163E-01
DAV:   5    -0.192055382209E+03    0.69704E-04   -0.10512E-03  9120   0.227E-01    0.146E-01
DAV:   6    -0.192055225324E+03    0.15688E-03   -0.55937E-04  8720   0.151E-01    0.721E-02
DAV:   7    -0.192055233132E+03   -0.78079E-05   -0.25182E-04  8360   0.122E-01
  12 F= -.19205523E+03 E0= -.19195564E+03  d E =-.145427E-01
       N       E                     dE             d eps       ncg     rms          rms(c)
DAV:   1    -0.192057598465E+03   -0.23731E-02   -0.12298E-02  8160   0.247E-01    0.285E-02
DAV:   2    -0.192057659359E+03   -0.60895E-04   -0.36785E-04  9920   0.797E-02
  13 F= -.19205766E+03 E0= -.19195803E+03  d E =-.242623E-02
       N       E                     dE             d eps       ncg     rms          rms(c)
DAV:   1    -0.192086135048E+03   -0.28537E-01   -0.19563E+00  8160   0.293E+00    0.290E-01
DAV:   2    -0.192092244474E+03   -0.61094E-02   -0.50586E-02 11520   0.816E-01    0.627E-01
DAV:   3    -0.192089292588E+03    0.29519E-02   -0.12168E-02 12440   0.760E-01    0.316E-01
DAV:   4    -0.192089077521E+03    0.21507E-03   -0.31350E-03 11480   0.376E-01    0.301E-01
DAV:   5    -0.192088373578E+03    0.70394E-03   -0.22743E-03  9920   0.347E-01    0.167E-01
DAV:   6    -0.192088608479E+03   -0.23490E-03   -0.12621E-03 10360   0.258E-01    0.207E-01
DAV:   7    -0.192088167872E+03    0.44061E-03   -0.84752E-04 10040   0.235E-01    0.503E-02
DAV:   8    -0.192088130581E+03    0.37291E-04   -0.78562E-05  5920   0.528E-02
  14 F= -.19208813E+03 E0= -.19199021E+03  d E =-.304712E-01
       N       E                     dE             d eps       ncg     rms          rms(c)
DAV:   1    -0.192079867665E+03    0.83002E-02   -0.17540E-01  8160   0.895E-01    0.117E-01
DAV:   2    -0.192080345493E+03   -0.47783E-03   -0.68072E-03 11480   0.279E-01    0.189E-01
DAV:   3    -0.192080357557E+03   -0.12064E-04   -0.19183E-03 10400   0.292E-01    0.208E-01
DAV:   4    -0.192079939861E+03    0.41770E-03   -0.66903E-04  8160   0.170E-01    0.479E-02
DAV:   5    -0.192080001623E+03   -0.61762E-04   -0.25790E-04  7040   0.119E-01
  15 F= -.19208000E+03 E0= -.19198158E+03  d E =0.812896E-02
       N       E                     dE             d eps       ncg     rms          rms(c)
DAV:   1    -0.192110489422E+03   -0.30550E-01   -0.20140E+00  8160   0.301E+00    0.311E-01
DAV:   2    -0.192115780140E+03   -0.52907E-02   -0.50628E-02 11600   0.867E-01    0.601E-01
DAV:   3    -0.192113101094E+03    0.26790E-02   -0.11349E-02 12560   0.783E-01    0.320E-01
DAV:   4    -0.192111970506E+03    0.11306E-02   -0.24112E-03 11400   0.314E-01    0.124E-01
DAV:   5    -0.192112049009E+03   -0.78503E-04   -0.14301E-03 11960   0.225E-01    0.188E-01
DAV:   6    -0.192111969394E+03    0.79615E-04   -0.14529E-03 10240   0.278E-01    0.170E-01
DAV:   7    -0.192111793564E+03    0.17583E-03   -0.69272E-04  8320   0.182E-01    0.108E-01
DAV:   8    -0.192111674028E+03    0.11954E-03   -0.18467E-04  6480   0.110E-01    0.180E-02
DAV:   9    -0.192111675985E+03   -0.19572E-05   -0.28741E-05  6800   0.240E-02
  16 F= -.19211168E+03 E0= -.19201486E+03  d E =-.316744E-01
       N       E                     dE             d eps       ncg     rms          rms(c)
DAV:   1    -0.192137225427E+03   -0.25551E-01   -0.13256E+00  8160   0.243E+00    0.230E-01
DAV:   2    -0.192139407334E+03   -0.21819E-02   -0.32808E-02 11800   0.523E-01    0.219E-01
DAV:   3    -0.192140405530E+03   -0.99820E-03   -0.47230E-03 12200   0.488E-01    0.401E-01
DAV:   4    -0.192139052862E+03    0.13527E-02   -0.29533E-03 10160   0.395E-01    0.185E-01
DAV:   5    -0.192138922217E+03    0.13064E-03   -0.11230E-03  9600   0.250E-01    0.150E-01
DAV:   6    -0.192138803466E+03    0.11875E-03   -0.74404E-04 10400   0.183E-01    0.890E-02
DAV:   7    -0.192138788475E+03    0.14991E-04   -0.38242E-04  8760   0.153E-01
  17 F= -.19213879E+03 E0= -.19204338E+03  d E =-.271125E-01
       N       E                     dE             d eps       ncg     rms          rms(c)
DAV:   1    -0.192133258333E+03    0.55451E-02   -0.56131E-02  8160   0.522E-01    0.681E-02
DAV:   2    -0.192133594323E+03   -0.33599E-03   -0.23269E-03 11480   0.216E-01    0.161E-01
DAV:   3    -0.192133342077E+03    0.25225E-03   -0.58626E-04  8800   0.187E-01    0.645E-02
DAV:   4    -0.192133375743E+03   -0.33666E-04   -0.20611E-04  6680   0.107E-01
  18 F= -.19213338E+03 E0= -.19203759E+03  d E =0.541273E-02
       N       E                     dE             d eps       ncg     rms          rms(c)
DAV:   1    -0.192116882841E+03    0.16459E-01   -0.53445E-01  8160   0.156E+00    0.175E-01
DAV:   2    -0.192118828504E+03   -0.19457E-02   -0.15652E-02 12520   0.510E-01    0.391E-01
DAV:   3    -0.192117703174E+03    0.11253E-02   -0.42035E-03 11720   0.448E-01    0.188E-01
DAV:   4    -0.192117683910E+03    0.19263E-04   -0.11465E-03  9840   0.230E-01    0.195E-01
DAV:   5    -0.192117371681E+03    0.31223E-03   -0.81229E-04  8840   0.228E-01    0.942E-02
DAV:   6    -0.192117379312E+03   -0.76315E-05   -0.36750E-04  8560   0.116E-01
  19 F= -.19211738E+03 E0= -.19202081E+03  d E =0.159964E-01
       N       E                     dE             d eps       ncg     rms          rms(c)
DAV:   1    -0.192142431121E+03   -0.25059E-01   -0.16653E+00  8160   0.272E+00    0.250E-01
DAV:   2    -0.192145069032E+03   -0.26379E-02   -0.41671E-02 11880   0.574E-01    0.195E-01
DAV:   3    -0.192146142184E+03   -0.10732E-02   -0.49307E-03 11200   0.460E-01    0.416E-01
DAV:   4    -0.192144601888E+03    0.15403E-02   -0.29579E-03 10400   0.407E-01    0.153E-01
DAV:   5    -0.192144744509E+03   -0.14262E-03   -0.13090E-03  9720   0.239E-01    0.205E-01
DAV:   6    -0.192144440824E+03    0.30369E-03   -0.11142E-03 10200   0.242E-01    0.100E-01
DAV:   7    -0.192144406112E+03    0.34713E-04   -0.40023E-04  8480   0.146E-01
  20 F= -.19214441E+03 E0= -.19204903E+03  d E =-.270268E-01
       N       E                     dE             d eps       ncg     rms          rms(c)
DAV:   1    -0.192155216056E+03   -0.10775E-01   -0.22491E-01  8160   0.104E+00    0.130E-01
DAV:   2    -0.192155597828E+03   -0.38177E-03   -0.66648E-03 11640   0.249E-01    0.166E-01
DAV:   3    -0.192155800831E+03   -0.20300E-03   -0.18620E-03 11000   0.298E-01    0.238E-01
DAV:   4    -0.192155318249E+03    0.48258E-03   -0.90760E-04  8600   0.206E-01    0.755E-02
DAV:   5    -0.192155339863E+03   -0.21614E-04   -0.32574E-04  8080   0.136E-01
  21 F= -.19215534E+03 E0= -.19206113E+03  d E =-.109338E-01
       N       E                     dE             d eps       ncg     rms          rms(c)
DAV:   1    -0.192126033523E+03    0.29285E-01   -0.15415E+00  8160   0.266E+00    0.286E-01
DAV:   2    -0.192130695906E+03   -0.46624E-02   -0.42057E-02 12160   0.734E-01    0.572E-01
DAV:   3    -0.192128604177E+03    0.20917E-02   -0.96641E-03 12200   0.706E-01    0.356E-01
DAV:   4    -0.192127962782E+03    0.64139E-03   -0.35264E-03 10960   0.377E-01    0.253E-01
DAV:   5    -0.192127599430E+03    0.36335E-03   -0.22283E-03  9600   0.352E-01    0.196E-01
DAV:   6    -0.192127297706E+03    0.30172E-03   -0.10970E-03 10080   0.222E-01    0.889E-02
DAV:   7    -0.192127309467E+03   -0.11762E-04   -0.47008E-04  9160   0.161E-01
  22 F= -.19212731E+03 E0= -.19203098E+03  d E =0.280304E-01
       N       E                     dE             d eps       ncg     rms          rms(c)
DAV:   1    -0.192122137808E+03    0.51599E-02   -0.11356E+00  8160   0.230E+00    0.286E-01
DAV:   2    -0.192123982246E+03   -0.18444E-02   -0.25936E-02 12480   0.578E-01    0.444E-01
DAV:   3    -0.192123802472E+03    0.17977E-03   -0.98437E-03 11360   0.664E-01    0.435E-01
DAV:   4    -0.192122436276E+03    0.13662E-02   -0.39937E-03 11440   0.408E-01    0.225E-01
DAV:   5    -0.192122179151E+03    0.25713E-03   -0.19340E-03 10040   0.333E-01    0.197E-01
DAV:   6    -0.192121910096E+03    0.26905E-03   -0.10298E-03 10000   0.229E-01    0.103E-01
DAV:   7    -0.192121866053E+03    0.44043E-04   -0.44635E-04  9200   0.168E-01
  23 F= -.19212187E+03 E0= -.19202441E+03  d E =0.544341E-02
       N       E                     dE             d eps       ncg     rms          rms(c)
DAV:   1    -0.192153838439E+03   -0.31928E-01   -0.27698E+00  8160   0.361E+00    0.423E-01
DAV:   2    -0.192158402647E+03   -0.45642E-02   -0.81354E-02 11760   0.910E-01    0.507E-01
DAV:   3    -0.192159720555E+03   -0.13179E-02   -0.15355E-02 11960   0.932E-01    0.625E-01
DAV:   4    -0.192156019781E+03    0.37008E-02   -0.77968E-03 11760   0.653E-01    0.321E-01
DAV:   5    -0.192156116166E+03   -0.96385E-04   -0.48256E-03 10200   0.492E-01    0.360E-01
DAV:   6    -0.192155291094E+03    0.82507E-03   -0.34533E-03 11080   0.390E-01    0.197E-01
DAV:   7    -0.192155024902E+03    0.26619E-03   -0.12949E-03  9880   0.282E-01    0.120E-01
DAV:   8    -0.192154832343E+03    0.19256E-03   -0.29099E-04  8680   0.126E-01    0.235E-02
DAV:   9    -0.192154825344E+03    0.69993E-05   -0.39776E-05  6480   0.254E-02
  24 F= -.19215483E+03 E0= -.19205900E+03  d E =-.329593E-01
       N       E                     dE             d eps       ncg     rms          rms(c)
DAV:   1    -0.192173467718E+03   -0.18635E-01   -0.94579E-01  8160   0.206E+00    0.199E-01
DAV:   2    -0.192175558429E+03   -0.20907E-02   -0.25160E-02 11240   0.491E-01    0.292E-01
DAV:   3    -0.192175647544E+03   -0.89115E-04   -0.41610E-03 12520   0.460E-01    0.314E-01
DAV:   4    -0.192174784920E+03    0.86262E-03   -0.16408E-03  9680   0.274E-01    0.119E-01
DAV:   5    -0.192174862968E+03   -0.78048E-04   -0.80428E-04  9360   0.216E-01
  25 F= -.19217486E+03 E0= -.19207941E+03  d E =-.200376E-01
       N       E                     dE             d eps       ncg     rms          rms(c)
DAV:   1    -0.192179745457E+03   -0.49605E-02   -0.11026E-01  8160   0.757E-01    0.130E-01
DAV:   2    -0.192180860441E+03   -0.11150E-02   -0.51759E-03 11480   0.456E-01    0.324E-01
DAV:   3    -0.192179635205E+03    0.12252E-02   -0.19205E-03 10320   0.375E-01    0.874E-02
DAV:   4    -0.192179684178E+03   -0.48974E-04   -0.46726E-04  8440   0.156E-01
  26 F= -.19217968E+03 E0= -.19208522E+03  d E =-.482121E-02
       N       E                     dE             d eps       ncg     rms          rms(c)
DAV:   1    -0.192199016220E+03   -0.19381E-01   -0.13827E+00  8160   0.256E+00    0.392E-01
DAV:   2    -0.192206104711E+03   -0.70885E-02   -0.57721E-02 12360   0.123E+00    0.834E-01
DAV:   3    -0.192198962269E+03    0.71424E-02   -0.16171E-02 12000   0.101E+00    0.271E-01
DAV:   4    -0.192199967298E+03   -0.10050E-02   -0.54474E-03 12200   0.535E-01    0.504E-01
DAV:   5    -0.192197831362E+03    0.21359E-02   -0.47781E-03 11240   0.535E-01    0.205E-01
DAV:   6    -0.192197794063E+03    0.37298E-04   -0.20412E-03 10640   0.273E-01    0.204E-01
DAV:   7    -0.192197432344E+03    0.36172E-03   -0.10750E-03  9960   0.253E-01    0.873E-02
DAV:   8    -0.192197341134E+03    0.91210E-04   -0.16209E-04  6520   0.852E-02
  27 F= -.19219734E+03 E0= -.19210313E+03  d E =-.176570E-01
       N       E                     dE             d eps       ncg     rms          rms(c)
DAV:   1    -0.192220385966E+03   -0.22954E-01   -0.12538E+00  8160   0.240E+00    0.295E-01
DAV:   2    -0.192224614760E+03   -0.42288E-02   -0.42582E-02 11320   0.851E-01    0.535E-01
DAV:   3    -0.192222698390E+03    0.19164E-02   -0.89668E-03 12240   0.719E-01    0.349E-01
DAV:   4    -0.192222475058E+03    0.22333E-03   -0.42190E-03 11320   0.469E-01    0.334E-01
DAV:   5    -0.192221496646E+03    0.97841E-03   -0.24337E-03 10160   0.394E-01    0.146E-01
DAV:   6    -0.192221313508E+03    0.18314E-03   -0.84572E-04 10200   0.151E-01    0.612E-02
DAV:   7    -0.192221247041E+03    0.66467E-04   -0.20639E-04  8280   0.621E-02
  28 F= -.19222125E+03 E0= -.19212923E+03  d E =-.239059E-01
       N       E                     dE             d eps       ncg     rms          rms(c)
DAV:   1    -0.192234099590E+03   -0.12786E-01   -0.36693E-01  8160   0.130E+00    0.157E-01
DAV:   2    -0.192235521336E+03   -0.14217E-02   -0.12537E-02 11320   0.425E-01    0.317E-01
DAV:   3    -0.192234818836E+03    0.70250E-03   -0.30325E-03 12280   0.402E-01    0.182E-01
DAV:   4    -0.192234631962E+03    0.18687E-03   -0.78905E-04  8760   0.193E-01    0.134E-01
DAV:   5    -0.192234501852E+03    0.13011E-03   -0.44360E-04  8200   0.177E-01    0.810E-02
DAV:   6    -0.192234466137E+03    0.35715E-04   -0.19876E-04  6360   0.929E-02
  29 F= -.19223447E+03 E0= -.19214319E+03  d E =-.132191E-01
       N       E                     dE             d eps       ncg     rms          rms(c)
DAV:   1    -0.192279719300E+03   -0.45217E-01   -0.51724E+00  8160   0.490E+00    0.565E-01
DAV:   2    -0.192296946578E+03   -0.17227E-01   -0.16873E-01 11280   0.148E+00    0.103E+00
DAV:   3    -0.192290815874E+03    0.61307E-02   -0.32756E-02 12240   0.138E+00    0.693E-01
DAV:   4    -0.192286270021E+03    0.45459E-02   -0.91524E-03 12280   0.651E-01    0.308E-01
DAV:   5    -0.192286658177E+03   -0.38816E-03   -0.49305E-03 11520   0.584E-01    0.393E-01
DAV:   6    -0.192285505513E+03    0.11527E-02   -0.37247E-03 11800   0.487E-01    0.178E-01
DAV:   7    -0.192285065411E+03    0.44010E-03   -0.10299E-03 10560   0.207E-01    0.993E-02
DAV:   8    -0.192284960840E+03    0.10457E-03   -0.23938E-04  8720   0.125E-01    0.364E-02
DAV:   9    -0.192284943056E+03    0.17785E-04   -0.52969E-05  6520   0.454E-02
  30 F= -.19228494E+03 E0= -.19219732E+03  d E =-.504769E-01
       N       E                     dE             d eps       ncg     rms          rms(c)
DAV:   1    -0.192290670663E+03   -0.57098E-02   -0.10352E+00  8160   0.219E+00    0.265E-01
DAV:   2    -0.192293629340E+03   -0.29587E-02   -0.29009E-02 12360   0.780E-01    0.449E-01
DAV:   3    -0.192291729976E+03    0.18994E-02   -0.63989E-03 12240   0.656E-01    0.252E-01
DAV:   4    -0.192291731849E+03   -0.18731E-05   -0.24612E-03 11360   0.371E-01    0.287E-01
DAV:   5    -0.192291155805E+03    0.57604E-03   -0.19206E-03 10760   0.352E-01    0.173E-01
DAV:   6    -0.192290852988E+03    0.30282E-03   -0.77002E-04  9760   0.165E-01    0.505E-02
DAV:   7    -0.192290831279E+03    0.21709E-04   -0.14168E-04  6760   0.597E-02
  31 F= -.19229083E+03 E0= -.19220455E+03  d E =-.588822E-02
       N       E                     dE             d eps       ncg     rms          rms(c)
DAV:   1    -0.192266572208E+03    0.24281E-01   -0.52045E+00  8160   0.491E+00    0.584E-01
DAV:   2    -0.192283163388E+03   -0.16591E-01   -0.12564E-01 12400   0.162E+00    0.115E+00
DAV:   3    -0.192271569674E+03    0.11594E-01   -0.37971E-02 12120   0.154E+00    0.555E-01
DAV:   4    -0.192271520337E+03    0.49337E-04   -0.12636E-02 11960   0.799E-01    0.593E-01
DAV:   5    -0.192268556881E+03    0.29635E-02   -0.91404E-03 12360   0.756E-01    0.343E-01
DAV:   6    -0.192267995507E+03    0.56137E-03   -0.37135E-03 11320   0.448E-01    0.277E-01
DAV:   7    -0.192267740783E+03    0.25472E-03   -0.24866E-03 12080   0.418E-01    0.209E-01
DAV:   8    -0.192267172305E+03    0.56848E-03   -0.70021E-04  9800   0.192E-01    0.258E-02
DAV:   9    -0.192267176871E+03   -0.45662E-05   -0.66645E-05  6640   0.294E-02
  32 F= -.19226718E+03 E0= -.19217731E+03  d E =0.236544E-01
       N       E                     dE             d eps       ncg     rms          rms(c)
DAV:   1    -0.192277866106E+03   -0.10694E-01   -0.14584E+01  8160   0.826E+00    0.911E-01
DAV:   2    -0.192340730132E+03   -0.62864E-01   -0.49308E-01 11840   0.280E+00    0.208E+00
DAV:   3    -0.192307507107E+03    0.33223E-01   -0.10846E-01 12240   0.247E+00    0.898E-01
DAV:   4    -0.192300259060E+03    0.72480E-02   -0.19584E-02 12240   0.973E-01    0.560E-01
DAV:   5    -0.192298316544E+03    0.19425E-02   -0.12499E-02 12120   0.952E-01    0.472E-01
DAV:   6    -0.192296684580E+03    0.16320E-02   -0.87351E-03 12680   0.570E-01    0.230E-01
DAV:   7    -0.192295521199E+03    0.11634E-02   -0.25016E-03 11240   0.227E-01    0.969E-02
DAV:   8    -0.192295490414E+03    0.30785E-04   -0.45062E-04  9440   0.159E-01
  33 F= -.19229549E+03 E0= -.19220600E+03  d E =-.283135E-01
       N       E                     dE             d eps       ncg     rms          rms(c)
DAV:   1    -0.192303161554E+03   -0.76404E-02   -0.24813E+00  8160   0.339E+00    0.391E-01
DAV:   2    -0.192316927763E+03   -0.13766E-01   -0.94177E-02 12600   0.127E+00    0.985E-01
DAV:   3    -0.192308523959E+03    0.84038E-02   -0.21524E-02 12240   0.112E+00    0.345E-01
DAV:   4    -0.192307055116E+03    0.14688E-02   -0.23978E-03 11400   0.291E-01    0.116E-01
DAV:   5    -0.192307152298E+03   -0.97182E-04   -0.13821E-03 11400   0.187E-01    0.137E-01
DAV:   6    -0.192307082511E+03    0.69787E-04   -0.10550E-03 10640   0.262E-01    0.149E-01
DAV:   7    -0.192306818924E+03    0.26359E-03   -0.37817E-04  8800   0.159E-01    0.278E-02
DAV:   8    -0.192306824668E+03   -0.57439E-05   -0.53514E-05  5960   0.514E-02
  34 F= -.19230682E+03 E0= -.19221776E+03  d E =-.113343E-01
       N       E                     dE             d eps       ncg     rms          rms(c)
DAV:   1    -0.192316328170E+03   -0.95092E-02   -0.13821E+00  8160   0.253E+00    0.295E-01
DAV:   2    -0.192323330004E+03   -0.70018E-02   -0.56712E-02 12600   0.910E-01    0.639E-01
DAV:   3    -0.192319882781E+03    0.34472E-02   -0.11232E-02 12000   0.802E-01    0.300E-01
DAV:   4    -0.192319075280E+03    0.80750E-03   -0.21547E-03 11440   0.321E-01    0.172E-01
DAV:   5    -0.192318932460E+03    0.14282E-03   -0.11255E-03 11320   0.282E-01    0.146E-01
DAV:   6    -0.192318834502E+03    0.97958E-04   -0.78689E-04  9800   0.203E-01
  35 F= -.19231883E+03 E0= -.19223082E+03  d E =-.120098E-01
       N       E                     dE             d eps       ncg     rms          rms(c)
DAV:   1    -0.192325756060E+03   -0.68236E-02   -0.58189E-01  8160   0.165E+00    0.201E-01
DAV:   2    -0.192328150922E+03   -0.23949E-02   -0.21500E-02 11840   0.555E-01    0.348E-01
DAV:   3    -0.192327041717E+03    0.11092E-02   -0.38897E-03 11960   0.520E-01    0.189E-01
DAV:   4    -0.192326803187E+03    0.23853E-03   -0.96948E-04  9680   0.238E-01    0.146E-01
DAV:   5    -0.192326669248E+03    0.13394E-03   -0.61235E-04  9320   0.207E-01    0.993E-02
DAV:   6    -0.192326652326E+03    0.16922E-04   -0.36676E-04  8800   0.136E-01
  36 F= -.19232665E+03 E0= -.19223976E+03  d E =-.781782E-02
       N       E                     dE             d eps       ncg     rms          rms(c)
DAV:   1    -0.192335306852E+03   -0.86376E-02   -0.54118E+00  8160   0.501E+00    0.553E-01
DAV:   2    -0.192353006790E+03   -0.17700E-01   -0.19286E-01 12160   0.141E+00    0.808E-01
DAV:   3    -0.192350393936E+03    0.26129E-02   -0.31916E-02 11400   0.135E+00    0.720E-01
DAV:   4    -0.192346054614E+03    0.43393E-02   -0.12169E-02 12400   0.799E-01    0.385E-01
DAV:   5    -0.192344891184E+03    0.11634E-02   -0.45585E-03 11320   0.569E-01    0.250E-01
DAV:   6    -0.192344642425E+03    0.24876E-03   -0.25375E-03 11520   0.330E-01    0.168E-01
DAV:   7    -0.192344306749E+03    0.33568E-03   -0.12436E-03 11400   0.260E-01    0.135E-01
DAV:   8    -0.192344109775E+03    0.19697E-03   -0.35145E-04  9360   0.155E-01    0.325E-02
DAV:   9    -0.192344099314E+03    0.10461E-04   -0.47611E-05  6320   0.343E-02
  37 F= -.19234410E+03 E0= -.19225989E+03  d E =-.174470E-01
       N       E                     dE             d eps       ncg     rms          rms(c)
DAV:   1    -0.192348215457E+03   -0.41057E-02   -0.11033E+00  8160   0.225E+00    0.245E-01
DAV:   2    -0.192351853550E+03   -0.36381E-02   -0.40703E-02 11280   0.647E-01    0.336E-01
DAV:   3    -0.192351479350E+03    0.37420E-03   -0.63361E-03 12120   0.603E-01    0.309E-01
DAV:   4    -0.192350648992E+03    0.83036E-03   -0.23352E-03 11880   0.351E-01    0.169E-01
DAV:   5    -0.192350448149E+03    0.20084E-03   -0.90637E-04  9720   0.251E-01    0.117E-01
DAV:   6    -0.192350413131E+03    0.35018E-04   -0.51114E-04 10520   0.151E-01
  38 F= -.19235041E+03 E0= -.19226703E+03  d E =-.631382E-02
       N       E                     dE             d eps       ncg     rms          rms(c)
DAV:   1    -0.192352940043E+03   -0.24919E-02   -0.48601E-01  8160   0.150E+00    0.177E-01
DAV:   2    -0.192354645574E+03   -0.17055E-02   -0.18920E-02 11280   0.439E-01    0.252E-01
DAV:   3    -0.192354382375E+03    0.26320E-03   -0.28593E-03 12360   0.447E-01    0.214E-01
DAV:   4    -0.192353925472E+03    0.45690E-03   -0.74598E-04  9360   0.230E-01    0.974E-02
DAV:   5    -0.192353912157E+03    0.13314E-04   -0.39249E-04  9080   0.170E-01
  39 F= -.19235391E+03 E0= -.19227098E+03  d E =-.349903E-02
       N       E                     dE             d eps       ncg     rms          rms(c)
DAV:   1    -0.192354811847E+03   -0.88637E-03   -0.52969E-02  8160   0.511E-01    0.933E-02
DAV:   2    -0.192356160269E+03   -0.13484E-02   -0.38114E-03 12320   0.406E-01    0.349E-01
DAV:   3    -0.192354803228E+03    0.13570E-02   -0.22179E-03  9920   0.366E-01    0.564E-02
DAV:   4    -0.192354834719E+03   -0.31491E-04   -0.18066E-04  6920   0.971E-02
  40 F= -.19235483E+03 E0= -.19227181E+03  d E =-.922562E-03
       N       E                     dE             d eps       ncg     rms          rms(c)
DAV:   1    -0.192356126051E+03   -0.13228E-02   -0.78268E-02  8160   0.605E-01    0.798E-02
DAV:   2    -0.192356513156E+03   -0.38711E-03   -0.30879E-03 11800   0.231E-01    0.153E-01
DAV:   3    -0.192356274395E+03    0.23876E-03   -0.59281E-04 10120   0.210E-01    0.666E-02
DAV:   4    -0.192356253814E+03    0.20581E-04   -0.11282E-04  5760   0.917E-02
  41 F= -.19235625E+03 E0= -.19227327E+03  d E =-.141909E-02
       N       E                     dE             d eps       ncg     rms          rms(c)
DAV:   1    -0.192357808327E+03   -0.15339E-02   -0.64931E-02  8160   0.556E-01    0.899E-02
DAV:   2    -0.192358688146E+03   -0.87982E-03   -0.30598E-03 12200   0.325E-01    0.289E-01
DAV:   3    -0.192357825273E+03    0.86287E-03   -0.14705E-03 10120   0.301E-01    0.565E-02
DAV:   4    -0.192357845744E+03   -0.20471E-04   -0.12925E-04  6320   0.838E-02
  42 F= -.19235785E+03 E0= -.19227495E+03  d E =-.159193E-02
       N       E                     dE             d eps       ncg     rms          rms(c)
DAV:   1    -0.192359211551E+03   -0.13863E-02   -0.49822E-02  8160   0.494E-01    0.758E-02
DAV:   2    -0.192359544358E+03   -0.33281E-03   -0.19296E-03 12560   0.215E-01    0.163E-01
DAV:   3    -0.192359250253E+03    0.29411E-03   -0.65986E-04  8960   0.216E-01    0.682E-02
DAV:   4    -0.192359257792E+03   -0.75394E-05   -0.18377E-04  6360   0.105E-01
  43 F= -.19235926E+03 E0= -.19227607E+03  d E =-.141205E-02
       N       E                     dE             d eps       ncg     rms          rms(c)
DAV:   1    -0.192360740782E+03   -0.14905E-02   -0.54813E-02  8160   0.514E-01    0.817E-02
DAV:   2    -0.192361248124E+03   -0.50734E-03   -0.20814E-03 12400   0.261E-01    0.219E-01
DAV:   3    -0.192360752735E+03    0.49539E-03   -0.94158E-04  9840   0.252E-01    0.660E-02
DAV:   4    -0.192360746540E+03    0.61953E-05   -0.13949E-04  5840   0.860E-02
  44 F= -.19236075E+03 E0= -.19227781E+03  d E =-.148875E-02
       N       E                     dE             d eps       ncg     rms          rms(c)
DAV:   1    -0.192362012320E+03   -0.12596E-02   -0.38183E-02  8160   0.443E-01    0.846E-02
DAV:   2    -0.192362647528E+03   -0.63521E-03   -0.22466E-03 12320   0.300E-01    0.238E-01
DAV:   3    -0.192361986667E+03    0.66086E-03   -0.11070E-03 10040   0.280E-01    0.642E-02
DAV:   4    -0.192361999519E+03   -0.12852E-04   -0.18223E-04  6320   0.995E-02
  45 F= -.19236200E+03 E0= -.19227885E+03  d E =-.125298E-02
       N       E                     dE             d eps       ncg     rms          rms(c)
DAV:   1    -0.192364095505E+03   -0.21088E-02   -0.90929E-02  8160   0.661E-01    0.103E-01
DAV:   2    -0.192364956179E+03   -0.86067E-03   -0.34254E-03 12240   0.348E-01    0.282E-01
DAV:   3    -0.192364120479E+03    0.83570E-03   -0.14520E-03 10200   0.323E-01    0.799E-02
DAV:   4    -0.192364115518E+03    0.49616E-05   -0.25442E-04  7440   0.105E-01
  46 F= -.19236412E+03 E0= -.19228119E+03  d E =-.211600E-02
       N       E                     dE             d eps       ncg     rms          rms(c)
DAV:   1    -0.192363463493E+03    0.65699E-03   -0.27796E-02  8160   0.411E-01    0.115E-01
DAV:   2    -0.192364906828E+03   -0.14433E-02   -0.37720E-03 11440   0.491E-01    0.383E-01
DAV:   3    -0.192363201872E+03    0.17050E-02   -0.22506E-03 10240   0.419E-01    0.540E-02
DAV:   4    -0.192363241371E+03   -0.39498E-04   -0.24512E-04  7920   0.110E-01
  47 F= -.19236324E+03 E0= -.19228012E+03  d E =0.874147E-03
       N       E                     dE             d eps       ncg     rms          rms(c)
DAV:   1    -0.192365580347E+03   -0.23785E-02   -0.12525E-01  8160   0.772E-01    0.113E-01
DAV:   2    -0.192367146991E+03   -0.15666E-02   -0.55159E-03 11760   0.445E-01    0.361E-01
DAV:   3    -0.192365699359E+03    0.14476E-02   -0.19939E-03 10640   0.389E-01    0.724E-02
DAV:   4    -0.192365741491E+03   -0.42132E-04   -0.29511E-04  8160   0.127E-01
  48 F= -.19236574E+03 E0= -.19228267E+03  d E =-.250012E-02
       N       E                     dE             d eps       ncg     rms          rms(c)
DAV:   1    -0.192365324578E+03    0.37478E-03   -0.49935E-03 10960   0.209E-01    0.534E-02
DAV:   2    -0.192365755843E+03   -0.43127E-03   -0.10305E-03 10840   0.240E-01    0.200E-01
DAV:   3    -0.192365287099E+03    0.46874E-03   -0.65200E-04  8480   0.211E-01    0.298E-02
DAV:   4    -0.192365304581E+03   -0.17482E-04   -0.51267E-05  5600   0.510E-02
  49 F= -.19236530E+03 E0= -.19228256E+03  d E =0.436910E-03
       N       E                     dE             d eps       ncg     rms          rms(c)
DAV:   1    -0.192368843654E+03   -0.35566E-02   -0.20900E-01  8160   0.988E-01    0.140E-01
DAV:   2    -0.192370207996E+03   -0.13643E-02   -0.68942E-03 10800   0.481E-01    0.342E-01
DAV:   3    -0.192368913535E+03    0.12945E-02   -0.21441E-03 11240   0.405E-01    0.105E-01
DAV:   4    -0.192368979984E+03   -0.66450E-04   -0.57117E-04  8480   0.185E-01
  50 F= -.19236898E+03 E0= -.19228610E+03  d E =-.367540E-02
       N       E                     dE             d eps       ncg     rms          rms(c)
DAV:   1    -0.192369206812E+03   -0.29328E-03   -0.27192E-03 12000   0.209E-01    0.768E-02
DAV:   2    -0.192370139219E+03   -0.93241E-03   -0.19654E-03 10960   0.335E-01    0.292E-01
DAV:   3    -0.192369147701E+03    0.99152E-03   -0.14284E-03 10000   0.302E-01    0.531E-02
DAV:   4    -0.192369141779E+03    0.59225E-05   -0.84771E-05  5520   0.702E-02
  51 F= -.19236914E+03 E0= -.19228674E+03  d E =-.161794E-03
       N       E                     dE             d eps       ncg     rms          rms(c)
DAV:   1    -0.192373394140E+03   -0.42464E-02   -0.26526E-01  8160   0.111E+00    0.147E-01
DAV:   2    -0.192374589996E+03   -0.11959E-02   -0.72120E-03 11880   0.411E-01    0.323E-01
DAV:   3    -0.192373583116E+03    0.10069E-02   -0.23074E-03 11760   0.404E-01    0.131E-01
DAV:   4    -0.192373519350E+03    0.63766E-04   -0.55022E-04  8920   0.165E-01
  52 F= -.19237352E+03 E0= -.19229120E+03  d E =-.437757E-02
       N       E                     dE             d eps       ncg     rms          rms(c)
DAV:   1    -0.192368427761E+03    0.51554E-02   -0.34196E-01  8160   0.127E+00    0.159E-01
DAV:   2    -0.192371540398E+03   -0.31126E-02   -0.10447E-02 12240   0.641E-01    0.506E-01
DAV:   3    -0.192368582822E+03    0.29576E-02   -0.40333E-03 11360   0.569E-01    0.774E-02
DAV:   4    -0.192368625369E+03   -0.42547E-04   -0.30127E-04  8680   0.125E-01
  53 F= -.19236863E+03 E0= -.19228648E+03  d E =0.489398E-02
       N       E                     dE             d eps       ncg     rms          rms(c)
DAV:   1    -0.192362716480E+03    0.58663E-02   -0.72896E-01  8160   0.185E+00    0.235E-01
DAV:   2    -0.192364240233E+03   -0.15238E-02   -0.15774E-02 12200   0.513E-01    0.370E-01
DAV:   3    -0.192363416681E+03    0.82355E-03   -0.50887E-03 12120   0.583E-01    0.283E-01
DAV:   4    -0.192362854542E+03    0.56214E-03   -0.18482E-03 11760   0.318E-01    0.160E-01
DAV:   5    -0.192362722752E+03    0.13179E-03   -0.11242E-03  9920   0.274E-01    0.152E-01
DAV:   6    -0.192362502771E+03    0.21998E-03   -0.68425E-04  9520   0.195E-01    0.629E-02
DAV:   7    -0.192362499199E+03    0.35719E-05   -0.18930E-04  7080   0.110E-01
  54 F= -.19236250E+03 E0= -.19227995E+03  d E =0.612617E-02
       N       E                     dE             d eps       ncg     rms          rms(c)
DAV:   1    -0.192352832849E+03    0.96699E-02   -0.29239E+00  8160   0.370E+00    0.444E-01
DAV:   2    -0.192363405496E+03   -0.10573E-01   -0.69995E-02 11640   0.128E+00    0.947E-01
DAV:   3    -0.192355332806E+03    0.80727E-02   -0.21974E-02 12200   0.122E+00    0.409E-01
DAV:   4    -0.192354874091E+03    0.45872E-03   -0.57369E-03 11800   0.551E-01    0.352E-01
DAV:   5    -0.192353714744E+03    0.11593E-02   -0.39217E-03 11080   0.521E-01    0.227E-01
DAV:   6    -0.192353282870E+03    0.43187E-03   -0.20387E-03 12040   0.296E-01    0.121E-01
DAV:   7    -0.192353309227E+03   -0.26357E-04   -0.80100E-04 10400   0.232E-01
  55 F= -.19235331E+03 E0= -.19227057E+03  d E =0.918997E-02
       N       E                     dE             d eps       ncg     rms          rms(c)
DAV:   1    -0.192350587022E+03    0.26958E-02   -0.30424E-01  8160   0.119E+00    0.152E-01
DAV:   2    -0.192352515325E+03   -0.19283E-02   -0.12113E-02 11760   0.485E-01    0.371E-01
DAV:   3    -0.192351201325E+03    0.13140E-02   -0.33335E-03 12400   0.447E-01    0.129E-01
DAV:   4    -0.192351090959E+03    0.11037E-03   -0.38522E-04  8600   0.134E-01    0.767E-02
DAV:   5    -0.192351060966E+03    0.29992E-04   -0.23765E-04  8480   0.126E-01
  56 F= -.19235106E+03 E0= -.19226832E+03  d E =0.224826E-02
       N       E                     dE             d eps       ncg     rms          rms(c)
DAV:   1    -0.192344530633E+03    0.65603E-02   -0.19406E+00  8160   0.301E+00    0.370E-01
DAV:   2    -0.192352924776E+03   -0.83941E-02   -0.52154E-02 12120   0.111E+00    0.851E-01
DAV:   3    -0.192346256639E+03    0.66681E-02   -0.15700E-02 12200   0.103E+00    0.307E-01
DAV:   4    -0.192345532591E+03    0.72405E-03   -0.25981E-03 11200   0.337E-01    0.199E-01
DAV:   5    -0.192345484695E+03    0.47896E-04   -0.19945E-03 11040   0.384E-01    0.212E-01
DAV:   6    -0.192345115764E+03    0.36893E-03   -0.12463E-03 10320   0.272E-01    0.895E-02
DAV:   7    -0.192345030418E+03    0.85347E-04   -0.32788E-04  8960   0.136E-01
  57 F= -.19234503E+03 E0= -.19226256E+03  d E =0.603055E-02
       N       E                     dE             d eps       ncg     rms          rms(c)
DAV:   1    -0.192355874836E+03   -0.10759E-01   -0.67664E+00  8160   0.562E+00    0.715E-01
DAV:   2    -0.192400208903E+03   -0.44334E-01   -0.20626E-01 12200   0.240E+00    0.200E+00
DAV:   3    -0.192361565631E+03    0.38643E-01   -0.89183E-02 12200   0.224E+00    0.551E-01
DAV:   4    -0.192360838857E+03    0.72677E-03   -0.11044E-02 11320   0.759E-01    0.519E-01
DAV:   5    -0.192358328582E+03    0.25103E-02   -0.85279E-03 12120   0.809E-01    0.329E-01
DAV:   6    -0.192357554521E+03    0.77406E-03   -0.35691E-03 11920   0.436E-01    0.191E-01
DAV:   7    -0.192357408939E+03    0.14558E-03   -0.16400E-03 10720   0.345E-01    0.184E-01
DAV:   8    -0.192356987329E+03    0.42161E-03   -0.61883E-04 10120   0.207E-01    0.349E-02
DAV:   9    -0.192356976650E+03    0.10679E-04   -0.63692E-05  6440   0.355E-02
  58 F= -.19235698E+03 E0= -.19227406E+03  d E =-.119462E-01
       N       E                     dE             d eps       ncg     rms          rms(c)
DAV:   1    -0.192360946806E+03   -0.39595E-02   -0.48102E-01  8160   0.150E+00    0.187E-01
DAV:   2    -0.192362822075E+03   -0.18753E-02   -0.12278E-02 12360   0.500E-01    0.404E-01
DAV:   3    -0.192361311025E+03    0.15111E-02   -0.42348E-03 12360   0.519E-01    0.181E-01
DAV:   4    -0.192361101854E+03    0.20917E-03   -0.90135E-04 10240   0.199E-01    0.115E-01
DAV:   5    -0.192361031655E+03    0.70199E-04   -0.59263E-04 10200   0.206E-01
  59 F= -.19236103E+03 E0= -.19227838E+03  d E =-.405501E-02
       N       E                     dE             d eps       ncg     rms          rms(c)
DAV:   1    -0.192360291392E+03    0.81046E-03   -0.15367E-02  8160   0.296E-01    0.505E-02
DAV:   2    -0.192360620385E+03   -0.32899E-03   -0.10530E-03 11880   0.199E-01    0.157E-01
DAV:   3    -0.192360305591E+03    0.31479E-03   -0.49332E-04  8840   0.193E-01    0.454E-02
DAV:   4    -0.192360286453E+03    0.19139E-04   -0.57090E-05  5760   0.509E-02
  60 F= -.19236029E+03 E0= -.19227737E+03  d E =0.745203E-03
       N       E                     dE             d eps       ncg     rms          rms(c)
DAV:   1    -0.192361183430E+03   -0.87784E-03   -0.43862E-02  8160   0.449E-01    0.588E-02
DAV:   2    -0.192361603260E+03   -0.41983E-03   -0.18960E-03 12600   0.245E-01    0.178E-01
DAV:   3    -0.192361228801E+03    0.37446E-03   -0.58898E-04  8840   0.196E-01    0.343E-02
DAV:   4    -0.192361257928E+03   -0.29127E-04   -0.77928E-05  5720   0.760E-02
  61 F= -.19236126E+03 E0= -.19227838E+03  d E =-.971476E-03
       N       E                     dE             d eps       ncg     rms          rms(c)
DAV:   1    -0.192362632603E+03   -0.14038E-02   -0.59445E-02  8160   0.535E-01    0.752E-02
DAV:   2    -0.192362951862E+03   -0.31926E-03   -0.19576E-03 12280   0.221E-01    0.168E-01
DAV:   3    -0.192362669598E+03    0.28226E-03   -0.76348E-04  9880   0.214E-01    0.663E-02
DAV:   4    -0.192362656896E+03    0.12702E-04   -0.13095E-04  5640   0.848E-02
  62 F= -.19236266E+03 E0= -.19227992E+03  d E =-.139897E-02
       N       E                     dE             d eps       ncg     rms          rms(c)
DAV:   1    -0.192363755462E+03   -0.10859E-02   -0.33791E-02  8160   0.419E-01    0.868E-02
DAV:   2    -0.192364733915E+03   -0.97845E-03   -0.25041E-03 12240   0.362E-01    0.300E-01
DAV:   3    -0.192363717406E+03    0.10165E-02   -0.12804E-03 10080   0.317E-01    0.514E-02
DAV:   4    -0.192363744391E+03   -0.26985E-04   -0.15154E-04  6360   0.927E-02
  63 F= -.19236374E+03 E0= -.19228073E+03  d E =-.108749E-02
       N       E                     dE             d eps       ncg     rms          rms(c)
DAV:   1    -0.192363610408E+03    0.10700E-03   -0.42364E-04 10480   0.106E-01    0.348E-02
DAV:   2    -0.192363840446E+03   -0.23004E-03   -0.47719E-04  9360   0.177E-01    0.142E-01
DAV:   3    -0.192363595871E+03    0.24458E-03   -0.32093E-04  7880   0.152E-01    0.202E-02
DAV:   4    -0.192363601492E+03   -0.56212E-05   -0.19046E-05  5440   0.269E-02
  64 F= -.19236360E+03 E0= -.19228081E+03  d E =0.142898E-03
       N       E                     dE             d eps       ncg     rms          rms(c)
DAV:   1    -0.192366252987E+03   -0.26571E-02   -0.15838E-01  8160   0.857E-01    0.102E-01
DAV:   2    -0.192366631060E+03   -0.37807E-03   -0.36815E-03 10880   0.241E-01    0.165E-01
DAV:   3    -0.192366422670E+03    0.20839E-03   -0.86947E-04 11000   0.255E-01    0.110E-01
DAV:   4    -0.192366346474E+03    0.76196E-04   -0.26790E-04  8080   0.129E-01
  65 F= -.19236635E+03 E0= -.19228346E+03  d E =-.274498E-02
       N       E                     dE             d eps       ncg     rms          rms(c)
DAV:   1    -0.192361634521E+03    0.47881E-02   -0.47116E-01  8160   0.149E+00    0.169E-01
DAV:   2    -0.192363057201E+03   -0.14227E-02   -0.11045E-02 12360   0.462E-01    0.319E-01
DAV:   3    -0.192362056790E+03    0.10004E-02   -0.32151E-03 12320   0.463E-01    0.155E-01
DAV:   4    -0.192361944133E+03    0.11266E-03   -0.82415E-04  9120   0.202E-01    0.124E-01
DAV:   5    -0.192361814953E+03    0.12918E-03   -0.48792E-04  8480   0.187E-01    0.842E-02
DAV:   6    -0.192361784175E+03    0.30778E-04   -0.22592E-04  7840   0.116E-01
  66 F= -.19236178E+03 E0= -.19227900E+03  d E =0.456230E-02
       N       E                     dE             d eps       ncg     rms          rms(c)
DAV:   1    -0.192364043749E+03   -0.22288E-02   -0.13119E-01  8160   0.797E-01    0.133E-01
DAV:   2    -0.192365122398E+03   -0.10786E-02   -0.55220E-03 11400   0.446E-01    0.333E-01
DAV:   3    -0.192363957763E+03    0.11646E-02   -0.23849E-03 11400   0.407E-01    0.112E-01
DAV:   4    -0.192363891877E+03    0.65886E-04   -0.43753E-04  8560   0.159E-01
  67 F= -.19236389E+03 E0= -.19228095E+03  d E =-.210770E-02
       N       E                     dE             d eps       ncg     rms          rms(c)
DAV:   1    -0.192365164978E+03   -0.12072E-02   -0.38588E-02  8160   0.448E-01    0.102E-01
DAV:   2    -0.192366692329E+03   -0.15274E-02   -0.35732E-03 12240   0.450E-01    0.368E-01
DAV:   3    -0.192365095916E+03    0.15964E-02   -0.21341E-03 10160   0.393E-01    0.656E-02
DAV:   4    -0.192365128526E+03   -0.32610E-04   -0.22165E-04  7560   0.115E-01
  68 F= -.19236513E+03 E0= -.19228206E+03  d E =-.123665E-02
       N       E                     dE             d eps       ncg     rms          rms(c)
DAV:   1    -0.192362438389E+03    0.26575E-02   -0.15236E-01  8160   0.844E-01    0.978E-02
DAV:   2    -0.192363268576E+03   -0.83019E-03   -0.42217E-03 12280   0.358E-01    0.245E-01
DAV:   3    -0.192362547322E+03    0.72125E-03   -0.11422E-03 10040   0.294E-01    0.572E-02
DAV:   4    -0.192362612275E+03   -0.64953E-04   -0.22415E-04  7320   0.118E-01
  69 F= -.19236261E+03 E0= -.19227990E+03  d E =0.251625E-02
       N       E                     dE             d eps       ncg     rms          rms(c)
DAV:   1    -0.192365180518E+03   -0.26332E-02   -0.17458E-01  8160   0.908E-01    0.118E-01
DAV:   2    -0.192366413254E+03   -0.12327E-02   -0.60635E-03 12240   0.460E-01    0.307E-01
DAV:   3    -0.192365304430E+03    0.11088E-02   -0.16750E-03 11000   0.359E-01    0.708E-02
DAV:   4    -0.192365384697E+03   -0.80267E-04   -0.35454E-04  8240   0.150E-01
  70 F= -.19236538E+03 E0= -.19228238E+03  d E =-.277242E-02
       N       E                     dE             d eps       ncg     rms          rms(c)
DAV:   1    -0.192366265463E+03   -0.96103E-03   -0.22457E-02  8160   0.350E-01    0.664E-02
DAV:   2    -0.192366633138E+03   -0.36768E-03   -0.12577E-03 12120   0.212E-01    0.189E-01
DAV:   3    -0.192366252617E+03    0.38052E-03   -0.74008E-04  8920   0.212E-01    0.542E-02
DAV:   4    -0.192366242805E+03    0.98116E-05   -0.89042E-05  5520   0.597E-02
  71 F= -.19236624E+03 E0= -.19228365E+03  d E =-.858108E-03
       N       E                     dE             d eps       ncg     rms          rms(c)
DAV:   1    -0.192365160845E+03    0.10918E-02   -0.24545E-02  8160   0.343E-01    0.471E-02
DAV:   2    -0.192365431031E+03   -0.27019E-03   -0.91370E-04 11000   0.194E-01    0.146E-01
DAV:   3    -0.192365167854E+03    0.26318E-03   -0.36790E-04  8640   0.163E-01    0.253E-02
DAV:   4    -0.192365188870E+03   -0.21016E-04   -0.50470E-05  5440   0.582E-02
  72 F= -.19236519E+03 E0= -.19228252E+03  d E =0.105393E-02
       N       E                     dE             d eps       ncg     rms          rms(c)
DAV:   1    -0.192367625687E+03   -0.24578E-02   -0.12328E-01  8160   0.765E-01    0.954E-02
DAV:   2    -0.192367793308E+03   -0.16762E-03   -0.31935E-03 11400   0.198E-01    0.119E-01
DAV:   3    -0.192367800526E+03   -0.72184E-05   -0.77022E-04 10120   0.229E-01
  73 F= -.19236780E+03 E0= -.19228533E+03  d E =-.261166E-02
       N       E                     dE             d eps       ncg     rms          rms(c)
DAV:   1    -0.192367799792E+03   -0.64839E-05   -0.37568E-03 10880   0.186E-01    0.483E-02
DAV:   2    -0.192367935557E+03   -0.13577E-03   -0.38782E-04  8400   0.142E-01    0.114E-01
DAV:   3    -0.192367774889E+03    0.16067E-03   -0.27911E-04  8240   0.146E-01    0.440E-02
DAV:   4    -0.192367769111E+03    0.57784E-05   -0.72552E-05  5440   0.652E-02
  74 F= -.19236777E+03 E0= -.19228517E+03  d E =0.314155E-04
       N       E                     dE             d eps       ncg     rms          rms(c)
DAV:   1    -0.192371238080E+03   -0.34632E-02   -0.19991E-01  8160   0.967E-01    0.130E-01
DAV:   2    -0.192372128110E+03   -0.89003E-03   -0.55872E-03 11960   0.414E-01    0.265E-01
DAV:   3    -0.192371334646E+03    0.79346E-03   -0.15851E-03 11360   0.348E-01    0.962E-02
DAV:   4    -0.192371351093E+03   -0.16447E-04   -0.39668E-04  8280   0.152E-01
  75 F= -.19237135E+03 E0= -.19228875E+03  d E =-.358198E-02
       N       E                     dE             d eps       ncg     rms          rms(c)
DAV:   1    -0.192370113654E+03    0.12210E-02   -0.20030E-02  8160   0.344E-01    0.782E-02
DAV:   2    -0.192371501073E+03   -0.13874E-02   -0.27905E-03 11680   0.402E-01    0.356E-01
DAV:   3    -0.192370084113E+03    0.14170E-02   -0.18122E-03  9840   0.345E-01    0.418E-02
DAV:   4    -0.192370095688E+03   -0.11575E-04   -0.61315E-05  5560   0.603E-02
  76 F= -.19237010E+03 E0= -.19228764E+03  d E =0.125540E-02
       N       E                     dE             d eps       ncg     rms          rms(c)
DAV:   1    -0.192365289625E+03    0.47945E-02   -0.50215E-01  8160   0.153E+00    0.190E-01
DAV:   2    -0.192366196459E+03   -0.90683E-03   -0.10458E-02 12600   0.453E-01    0.280E-01
DAV:   3    -0.192365497677E+03    0.69878E-03   -0.26894E-03 12040   0.447E-01    0.180E-01
DAV:   4    -0.192365252297E+03    0.24538E-03   -0.10488E-03  9800   0.230E-01    0.116E-01
DAV:   5    -0.192365177378E+03    0.74919E-04   -0.59276E-04  9360   0.197E-01
  77 F= -.19236518E+03 E0= -.19228254E+03  d E =0.491831E-02
       N       E                     dE             d eps       ncg     rms          rms(c)
DAV:   1    -0.192361931564E+03    0.33207E-02   -0.21918E-01  8160   0.102E+00    0.151E-01
DAV:   2    -0.192363093600E+03   -0.11620E-02   -0.70202E-03 11600   0.451E-01    0.329E-01
DAV:   3    -0.192361931453E+03    0.11621E-02   -0.23377E-03 11280   0.410E-01    0.114E-01
DAV:   4    -0.192362064237E+03   -0.13278E-03   -0.77282E-04  9280   0.218E-01    0.165E-01
DAV:   5    -0.192361792825E+03    0.27141E-03   -0.64193E-04  9960   0.203E-01    0.652E-02
DAV:   6    -0.192361754425E+03    0.38400E-04   -0.16463E-04  5880   0.702E-02
  78 F= -.19236175E+03 E0= -.19227906E+03  d E =0.342295E-02
       N       E                     dE             d eps       ncg     rms          rms(c)
DAV:   1    -0.192355129546E+03    0.66633E-02   -0.11688E+00  8160   0.233E+00    0.275E-01
DAV:   2    -0.192357120782E+03   -0.19912E-02   -0.24745E-02 11320   0.570E-01    0.373E-01
DAV:   3    -0.192356436691E+03    0.68409E-03   -0.68151E-03 12320   0.663E-01    0.328E-01
DAV:   4    -0.192355770102E+03    0.66659E-03   -0.28543E-03 11840   0.405E-01    0.220E-01
DAV:   5    -0.192355442913E+03    0.32719E-03   -0.16809E-03 10080   0.332E-01    0.170E-01
DAV:   6    -0.192355178206E+03    0.26471E-03   -0.87353E-04 10480   0.196E-01    0.678E-02
DAV:   7    -0.192355169916E+03    0.82905E-05   -0.23081E-04  8080   0.112E-01
  79 F= -.19235517E+03 E0= -.19227251E+03  d E =0.658451E-02
       N       E                     dE             d eps       ncg     rms          rms(c)
DAV:   1    -0.192369928195E+03   -0.14750E-01   -0.45109E+00  8160   0.459E+00    0.539E-01
DAV:   2    -0.192378948227E+03   -0.90200E-02   -0.96135E-02 12040   0.124E+00    0.812E-01
DAV:   3    -0.192374255984E+03    0.46922E-02   -0.25915E-02 12240   0.131E+00    0.622E-01
DAV:   4    -0.192372024207E+03    0.22318E-02   -0.10328E-02 12360   0.774E-01    0.432E-01
DAV:   5    -0.192370754951E+03    0.12693E-02   -0.67704E-03 10600   0.678E-01    0.336E-01
DAV:   6    -0.192369535112E+03    0.12198E-02   -0.31326E-03 11640   0.375E-01    0.106E-01
DAV:   7    -0.192369379941E+03    0.15517E-03   -0.60361E-04  9840   0.102E-01    0.383E-02
DAV:   8    -0.192369360793E+03    0.19148E-04   -0.84701E-05  7800   0.628E-02
  80 F= -.19236936E+03 E0= -.19228684E+03  d E =-.141909E-01
       N       E                     dE             d eps       ncg     rms          rms(c)
DAV:   1    -0.192365523524E+03    0.38564E-02   -0.29040E-01  8160   0.116E+00    0.137E-01
DAV:   2    -0.192366534747E+03   -0.10112E-02   -0.77150E-03 11560   0.421E-01    0.266E-01
DAV:   3    -0.192365857719E+03    0.67703E-03   -0.18372E-03 10920   0.369E-01    0.128E-01
DAV:   4    -0.192365804669E+03    0.53050E-04   -0.51451E-04  8440   0.176E-01
  81 F= -.19236580E+03 E0= -.19228343E+03  d E =0.355612E-02
       N       E                     dE             d eps       ncg     rms          rms(c)
DAV:   1    -0.192361473112E+03    0.43846E-02   -0.47992E-01  8160   0.150E+00    0.210E-01
DAV:   2    -0.192362568287E+03   -0.10952E-02   -0.12627E-02 12680   0.423E-01    0.323E-01
DAV:   3    -0.192362014370E+03    0.55392E-03   -0.47086E-03 11920   0.512E-01    0.271E-01
DAV:   4    -0.192361416364E+03    0.59801E-03   -0.16044E-03 10440   0.288E-01    0.119E-01
DAV:   5    -0.192361316635E+03    0.99729E-04   -0.64342E-04 10080   0.171E-01
  82 F= -.19236132E+03 E0= -.19227885E+03  d E =0.448803E-02
       N       E                     dE             d eps       ncg     rms          rms(c)
DAV:   1    -0.192356278015E+03    0.51383E-02   -0.75917E-01  8160   0.189E+00    0.236E-01
DAV:   2    -0.192358963914E+03   -0.26859E-02   -0.20301E-02 12240   0.644E-01    0.477E-01
DAV:   3    -0.192357066529E+03    0.18974E-02   -0.59288E-03 12120   0.621E-01    0.225E-01
DAV:   4    -0.192356611514E+03    0.45502E-03   -0.11182E-03  9680   0.228E-01    0.113E-01
DAV:   5    -0.192356707034E+03   -0.95520E-04   -0.80698E-04 10120   0.245E-01
  83 F= -.19235671E+03 E0= -.19227369E+03  d E =0.460960E-02
       N       E                     dE             d eps       ncg     rms          rms(c)
DAV:   1    -0.192362366468E+03   -0.57550E-02   -0.10650E+00  8160   0.223E+00    0.270E-01
DAV:   2    -0.192365593856E+03   -0.32274E-02   -0.26965E-02 12360   0.684E-01    0.494E-01
DAV:   3    -0.192363619080E+03    0.19748E-02   -0.91064E-03 12240   0.739E-01    0.324E-01
DAV:   4    -0.192362788665E+03    0.83042E-03   -0.24635E-03 11960   0.354E-01    0.162E-01
DAV:   5    -0.192362604164E+03    0.18450E-03   -0.11169E-03 10120   0.277E-01    0.148E-01
DAV:   6    -0.192362399962E+03    0.20420E-03   -0.69021E-04  9680   0.200E-01    0.674E-02
DAV:   7    -0.192362342117E+03    0.57844E-04   -0.14120E-04  5760   0.694E-02
  84 F= -.19236234E+03 E0= -.19227954E+03  d E =-.563508E-02
       N       E                     dE             d eps       ncg     rms          rms(c)
DAV:   1    -0.192362863432E+03   -0.46347E-03   -0.21222E-02  8160   0.319E-01    0.406E-02
DAV:   2    -0.192362910212E+03   -0.46780E-04   -0.78656E-04 11840   0.816E-02
  85 F= -.19236291E+03 E0= -.19228012E+03  d E =-.568095E-03
       N       E                     dE             d eps       ncg     rms          rms(c)
DAV:   1    -0.192365129189E+03   -0.22658E-02   -0.11370E-01  8160   0.732E-01    0.115E-01
DAV:   2    -0.192366414868E+03   -0.12857E-02   -0.43480E-03 11440   0.425E-01    0.332E-01
DAV:   3    -0.192365138254E+03    0.12766E-02   -0.18546E-03 10280   0.376E-01    0.797E-02
DAV:   4    -0.192365232521E+03   -0.94267E-04   -0.39451E-04  8280   0.158E-01
  86 F= -.19236523E+03 E0= -.19228210E+03  d E =-.232231E-02
       N       E                     dE             d eps       ncg     rms          rms(c)
DAV:   1    -0.192364872961E+03    0.26529E-03   -0.49611E-03  8400   0.204E-01    0.395E-02
DAV:   2    -0.192365094553E+03   -0.22159E-03   -0.61857E-04 10280   0.159E-01    0.131E-01
DAV:   3    -0.192364874923E+03    0.21963E-03   -0.32513E-04  8080   0.145E-01    0.288E-02
DAV:   4    -0.192364875458E+03   -0.53478E-06   -0.33706E-05  5560   0.404E-02
  87 F= -.19236488E+03 E0= -.19228212E+03  d E =0.357063E-03
       N       E                     dE             d eps       ncg     rms          rms(c)
DAV:   1    -0.192367527892E+03   -0.26530E-02   -0.16353E-01  8160   0.872E-01    0.109E-01
DAV:   2    -0.192368147323E+03   -0.61943E-03   -0.43972E-03 11320   0.289E-01    0.215E-01
DAV:   3    -0.192367695703E+03    0.45162E-03   -0.12212E-03 10400   0.295E-01    0.107E-01
DAV:   4    -0.192367664316E+03    0.31387E-04   -0.34885E-04  8200   0.142E-01
  88 F= -.19236766E+03 E0= -.19228473E+03  d E =-.278886E-02
       N       E                     dE             d eps       ncg     rms          rms(c)
DAV:   1    -0.192366443088E+03    0.12526E-02   -0.24350E-02  8160   0.356E-01    0.594E-02
DAV:   2    -0.192367119673E+03   -0.67659E-03   -0.16443E-03 10920   0.294E-01    0.237E-01
DAV:   3    -0.192366440179E+03    0.67949E-03   -0.91002E-04  9720   0.247E-01    0.305E-02
DAV:   4    -0.192366455299E+03   -0.15120E-04   -0.45334E-05  5560   0.549E-02
  89 F= -.19236646E+03 E0= -.19228372E+03  d E =0.120902E-02
       N       E                     dE             d eps       ncg     rms          rms(c)
DAV:   1    -0.192368264056E+03   -0.18239E-02   -0.10852E-01  8160   0.710E-01    0.823E-02
DAV:   2    -0.192368642159E+03   -0.37810E-03   -0.33605E-03 11680   0.266E-01    0.154E-01
DAV:   3    -0.192368424232E+03    0.21793E-03   -0.63411E-04  9880   0.215E-01    0.780E-02
DAV:   4    -0.192368393121E+03    0.31111E-04   -0.18639E-04  6800   0.107E-01
  90 F= -.19236839E+03 E0= -.19228573E+03  d E =-.193782E-02
       N       E                     dE             d eps       ncg     rms          rms(c)
DAV:   1    -0.192369950763E+03   -0.15265E-02   -0.43372E-02  8160   0.455E-01    0.767E-02
DAV:   2    -0.192370378796E+03   -0.42803E-03   -0.17207E-03 12000   0.241E-01    0.206E-01
DAV:   3    -0.192369929731E+03    0.44907E-03   -0.90733E-04 10160   0.232E-01    0.621E-02
DAV:   4    -0.192369931507E+03   -0.17757E-05   -0.14142E-04  6520   0.919E-02
  91 F= -.19236993E+03 E0= -.19228744E+03  d E =-.153839E-02
       N       E                     dE             d eps       ncg     rms          rms(c)
DAV:   1    -0.192367148471E+03    0.27813E-02   -0.12550E-01  8160   0.771E-01    0.785E-02
DAV:   2    -0.192367396112E+03   -0.24764E-03   -0.27087E-03 11760   0.183E-01    0.115E-01
DAV:   3    -0.192367286995E+03    0.10912E-03   -0.46897E-04  9680   0.185E-01    0.750E-02
DAV:   4    -0.192367221444E+03    0.65551E-04   -0.92279E-05  5560   0.843E-02
  92 F= -.19236722E+03 E0= -.19228451E+03  d E =0.271006E-02
       N       E                     dE             d eps       ncg     rms          rms(c)
DAV:   1    -0.192363051702E+03    0.42353E-02   -0.40268E-01  8160   0.137E+00    0.168E-01
DAV:   2    -0.192364027152E+03   -0.97545E-03   -0.98255E-03 12280   0.378E-01    0.265E-01
DAV:   3    -0.192363549736E+03    0.47742E-03   -0.24066E-03 12240   0.424E-01    0.185E-01
DAV:   4    -0.192363246735E+03    0.30300E-03   -0.63073E-04  8760   0.194E-01    0.914E-02
DAV:   5    -0.192363279691E+03   -0.32955E-04   -0.52411E-04  9280   0.181E-01
  93 F= -.19236328E+03 E0= -.19228021E+03  d E =0.394175E-02
       N       E                     dE             d eps       ncg     rms          rms(c)
DAV:   1    -0.192354763432E+03    0.84833E-02   -0.23280E+00  8160   0.330E+00    0.386E-01
DAV:   2    -0.192358782005E+03   -0.40186E-02   -0.48715E-02 11280   0.846E-01    0.565E-01
DAV:   3    -0.192357497404E+03    0.12846E-02   -0.12965E-02 12160   0.933E-01    0.467E-01
DAV:   4    -0.192355683255E+03    0.18141E-02   -0.45740E-03 12280   0.511E-01    0.247E-01
DAV:   5    -0.192355398989E+03    0.28427E-03   -0.27458E-03 11080   0.434E-01    0.230E-01
DAV:   6    -0.192354977333E+03    0.42166E-03   -0.18137E-03 11160   0.304E-01    0.110E-01
DAV:   7    -0.192354904920E+03    0.72413E-04   -0.52755E-04  8760   0.180E-01
  94 F= -.19235490E+03 E0= -.19227232E+03  d E =0.837477E-02
       N       E                     dE             d eps       ncg     rms          rms(c)
DAV:   1    -0.192353113349E+03    0.18640E-02   -0.12661E-01  8160   0.775E-01    0.990E-02
DAV:   2    -0.192353617766E+03   -0.50442E-03   -0.34062E-03 12240   0.266E-01    0.206E-01
DAV:   3    -0.192353235677E+03    0.38209E-03   -0.11515E-03 10560   0.273E-01    0.982E-02
DAV:   4    -0.192353185382E+03    0.50295E-04   -0.24435E-04  7280   0.107E-01
  95 F= -.19235319E+03 E0= -.19227056E+03  d E =0.171954E-02
       N       E                     dE             d eps       ncg     rms          rms(c)
DAV:   1    -0.192353967711E+03   -0.73203E-03   -0.75745E-02  8160   0.600E-01    0.108E-01
DAV:   2    -0.192355009658E+03   -0.10419E-02   -0.48080E-03 11680   0.445E-01    0.294E-01
DAV:   3    -0.192353953331E+03    0.10563E-02   -0.14951E-03 10800   0.335E-01    0.548E-02
DAV:   4    -0.192354012885E+03   -0.59554E-04   -0.31423E-04  8680   0.125E-01
  96 F= -.19235401E+03 E0= -.19227134E+03  d E =-.827503E-03
       N       E                     dE             d eps       ncg     rms          rms(c)
DAV:   1    -0.192353923295E+03    0.30036E-04   -0.21178E-02  8160   0.347E-01    0.710E-02
DAV:   2    -0.192353969364E+03   -0.46069E-04   -0.11090E-03 11920   0.141E-01    0.987E-02
DAV:   3    -0.192353907358E+03    0.62007E-04   -0.40079E-04  9120   0.175E-01
  97 F= -.19235391E+03 E0= -.19227081E+03  d E =0.105527E-03
       N       E                     dE             d eps       ncg     rms          rms(c)
DAV:   1    -0.192354121267E+03   -0.15190E-03   -0.23526E-02  8160   0.339E-01    0.633E-02
DAV:   2    -0.192354155432E+03   -0.34165E-04   -0.12400E-03 11800   0.124E-01    0.675E-02
DAV:   3    -0.192354156729E+03   -0.12978E-05   -0.34740E-04  9640   0.141E-01
  98 F= -.19235416E+03 E0= -.19227110E+03  d E =-.249372E-03
       N       E                     dE             d eps       ncg     rms          rms(c)
DAV:   1    -0.192355192310E+03   -0.10369E-02   -0.62807E-02  8160   0.552E-01    0.754E-02
DAV:   2    -0.192355315906E+03   -0.12360E-03   -0.18105E-03 11200   0.166E-01    0.903E-02
DAV:   3    -0.192355251548E+03    0.64358E-04   -0.40936E-04  9520   0.166E-01
  99 F= -.19235525E+03 E0= -.19227192E+03  d E =-.109482E-02
       N       E                     dE             d eps       ncg     rms          rms(c)
DAV:   1    -0.192355252009E+03    0.63898E-04   -0.30676E-04  9040   0.119E-01    0.483E-02
DAV:   2    -0.192355580791E+03   -0.32878E-03   -0.69868E-04  9680   0.214E-01    0.170E-01
DAV:   3    -0.192355225707E+03    0.35508E-03   -0.47434E-04  8360   0.192E-01    0.313E-02
DAV:   4    -0.192355226991E+03   -0.12841E-05   -0.39433E-05  5600   0.395E-02
 100 F= -.19235523E+03 E0= -.19227212E+03  d E =0.245571E-04
