<?xml version="1.0" encoding="ISO-8859-1"?>
<modeling>
 <generator>
  <i name="program" type="string">vasp </i>
  <i name="version" type="string">5.4.1  </i>
  <i name="subversion" type="string">05Feb16 (build Jul 05 2020 17:13:04) complex                          parallel </i>
  <i name="platform" type="string">IFC91_ompi </i>
  <i name="date" type="string">2024 04 25 </i>
  <i name="time" type="string">08:38:28 </i>
 </generator>
 <incar>
  <i type="int" name="ISTART">     0</i>
  <i type="string" name="PREC">normal</i>
  <i type="string" name="ALGO"> Normal</i>
  <i type="int" name="ISPIN">     1</i>
  <i type="int" name="ICHARG">     2</i>
  <i type="int" name="IBRION">     1</i>
  <i type="int" name="NSW">   100</i>
  <i type="int" name="ISIF">     3</i>
  <i type="int" name="ISYM">     0</i>
  <i name="SYMPREC">      0.00000001</i>
  <i name="POTIM">      0.50000000</i>
  <i type="logical" name="LREAL"> F  </i>
  <i type="logical" name="LPLANE"> F  </i>
  <i type="int" name="ISMEAR">     0</i>
  <i type="logical" name="LWAVE"> F  </i>
  <i type="logical" name="LCHARG"> F  </i>
  <v type="int" name="KPOINT_BSE">    -1     0     0     0</v>
 </incar>
 <kpoints>
  <generation param="Gamma">
   <v type="int" name="divisions">       8        8        1 </v>
   <v name="usershift">      0.00000000       0.00000000       0.00000000 </v>
   <v name="genvec1">      0.12500000       0.00000000       0.00000000 </v>
   <v name="genvec2">     -0.00000000       0.12500000       0.00000000 </v>
   <v name="genvec3">      0.00000000       0.00000000       1.00000000 </v>
   <v name="shift">      0.00000000       0.00000000       0.00000000 </v>
  </generation>
  <varray name="kpointlist" >
   <v>       0.00000000       0.00000000       0.00000000 </v>
   <v>       0.12500000       0.00000000       0.00000000 </v>
   <v>       0.25000000       0.00000000       0.00000000 </v>
   <v>       0.37500000       0.00000000       0.00000000 </v>
   <v>       0.50000000       0.00000000       0.00000000 </v>
   <v>       0.00000000       0.12500000       0.00000000 </v>
   <v>       0.12500000       0.12500000       0.00000000 </v>
   <v>       0.25000000       0.12500000       0.00000000 </v>
   <v>       0.37500000       0.12500000       0.00000000 </v>
   <v>       0.50000000       0.12500000       0.00000000 </v>
   <v>      -0.37500000       0.12500000       0.00000000 </v>
   <v>      -0.25000000       0.12500000       0.00000000 </v>
   <v>      -0.12500000       0.12500000       0.00000000 </v>
   <v>       0.00000000       0.25000000       0.00000000 </v>
   <v>       0.12500000       0.25000000       0.00000000 </v>
   <v>       0.25000000       0.25000000       0.00000000 </v>
   <v>       0.37500000       0.25000000       0.00000000 </v>
   <v>       0.50000000       0.25000000       0.00000000 </v>
   <v>      -0.37500000       0.25000000       0.00000000 </v>
   <v>      -0.25000000       0.25000000       0.00000000 </v>
   <v>      -0.12500000       0.25000000       0.00000000 </v>
   <v>      -0.00000000       0.37500000       0.00000000 </v>
   <v>       0.12500000       0.37500000       0.00000000 </v>
   <v>       0.25000000       0.37500000       0.00000000 </v>
   <v>       0.37500000       0.37500000       0.00000000 </v>
   <v>       0.50000000       0.37500000       0.00000000 </v>
   <v>      -0.37500000       0.37500000       0.00000000 </v>
   <v>      -0.25000000       0.37500000       0.00000000 </v>
   <v>      -0.12500000       0.37500000       0.00000000 </v>
   <v>       0.00000000       0.50000000       0.00000000 </v>
   <v>       0.12500000       0.50000000       0.00000000 </v>
   <v>       0.25000000       0.50000000       0.00000000 </v>
   <v>       0.37500000       0.50000000       0.00000000 </v>
   <v>       0.50000000       0.50000000       0.00000000 </v>
  </varray>
  <varray name="weights" >
   <v>       0.01562500 </v>
   <v>       0.03125000 </v>
   <v>       0.03125000 </v>
   <v>       0.03125000 </v>
   <v>       0.01562500 </v>
   <v>       0.03125000 </v>
   <v>       0.03125000 </v>
   <v>       0.03125000 </v>
   <v>       0.03125000 </v>
   <v>       0.03125000 </v>
   <v>       0.03125000 </v>
   <v>       0.03125000 </v>
   <v>       0.03125000 </v>
   <v>       0.03125000 </v>
   <v>       0.03125000 </v>
   <v>       0.03125000 </v>
   <v>       0.03125000 </v>
   <v>       0.03125000 </v>
   <v>       0.03125000 </v>
   <v>       0.03125000 </v>
   <v>       0.03125000 </v>
   <v>       0.03125000 </v>
   <v>       0.03125000 </v>
   <v>       0.03125000 </v>
   <v>       0.03125000 </v>
   <v>       0.03125000 </v>
   <v>       0.03125000 </v>
   <v>       0.03125000 </v>
   <v>       0.03125000 </v>
   <v>       0.01562500 </v>
   <v>       0.03125000 </v>
   <v>       0.03125000 </v>
   <v>       0.03125000 </v>
   <v>       0.01562500 </v>
  </varray>
 </kpoints>
 <parameters>
  <separator name="general" >
   <i type="string" name="SYSTEM">unknown system</i>
   <i type="logical" name="LCOMPAT"> F  </i>
  </separator>
  <separator name="electronic" >
   <i type="string" name="PREC">normal</i>
   <i name="ENMAX">    280.00000000</i>
   <i name="ENAUG">    373.43800000</i>
   <i name="EDIFF">      0.00010000</i>
   <i type="int" name="IALGO">    38</i>
   <i type="int" name="IWAVPR">    11</i>
   <i type="int" name="NBANDS">   120</i>
   <i name="NELECT">    159.00000000</i>
   <i type="int" name="TURBO">     0</i>
   <i type="int" name="IRESTART">     0</i>
   <i type="int" name="NREBOOT">     0</i>
   <i type="int" name="NMIN">     0</i>
   <i name="EREF">      0.00000000</i>
   <separator name="electronic smearing" >
    <i type="int" name="ISMEAR">     0</i>
    <i name="SIGMA">      0.20000000</i>
    <i name="KSPACING">      0.50000000</i>
    <i type="logical" name="KGAMMA"> T  </i>
   </separator>
   <separator name="electronic projectors" >
    <i type="logical" name="LREAL"> F  </i>
    <v name="ROPT">      0.00000000      0.00000000      0.00000000      0.00000000</v>
    <i type="int" name="LMAXPAW">  -100</i>
    <i type="int" name="LMAXMIX">     2</i>
    <i type="logical" name="NLSPLINE"> F  </i>
   </separator>
   <separator name="electronic startup" >
    <i type="int" name="ISTART">     0</i>
    <i type="int" name="ICHARG">     2</i>
    <i type="int" name="INIWAV">     1</i>
   </separator>
   <separator name="electronic spin" >
    <i type="int" name="ISPIN">     1</i>
    <i type="logical" name="LNONCOLLINEAR"> F  </i>
    <v name="MAGMOM">      1.00000000      1.00000000      1.00000000      1.00000000      1.00000000      1.00000000      1.00000000      1.00000000      1.00000000      1.00000000      1.00000000      1.00000000      1.00000000      1.00000000      1.00000000      1.00000000      1.00000000      1.00000000      1.00000000      1.00000000
      1.00000000      1.00000000      1.00000000      1.00000000      1.00000000      1.00000000      1.00000000</v>
    <i name="NUPDOWN">     -1.00000000</i>
    <i type="logical" name="LSORBIT"> F  </i>
    <v name="SAXIS">      0.00000000      0.00000000      1.00000000</v>
    <i type="logical" name="LSPIRAL"> F  </i>
    <v name="QSPIRAL">      0.00000000      0.00000000      0.00000000</v>
    <i type="logical" name="LZEROZ"> F  </i>
   </separator>
   <separator name="electronic exchange-correlation" >
    <i type="logical" name="LASPH"> F  </i>
    <i type="logical" name="LMETAGGA"> F  </i>
   </separator>
   <separator name="electronic convergence" >
    <i type="int" name="NELM">    60</i>
    <i type="int" name="NELMDL">    -5</i>
    <i type="int" name="NELMIN">     2</i>
    <i name="ENINI">    280.00000000</i>
    <separator name="electronic convergence detail" >
     <i type="logical" name="LDIAG"> T  </i>
     <i type="logical" name="LSUBROT"> F  </i>
     <i name="WEIMIN">      0.00100000</i>
     <i name="EBREAK">      0.00000021</i>
     <i name="DEPER">      0.30000000</i>
     <i type="int" name="NRMM">     4</i>
     <i name="TIME">      0.40000000</i>
    </separator>
   </separator>
   <separator name="electronic mixer" >
    <i name="AMIX">      0.40000000</i>
    <i name="BMIX">      1.00000000</i>
    <i name="AMIN">      0.10000000</i>
    <i name="AMIX_MAG">      1.60000000</i>
    <i name="BMIX_MAG">      1.00000000</i>
    <separator name="electronic mixer details" >
     <i type="int" name="IMIX">     4</i>
     <i type="logical" name="MIXFIRST"> F  </i>
     <i type="int" name="MAXMIX">   -45</i>
     <i name="WC">    100.00000000</i>
     <i type="int" name="INIMIX">     1</i>
     <i type="int" name="MIXPRE">     1</i>
     <i type="int" name="MREMOVE">     5</i>
    </separator>
   </separator>
   <separator name="electronic dipolcorrection" >
    <i type="logical" name="LDIPOL"> F  </i>
    <i type="logical" name="LMONO"> F  </i>
    <i type="int" name="IDIPOL">     0</i>
    <i name="EPSILON">      1.00000000</i>
    <v name="DIPOL">   -100.00000000   -100.00000000   -100.00000000</v>
    <i name="EFIELD">      0.00000000</i>
   </separator>
  </separator>
  <separator name="grids" >
   <i type="int" name="NGX">    42</i>
   <i type="int" name="NGY">    42</i>
   <i type="int" name="NGZ">   126</i>
   <i type="int" name="NGXF">    84</i>
   <i type="int" name="NGYF">    84</i>
   <i type="int" name="NGZF">   252</i>
   <i type="logical" name="ADDGRID"> F  </i>
  </separator>
  <separator name="ionic" >
   <i type="int" name="NSW">   100</i>
   <i type="int" name="IBRION">     1</i>
   <i type="int" name="ISIF">     3</i>
   <i name="PSTRESS">      0.00000000</i>
   <i name="EDIFFG">      0.00100000</i>
   <i type="int" name="NFREE">     0</i>
   <i name="POTIM">      0.50000000</i>
   <i name="SMASS">     -3.00000000</i>
   <i name="SCALEE">      1.00000000</i>
  </separator>
  <separator name="ionic md" >
   <i name="TEBEG">      0.00010000</i>
   <i name="TEEND">      0.00010000</i>
   <i type="int" name="NBLOCK">     1</i>
   <i type="int" name="KBLOCK">   100</i>
   <i type="int" name="NPACO">   256</i>
   <i name="APACO">     16.00000000</i>
  </separator>
  <separator name="symmetry" >
   <i type="int" name="ISYM">     0</i>
   <i name="SYMPREC">      0.00000001</i>
  </separator>
  <separator name="dos" >
   <i type="logical" name="LORBIT"> F  </i>
   <v name="RWIGS">     -1.00000000     -1.00000000     -1.00000000     -1.00000000</v>
   <i type="int" name="NEDOS">   301</i>
   <i name="EMIN">     10.00000000</i>
   <i name="EMAX">    -10.00000000</i>
   <i name="EFERMI">      0.00000000</i>
  </separator>
  <separator name="writing" >
   <i type="int" name="NWRITE">     2</i>
   <i type="logical" name="LWAVE"> F  </i>
   <i type="logical" name="LCHARG"> F  </i>
   <i type="logical" name="LPARD"> F  </i>
   <i type="logical" name="LVTOT"> F  </i>
   <i type="logical" name="LVHAR"> F  </i>
   <i type="logical" name="LELF"> F  </i>
   <i type="logical" name="LOPTICS"> F  </i>
   <v name="STM">      0.00000000      0.00000000      0.00000000      0.00000000      0.00000000      0.00000000      0.00000000</v>
  </separator>
  <separator name="performance" >
   <i type="int" name="NPAR">    40</i>
   <i type="int" name="NSIM">     4</i>
   <i type="int" name="NBLK">    -1</i>
   <i type="logical" name="LPLANE"> F  </i>
   <i type="logical" name="LSCALAPACK"> T  </i>
   <i type="logical" name="LSCAAWARE"> F  </i>
   <i type="logical" name="LSCALU"> F  </i>
   <i type="logical" name="LASYNC"> F  </i>
   <i type="logical" name="LORBITALREAL"> F  </i>
  </separator>
  <separator name="miscellaneous" >
   <i type="int" name="IDIOT">     3</i>
   <i type="logical" name="LMUSIC"> F  </i>
   <v name="POMASS">     50.94100000     95.94000000    183.85000000     32.06600000</v>
   <v name="DARWINR">      0.00000000      0.00000000      0.00000000      0.00000000</v>
   <v name="DARWINV">      1.00000000      1.00000000      1.00000000      1.00000000</v>
   <i type="logical" name="LCORR"> T  </i>
  </separator>
  <i type="logical" name="GGA_COMPAT"> T  </i>
  <i type="logical" name="LBERRY"> F  </i>
  <i type="int" name="ICORELEVEL">     0</i>
  <i type="logical" name="LDAU"> F  </i>
  <i type="int" name="I_CONSTRAINED_M">     0</i>
  <separator name="electronic exchange-correlation" >
   <i type="string" name="GGA">--</i>
   <i type="int" name="VOSKOWN">     0</i>
   <i type="logical" name="LHFCALC"> F  </i>
   <i type="string" name="PRECFOCK"></i>
   <i type="logical" name="LSYMGRAD"> F  </i>
   <i type="logical" name="LHFONE"> F  </i>
   <i type="logical" name="LRHFCALC"> F  </i>
   <i type="logical" name="LTHOMAS"> F  </i>
   <i type="logical" name="LMODELHF"> F  </i>
   <i name="ENCUT4O">     -1.00000000</i>
   <i type="int" name="EXXOEP">     0</i>
   <i type="int" name="FOURORBIT">     0</i>
   <i name="AEXX">      0.00000000</i>
   <i name="HFALPHA">      0.00000000</i>
   <i name="MCALPHA">      0.00000000</i>
   <i name="ALDAX">      1.00000000</i>
   <i name="AGGAX">      1.00000000</i>
   <i name="ALDAC">      1.00000000</i>
   <i name="AGGAC">      1.00000000</i>
   <i type="int" name="NKREDX">     1</i>
   <i type="int" name="NKREDY">     1</i>
   <i type="int" name="NKREDZ">     1</i>
   <i type="logical" name="SHIFTRED"> F  </i>
   <i type="logical" name="ODDONLY"> F  </i>
   <i type="logical" name="EVENONLY"> F  </i>
   <i type="int" name="LMAXFOCK">     0</i>
   <i type="int" name="NMAXFOCKAE">     0</i>
   <i type="logical" name="LFOCKAEDFT"> F  </i>
   <i name="HFSCREEN">      0.00000000</i>
   <i name="HFSCREENC">      0.00000000</i>
   <i type="int" name="NBANDSGWLOW">     0</i>
  </separator>
  <separator name="vdW DFT" >
   <i type="logical" name="LUSE_VDW"> F  </i>
   <i name="Zab_VDW">     -0.84910000</i>
   <i name="PARAM1">      0.12340000</i>
   <i name="PARAM2">      1.00000000</i>
   <i name="PARAM3">      0.00000000</i>
  </separator>
  <separator name="model GW" >
   <i type="int" name="MODEL_GW">     0</i>
   <i name="MODEL_EPS0">     58.26239943</i>
   <i name="MODEL_ALPHA">      1.00000000</i>
  </separator>
  <separator name="linear response parameters" >
   <i type="logical" name="LEPSILON"> F  </i>
   <i type="logical" name="LRPA"> F  </i>
   <i type="logical" name="LNABLA"> F  </i>
   <i type="logical" name="LVEL"> F  </i>
   <i type="int" name="KINTER">     0</i>
   <i name="CSHIFT">      0.10000000</i>
   <i name="OMEGAMAX">     -1.00000000</i>
   <i name="DEG_THRESHOLD">      0.00200000</i>
  </separator>
  <separator name="orbital magnetization" >
   <i type="logical" name="NUCIND"> F  </i>
   <v name="MAGPOS">      0.00000000      0.00000000      0.00000000</v>
   <i type="logical" name="LNICSALL"> T  </i>
   <i type="logical" name="ORBITALMAG"> F  </i>
   <i type="logical" name="LMAGBLOCH"> F  </i>
   <i type="logical" name="LCHIMAG"> F  </i>
   <i type="logical" name="LGAUGE"> T  </i>
   <i type="int" name="MAGATOM">     0</i>
   <v name="MAGDIPOL">      0.00000000      0.00000000      0.00000000</v>
   <v name="AVECCONST">      0.00000000      0.00000000      0.00000000</v>
  </separator>
  <separator name="response functions" >
   <i type="logical" name="LADDER"> F  </i>
   <i type="logical" name="LFXC"> F  </i>
   <i type="logical" name="LHARTREE"> T  </i>
   <i type="int" name="IBSE">     0</i>
   <v type="int" name="KPOINT">    -1     0     0     0</v>
   <i type="logical" name="LTCTE"> F  </i>
   <i type="logical" name="LTETE"> F  </i>
   <i type="logical" name="LTRIPLET"> F  </i>
   <i type="logical" name="LFXCEPS"> F  </i>
   <i type="logical" name="LFXHEG"> F  </i>
   <i type="int" name="NATURALO">     0</i>
   <i type="logical" name="L2ORDER"> F  </i>
   <i type="logical" name="LUSEW"> F  </i>
   <i name="ENCUTGW">     -2.00000000</i>
   <i name="ENCUTGWSOFT">     -2.00000000</i>
   <i name="ENCUTLF">     -1.00000000</i>
   <i type="int" name="LMAXMP2">    -1</i>
   <i name="SCISSOR">      0.00000000</i>
   <i type="int" name="NOMEGA">     0</i>
   <i type="int" name="NOMEGAR">     0</i>
   <i type="int" name="NBANDSGW">    -1</i>
   <i type="int" name="NBANDSO">    -1</i>
   <i type="int" name="NBANDSV">    -1</i>
   <i type="int" name="NELM">     1</i>
   <i type="int" name="NELMHF">     1</i>
   <i type="int" name="DIM">     3</i>
   <i type="int" name="ANTIRES">     0</i>
   <i name="OMEGAMAX">    -30.00000000</i>
   <i name="OMEGAMIN">    -30.00000000</i>
   <i name="OMEGATL">   -200.00000000</i>
   <i type="int" name="OMEGAGRID">     0</i>
   <i name="CSHIFT">     -0.10000000</i>
   <i type="logical" name="SELFENERGY"> F  </i>
   <i type="logical" name="LSPECTRAL"> F  </i>
   <i type="logical" name="LSPECTRALGW"> F  </i>
   <i type="logical" name="LSINGLES"> F  </i>
   <i type="logical" name="LFERMIGW"> F  </i>
   <i type="logical" name="ODDONLYGW"> F  </i>
   <i type="logical" name="EVENONLYGW"> F  </i>
   <i type="int" name="NKREDLFX">     1</i>
   <i type="int" name="NKREDLFY">     1</i>
   <i type="int" name="NKREDLFZ">     1</i>
   <i type="int" name="MAXMEM">  1800</i>
   <i type="int" name="TELESCOPE">     0</i>
   <i type="int" name="TAUPAR">     1</i>
   <i type="int" name="OMEGAPAR">    -1</i>
   <i name="LAMBDA">      1.00000000</i>
  </separator>
  <separator name="External order field" >
   <i name="OFIELD_KAPPA">      0.00000000</i>
   <v name="OFIELD_K">      0.00000000      0.00000000      0.00000000</v>
   <i name="OFIELD_Q6_NEAR">      0.00000000</i>
   <i name="OFIELD_Q6_FAR">      0.00000000</i>
   <i name="OFIELD_A">      0.00000000</i>
  </separator>
 </parameters>
 <atominfo>
  <atoms>      27 </atoms>
  <types>       4 </types>
  <array name="atoms" >
   <dimension dim="1">ion</dimension>
   <field type="string">element</field>
   <field type="int">atomtype</field>
   <set>
    <rc><c>V </c><c>   1</c></rc>
    <rc><c>V </c><c>   1</c></rc>
    <rc><c>V </c><c>   1</c></rc>
    <rc><c>Mo</c><c>   2</c></rc>
    <rc><c>Mo</c><c>   2</c></rc>
    <rc><c>Mo</c><c>   2</c></rc>
    <rc><c>W </c><c>   3</c></rc>
    <rc><c>W </c><c>   3</c></rc>
    <rc><c>W </c><c>   3</c></rc>
    <rc><c>S </c><c>   4</c></rc>
    <rc><c>S </c><c>   4</c></rc>
    <rc><c>S </c><c>   4</c></rc>
    <rc><c>S </c><c>   4</c></rc>
    <rc><c>S </c><c>   4</c></rc>
    <rc><c>S </c><c>   4</c></rc>
    <rc><c>S </c><c>   4</c></rc>
    <rc><c>S </c><c>   4</c></rc>
    <rc><c>S </c><c>   4</c></rc>
    <rc><c>S </c><c>   4</c></rc>
    <rc><c>S </c><c>   4</c></rc>
    <rc><c>S </c><c>   4</c></rc>
    <rc><c>S </c><c>   4</c></rc>
    <rc><c>S </c><c>   4</c></rc>
    <rc><c>S </c><c>   4</c></rc>
    <rc><c>S </c><c>   4</c></rc>
    <rc><c>S </c><c>   4</c></rc>
    <rc><c>S </c><c>   4</c></rc>
   </set>
  </array>
  <array name="atomtypes" >
   <dimension dim="1">type</dimension>
   <field type="int">atomspertype</field>
   <field type="string">element</field>
   <field>mass</field>
   <field>valence</field>
   <field type="string">pseudopotential</field>
   <set>
    <rc><c>   3</c><c>V </c><c>     50.94100000</c><c>      5.00000000</c><c> PAW_PBE V 08Apr2002                    </c></rc>
    <rc><c>   3</c><c>Mo</c><c>     95.94000000</c><c>      6.00000000</c><c> PAW_PBE Mo 08Apr2002                   </c></rc>
    <rc><c>   3</c><c>W </c><c>    183.85000000</c><c>      6.00000000</c><c> PAW_PBE W 08Apr2002                    </c></rc>
    <rc><c>  18</c><c>S </c><c>     32.06600000</c><c>      6.00000000</c><c>  PAW_PBE S 17Jan2003                   </c></rc>
   </set>
  </array>
 </atominfo>
 <structure name="initialpos" >
  <crystal>
   <varray name="basis" >
    <v>       8.66999996       5.03999989       0.00000000 </v>
    <v>      -8.66999982       5.04000013       0.00000000 </v>
    <v>       0.00000000       0.00000000      30.00000000 </v>
   </varray>
   <i name="volume">   2621.80797419 </i>
   <varray name="rec_basis" >
    <v>       0.05767013       0.09920635       0.00000000 </v>
    <v>      -0.05767013       0.09920635       0.00000000 </v>
    <v>       0.00000000       0.00000000       0.03333333 </v>
   </varray>
  </crystal>
  <varray name="positions" >
   <v>       0.00000000       0.66666669       0.00000000 </v>
   <v>       0.66666669       0.33333334       0.00000000 </v>
   <v>       0.33333334       0.33333334       0.00000000 </v>
   <v>       0.00000000       0.00000000       0.00000000 </v>
   <v>       0.66666669       0.66666669       0.00000000 </v>
   <v>       0.66666669       0.00000000       0.00000000 </v>
   <v>       1.00000000       0.33333334       0.00000000 </v>
   <v>       0.33333334       0.00000000       0.00000000 </v>
   <v>       0.33333334       0.66666669       0.00000000 </v>
   <v>       0.11068511       0.22244981       0.95539999 </v>
   <v>       0.22244981       0.11068511       0.04460000 </v>
   <v>       0.11068511       0.55578315       0.95539999 </v>
   <v>       0.22244981       0.44401845       0.04460000 </v>
   <v>       0.11068511       0.88911647       0.95539999 </v>
   <v>       0.22244981       0.77735180       0.04460000 </v>
   <v>       0.44401845       0.22244981       0.95539999 </v>
   <v>       0.55578315       0.11068511       0.04460000 </v>
   <v>       0.44401845       0.55578315       0.95539999 </v>
   <v>       0.55578315       0.44401845       0.04460000 </v>
   <v>       0.44401845       0.88911647       0.95539999 </v>
   <v>       0.55578315       0.77735180       0.04460000 </v>
   <v>       0.77735180       0.22244981       0.95539999 </v>
   <v>       0.88911647       0.11068511       0.04460000 </v>
   <v>       0.77735180       0.55578315       0.95539999 </v>
   <v>       0.88911647       0.44401845       0.04460000 </v>
   <v>       0.77735180       0.88911647       0.95539999 </v>
   <v>       0.88911647       0.77735180       0.04460000 </v>
  </varray>
 </structure>
 <calculation>
  <scstep>
   <time name="dav">   21.49   21.56</time>
   <time name="total">   21.53   21.61</time>
   <energy>
    <i name="alphaZ">     81.65567618 </i>
    <i name="ewald">  41890.23011096 </i>
    <i name="hartreedc"> -47722.85867017 </i>
    <i name="XCdc">   -242.92971627 </i>
    <i name="pawpsdc">   3467.42045192 </i>
    <i name="pawaedc">  -2871.19716117 </i>
    <i name="eentropy">     -0.53936482 </i>
    <i name="bandstr">   -239.37580104 </i>
    <i name="atom">   6761.44252427 </i>
    <i name="e_fr_energy">   1123.84804985 </i>
    <i name="e_wo_entrp">   1124.38741467 </i>
    <i name="e_0_energy">   1124.11773226 </i>
   </energy>
  </scstep>
  <scstep>
   <time name="dav">   27.53   27.59</time>
   <time name="total">   27.53   27.60</time>
   <energy>
    <i name="e_fr_energy">      0.45892145 </i>
    <i name="e_wo_entrp">      0.65173742 </i>
    <i name="e_0_energy">      0.55532943 </i>
   </energy>
  </scstep>
  <scstep>
   <time name="dav">   27.36   27.43</time>
   <time name="total">   27.37   27.44</time>
   <energy>
    <i name="e_fr_energy">   -199.65397295 </i>
    <i name="e_wo_entrp">   -199.36734478 </i>
    <i name="e_0_energy">   -199.51065886 </i>
   </energy>
  </scstep>
  <scstep>
   <time name="dav">   29.50   29.57</time>
   <time name="total">   29.50   29.58</time>
   <energy>
    <i name="e_fr_energy">   -208.88620911 </i>
    <i name="e_wo_entrp">   -208.56350766 </i>
    <i name="e_0_energy">   -208.72485839 </i>
   </energy>
  </scstep>
  <scstep>
   <time name="dav">   28.27   28.34</time>
   <time name="total">   28.73   28.81</time>
   <energy>
    <i name="e_fr_energy">   -209.22226168 </i>
    <i name="e_wo_entrp">   -208.90300142 </i>
    <i name="e_0_energy">   -209.06263155 </i>
   </energy>
  </scstep>
  <scstep>
   <time name="dav">   30.84   30.91</time>
   <time name="total">   31.33   31.41</time>
   <energy>
    <i name="e_fr_energy">   -236.37853684 </i>
    <i name="e_wo_entrp">   -236.10143027 </i>
    <i name="e_0_energy">   -236.23998356 </i>
   </energy>
  </scstep>
  <scstep>
   <time name="dav">   32.20   32.28</time>
   <time name="total">   32.70   32.79</time>
   <energy>
    <i name="e_fr_energy">   -196.82034129 </i>
    <i name="e_wo_entrp">   -196.49016343 </i>
    <i name="e_0_energy">   -196.65525236 </i>
   </energy>
  </scstep>
  <scstep>
   <time name="dav">   28.84   28.91</time>
   <time name="total">   29.35   29.42</time>
   <energy>
    <i name="e_fr_energy">   -190.29975563 </i>
    <i name="e_wo_entrp">   -190.03217431 </i>
    <i name="e_0_energy">   -190.16596497 </i>
   </energy>
  </scstep>
  <scstep>
   <time name="dav">   29.53   29.60</time>
   <time name="total">   30.05   30.13</time>
   <energy>
    <i name="e_fr_energy">   -188.29570404 </i>
    <i name="e_wo_entrp">   -187.96103497 </i>
    <i name="e_0_energy">   -188.12836951 </i>
   </energy>
  </scstep>
  <scstep>
   <time name="dav">   32.16   32.23</time>
   <time name="total">   32.68   32.77</time>
   <energy>
    <i name="e_fr_energy">   -187.10057265 </i>
    <i name="e_wo_entrp">   -186.75403608 </i>
    <i name="e_0_energy">   -186.92730437 </i>
   </energy>
  </scstep>
  <scstep>
   <time name="dav">   30.10   30.17</time>
   <time name="total">   30.63   30.71</time>
   <energy>
    <i name="e_fr_energy">   -187.01406194 </i>
    <i name="e_wo_entrp">   -186.66735969 </i>
    <i name="e_0_energy">   -186.84071082 </i>
   </energy>
  </scstep>
  <scstep>
   <time name="dav">   31.06   31.13</time>
   <time name="total">   31.58   31.67</time>
   <energy>
    <i name="e_fr_energy">   -186.97532604 </i>
    <i name="e_wo_entrp">   -186.63894033 </i>
    <i name="e_0_energy">   -186.80713319 </i>
   </energy>
  </scstep>
  <scstep>
   <time name="dav">   31.97   32.05</time>
   <time name="total">   32.50   32.59</time>
   <energy>
    <i name="e_fr_energy">   -186.92998076 </i>
    <i name="e_wo_entrp">   -186.59112424 </i>
    <i name="e_0_energy">   -186.76055250 </i>
   </energy>
  </scstep>
  <scstep>
   <time name="dav">   31.38   31.45</time>
   <time name="total">   31.91   31.99</time>
   <energy>
    <i name="e_fr_energy">   -186.89199898 </i>
    <i name="e_wo_entrp">   -186.54840845 </i>
    <i name="e_0_energy">   -186.72020372 </i>
   </energy>
  </scstep>
  <scstep>
   <time name="dav">   29.04   29.11</time>
   <time name="total">   29.57   29.65</time>
   <energy>
    <i name="e_fr_energy">   -186.88750003 </i>
    <i name="e_wo_entrp">   -186.54308249 </i>
    <i name="e_0_energy">   -186.71529126 </i>
   </energy>
  </scstep>
  <scstep>
   <time name="dav">   31.69   31.76</time>
   <time name="total">   32.22   32.31</time>
   <energy>
    <i name="e_fr_energy">   -186.88732833 </i>
    <i name="e_wo_entrp">   -186.54379168 </i>
    <i name="e_0_energy">   -186.71556001 </i>
   </energy>
  </scstep>
  <scstep>
   <time name="dav">   30.77   30.84</time>
   <time name="total">   31.30   31.39</time>
   <energy>
    <i name="e_fr_energy">   -186.88510168 </i>
    <i name="e_wo_entrp">   -186.54199774 </i>
    <i name="e_0_energy">   -186.71354971 </i>
   </energy>
  </scstep>
  <scstep>
   <time name="dav">   30.83   30.91</time>
   <time name="total">   31.37   31.45</time>
   <energy>
    <i name="e_fr_energy">   -186.88398772 </i>
    <i name="e_wo_entrp">   -186.54142797 </i>
    <i name="e_0_energy">   -186.71270784 </i>
   </energy>
  </scstep>
  <scstep>
   <time name="dav">   27.81   27.87</time>
   <time name="total">   28.34   28.42</time>
   <energy>
    <i name="e_fr_energy">   -186.88378684 </i>
    <i name="e_wo_entrp">   -186.54071746 </i>
    <i name="e_0_energy">   -186.71225215 </i>
   </energy>
  </scstep>
  <scstep>
   <time name="dav">   23.41   23.46</time>
   <time name="total">   23.94   24.01</time>
   <energy>
    <i name="e_fr_energy">   -186.88465291 </i>
    <i name="e_wo_entrp">   -186.54191219 </i>
    <i name="e_0_energy">   -186.71328255 </i>
   </energy>
  </scstep>
  <scstep>
   <time name="dav">   21.51   21.56</time>
   <time name="total">   22.05   22.11</time>
   <energy>
    <i name="e_fr_energy">   -186.88540972 </i>
    <i name="e_wo_entrp">   -186.54255324 </i>
    <i name="e_0_energy">   -186.71398148 </i>
   </energy>
  </scstep>
  <scstep>
   <time name="dav">   19.67   19.71</time>
   <time name="total">   20.20   20.25</time>
   <energy>
    <i name="e_fr_energy">   -186.88626171 </i>
    <i name="e_wo_entrp">   -186.54341813 </i>
    <i name="e_0_energy">   -186.71483992 </i>
   </energy>
  </scstep>
  <scstep>
   <time name="dav">   20.06   20.10</time>
   <time name="total">   20.59   20.65</time>
   <energy>
    <i name="e_fr_energy">   -186.88750561 </i>
    <i name="e_wo_entrp">   -186.54479788 </i>
    <i name="e_0_energy">   -186.71615174 </i>
   </energy>
  </scstep>
  <scstep>
   <time name="dav">   18.80   18.84</time>
   <time name="total">   19.33   19.39</time>
   <energy>
    <i name="e_fr_energy">   -186.88803925 </i>
    <i name="e_wo_entrp">   -186.54525693 </i>
    <i name="e_0_energy">   -186.71664809 </i>
   </energy>
  </scstep>
  <scstep>
   <time name="dav">   16.07   16.11</time>
   <time name="total">   16.60   16.65</time>
   <energy>
    <i name="e_fr_energy">   -186.88844687 </i>
    <i name="e_wo_entrp">   -186.54564446 </i>
    <i name="e_0_energy">   -186.71704567 </i>
   </energy>
  </scstep>
  <scstep>
   <time name="dav">   18.89   18.94</time>
   <time name="total">   19.43   19.48</time>
   <energy>
    <i name="e_fr_energy">   -186.88868525 </i>
    <i name="e_wo_entrp">   -186.54590374 </i>
    <i name="e_0_energy">   -186.71729449 </i>
   </energy>
  </scstep>
  <scstep>
   <time name="dav">   19.63   19.68</time>
   <time name="total">   19.67   19.72</time>
   <energy>
    <i name="alphaZ">     81.65567618 </i>
    <i name="ewald">  41890.23011096 </i>
    <i name="hartreedc"> -47833.14127966 </i>
    <i name="XCdc">   -231.59825157 </i>
    <i name="pawpsdc">   4192.18688731 </i>
    <i name="pawaedc">  -3610.21261742 </i>
    <i name="eentropy">     -0.34278333 </i>
    <i name="bandstr">  -1437.10903885 </i>
    <i name="atom">   6761.44252427 </i>
    <i name="e_fr_energy">   -186.88877210 </i>
    <i name="e_wo_entrp">   -186.54598876 </i>
    <i name="e_0_energy">   -186.71738043 </i>
   </energy>
  </scstep>
  <structure>
   <crystal>
    <varray name="basis" >
     <v>       8.66999996       5.03999989       0.00000000 </v>
     <v>      -8.66999982       5.04000013       0.00000000 </v>
     <v>       0.00000000       0.00000000      30.00000000 </v>
    </varray>
    <i name="volume">   2621.80797419 </i>
    <varray name="rec_basis" >
     <v>       0.05767013       0.09920635       0.00000000 </v>
     <v>      -0.05767013       0.09920635       0.00000000 </v>
     <v>       0.00000000       0.00000000       0.03333333 </v>
    </varray>
   </crystal>
   <varray name="positions" >
    <v>       0.00000000       0.66666669       0.00000000 </v>
    <v>       0.66666669       0.33333334       0.00000000 </v>
    <v>       0.33333334       0.33333334       0.00000000 </v>
    <v>       0.00000000       0.00000000       0.00000000 </v>
    <v>       0.66666669       0.66666669       0.00000000 </v>
    <v>       0.66666669       0.00000000       0.00000000 </v>
    <v>       1.00000000       0.33333334       0.00000000 </v>
    <v>       0.33333334       0.00000000       0.00000000 </v>
    <v>       0.33333334       0.66666669       0.00000000 </v>
    <v>       0.11068511       0.22244981       0.95539999 </v>
    <v>       0.22244981       0.11068511       0.04460000 </v>
    <v>       0.11068511       0.55578315       0.95539999 </v>
    <v>       0.22244981       0.44401845       0.04460000 </v>
    <v>       0.11068511       0.88911647       0.95539999 </v>
    <v>       0.22244981       0.77735180       0.04460000 </v>
    <v>       0.44401845       0.22244981       0.95539999 </v>
    <v>       0.55578315       0.11068511       0.04460000 </v>
    <v>       0.44401845       0.55578315       0.95539999 </v>
    <v>       0.55578315       0.44401845       0.04460000 </v>
    <v>       0.44401845       0.88911647       0.95539999 </v>
    <v>       0.55578315       0.77735180       0.04460000 </v>
    <v>       0.77735180       0.22244981       0.95539999 </v>
    <v>       0.88911647       0.11068511       0.04460000 </v>
    <v>       0.77735180       0.55578315       0.95539999 </v>
    <v>       0.88911647       0.44401845       0.04460000 </v>
    <v>       0.77735180       0.88911647       0.95539999 </v>
    <v>       0.88911647       0.77735180       0.04460000 </v>
   </varray>
  </structure>
  <varray name="forces" >
   <v>      -0.43787959      -0.06337883       0.06235799 </v>
   <v>      -0.08056613       0.04857853       0.02969198 </v>
   <v>       0.06530427       0.04801989      -0.06006325 </v>
   <v>      -0.26245336      -0.44111738      -0.09627443 </v>
   <v>      -0.17198052       0.38166001       0.01915155 </v>
   <v>       0.52647912      -0.01272975       0.00817181 </v>
   <v>       0.21423291      -0.47576974      -0.02578295 </v>
   <v>      -0.06008562       0.04469576       0.01821564 </v>
   <v>       0.29436202       0.43947280       0.07203808 </v>
   <v>       0.37017203       0.71637792      -2.18469008 </v>
   <v>      -0.35881357       0.69747663       2.10889451 </v>
   <v>      -0.59965696       0.00169241      -2.03520759 </v>
   <v>       0.57600767       0.01700892       2.10123352 </v>
   <v>       0.60003420      -0.54080674      -2.13883917 </v>
   <v>      -0.46923240      -0.59770304       2.19459902 </v>
   <v>      -0.26536626       0.52233283      -1.45530918 </v>
   <v>      -0.60563937       0.53723691       2.11094222 </v>
   <v>       0.38175380      -0.72846565      -2.16957881 </v>
   <v>       0.32271417      -0.66703343       1.38850564 </v>
   <v>       0.04784562      -0.10064814      -2.89813276 </v>
   <v>      -0.23164549      -0.15944483       2.93420060 </v>
   <v>      -0.65930068       0.15165137      -2.10740167 </v>
   <v>      -0.23224480       0.14931548       2.91496480 </v>
   <v>       0.89796329      -0.00174154      -1.45937709 </v>
   <v>      -0.75777702       0.01914629       1.47657543 </v>
   <v>       0.11958528       0.02261866      -2.94678791 </v>
   <v>       0.77618737      -0.00844533       2.13790211 </v>
  </varray>
  <varray name="stress" >
   <v>       7.35335995      -0.09684558      -1.52881236 </v>
   <v>      -0.09684564       4.42567649      -0.04526293 </v>
   <v>      -1.52881243      -0.04526279      30.28143279 </v>
  </varray>
  <energy>
   <i name="e_fr_energy">   -186.88877210 </i>
   <i name="e_wo_entrp">   -186.71738043 </i>
   <i name="e_0_energy">     -0.34278333 </i>
  </energy>
  <time name="totalsc">  773.69  775.80</time>
 </calculation>
 <calculation>
  <scstep>
   <time name="dav">   21.41   21.46</time>
   <time name="total">   21.96   22.01</time>
   <energy>
    <i name="alphaZ">     78.91583821 </i>
    <i name="ewald">  39377.57476784 </i>
    <i name="hartreedc"> -45335.13169770 </i>
    <i name="XCdc">   -239.05724965 </i>
    <i name="pawpsdc">   4192.17191619 </i>
    <i name="pawaedc">  -3610.19776051 </i>
    <i name="eentropy">     -0.28177780 </i>
    <i name="bandstr">  -1412.98067650 </i>
    <i name="atom">   6761.44252427 </i>
    <i name="e_fr_energy">   -187.54411564 </i>
    <i name="e_wo_entrp">   -187.26233784 </i>
    <i name="e_0_energy">   -187.40322674 </i>
   </energy>
  </scstep>
  <scstep>
   <time name="dav">   30.14   30.21</time>
   <time name="total">   30.67   30.75</time>
   <energy>
    <i name="e_fr_energy">   -189.65149828 </i>
    <i name="e_wo_entrp">   -189.31152292 </i>
    <i name="e_0_energy">   -189.48151060 </i>
   </energy>
  </scstep>
  <scstep>
   <time name="dav">   30.02   30.09</time>
   <time name="total">   30.57   30.65</time>
   <energy>
    <i name="e_fr_energy">   -189.34140544 </i>
    <i name="e_wo_entrp">   -189.06746765 </i>
    <i name="e_0_energy">   -189.20443654 </i>
   </energy>
  </scstep>
  <scstep>
   <time name="dav">   30.58   30.65</time>
   <time name="total">   31.12   31.21</time>
   <energy>
    <i name="e_fr_energy">   -188.80639776 </i>
    <i name="e_wo_entrp">   -188.52552881 </i>
    <i name="e_0_energy">   -188.66596328 </i>
   </energy>
  </scstep>
  <scstep>
   <time name="dav">   30.08   30.15</time>
   <time name="total">   30.62   30.70</time>
   <energy>
    <i name="e_fr_energy">   -188.95863323 </i>
    <i name="e_wo_entrp">   -188.66471048 </i>
    <i name="e_0_energy">   -188.81167185 </i>
   </energy>
  </scstep>
  <scstep>
   <time name="dav">   31.03   31.11</time>
   <time name="total">   31.58   31.66</time>
   <energy>
    <i name="e_fr_energy">   -188.77934054 </i>
    <i name="e_wo_entrp">   -188.49983739 </i>
    <i name="e_0_energy">   -188.63958896 </i>
   </energy>
  </scstep>
  <scstep>
   <time name="dav">   28.59   28.66</time>
   <time name="total">   29.13   29.21</time>
   <energy>
    <i name="e_fr_energy">   -188.76589214 </i>
    <i name="e_wo_entrp">   -188.48491451 </i>
    <i name="e_0_energy">   -188.62540333 </i>
   </energy>
  </scstep>
  <scstep>
   <time name="dav">   31.44   31.52</time>
   <time name="total">   31.98   32.06</time>
   <energy>
    <i name="e_fr_energy">   -188.73590224 </i>
    <i name="e_wo_entrp">   -188.45537121 </i>
    <i name="e_0_energy">   -188.59563673 </i>
   </energy>
  </scstep>
  <scstep>
   <time name="dav">   30.21   30.28</time>
   <time name="total">   30.76   30.84</time>
   <energy>
    <i name="e_fr_energy">   -188.71595756 </i>
    <i name="e_wo_entrp">   -188.43638417 </i>
    <i name="e_0_energy">   -188.57617086 </i>
   </energy>
  </scstep>
  <scstep>
   <time name="dav">   27.00   27.06</time>
   <time name="total">   27.54   27.61</time>
   <energy>
    <i name="e_fr_energy">   -188.71524558 </i>
    <i name="e_wo_entrp">   -188.43582294 </i>
    <i name="e_0_energy">   -188.57553426 </i>
   </energy>
  </scstep>
  <scstep>
   <time name="dav">   30.43   30.50</time>
   <time name="total">   30.97   31.05</time>
   <energy>
    <i name="e_fr_energy">   -188.71473644 </i>
    <i name="e_wo_entrp">   -188.43576568 </i>
    <i name="e_0_energy">   -188.57525106 </i>
   </energy>
  </scstep>
  <scstep>
   <time name="dav">   28.94   29.01</time>
   <time name="total">   29.48   29.56</time>
   <energy>
    <i name="e_fr_energy">   -188.71487994 </i>
    <i name="e_wo_entrp">   -188.43582939 </i>
    <i name="e_0_energy">   -188.57535466 </i>
   </energy>
  </scstep>
  <scstep>
   <time name="dav">   21.16   21.21</time>
   <time name="total">   21.20   21.26</time>
   <energy>
    <i name="alphaZ">     78.91583821 </i>
    <i name="ewald">  39377.57476784 </i>
    <i name="hartreedc"> -45345.85300502 </i>
    <i name="XCdc">   -237.96853373 </i>
    <i name="pawpsdc">   3950.59719961 </i>
    <i name="pawaedc">  -3365.12007483 </i>
    <i name="eentropy">     -0.27904840 </i>
    <i name="bandstr">  -1408.02448156 </i>
    <i name="atom">   6761.44252427 </i>
    <i name="e_fr_energy">   -188.71481361 </i>
    <i name="e_wo_entrp">   -188.43576521 </i>
    <i name="e_0_energy">   -188.57528941 </i>
   </energy>
  </scstep>
  <structure>
   <crystal>
    <varray name="basis" >
     <v>       8.85498000       5.10276293       0.00000000 </v>
     <v>      -8.85783415       5.10767323       0.00000000 </v>
     <v>       0.00000000       0.00000000      30.00000000 </v>
    </varray>
    <i name="volume">   2712.83316246 </i>
    <varray name="rec_basis" >
     <v>       0.05648346       0.09795480       0.00000000 </v>
     <v>      -0.05642916       0.09792324       0.00000000 </v>
     <v>       0.00000000       0.00000000       0.03333333 </v>
    </varray>
   </crystal>
   <varray name="positions" >
    <v>      -0.00152158       0.66758161       0.00010028 </v>
    <v>       0.66667503       0.33378999       0.00004775 </v>
    <v>       0.33374485       0.33338148      -0.00009659 </v>
    <v>      -0.00284137      -0.00138099      -0.00015482 </v>
    <v>       0.66801483       0.66897178       0.00003080 </v>
    <v>       0.66807051      -0.00152567       0.00001314 </v>
    <v>       0.99831901       0.33046029      -0.00004146 </v>
    <v>       0.33338009       0.00038108       0.00002929 </v>
    <v>       0.33625561       0.66795103       0.00011584 </v>
    <v>       0.11514356       0.22484850       0.95188682 </v>
    <v>       0.22478964       0.11502149       0.04799129 </v>
    <v>       0.10902487       0.55745959       0.95212720 </v>
    <v>       0.22413376       0.44249731       0.04797897 </v>
    <v>       0.10976621       0.88485879       0.95196055 </v>
    <v>       0.21828374       0.77579668       0.04812911 </v>
    <v>       0.44578004       0.22568797       0.95305972 </v>
    <v>       0.55666937       0.11494130       0.04799458 </v>
    <v>       0.44159413       0.55123463       0.95191112 </v>
    <v>       0.55348859       0.43992820       0.04683284 </v>
    <v>       0.44366987       0.88850165       0.95073954 </v>
    <v>       0.55437558       0.77723317       0.04931845 </v>
    <v>       0.77624332       0.22500989       0.95201110 </v>
    <v>       0.88918494       0.11204587       0.04928752 </v>
    <v>       0.77984174       0.55327654       0.95305318 </v>
    <v>       0.88709984       0.44621834       0.04697446 </v>
    <v>       0.77779275       0.88889201       0.95066129 </v>
    <v>       0.89123552       0.77515190       0.04803793 </v>
   </varray>
  </structure>
  <varray name="forces" >
   <v>      -0.33456651      -0.00719576      -0.06116693 </v>
   <v>      -0.04999819       0.03188347       0.09033716 </v>
   <v>       0.02999617       0.00601029       0.06803663 </v>
   <v>      -0.42318444      -0.43552449      -0.03032134 </v>
   <v>      -0.45181616       0.46494974       0.00170858 </v>
   <v>       0.62535084      -0.07794165      -0.01031486 </v>
   <v>       0.27563789      -0.49131357      -0.12007221 </v>
   <v>       0.07204476      -0.04728040       0.11358585 </v>
   <v>       0.18673653       0.55138076      -0.07263039 </v>
   <v>      -0.11098576       0.04029340      -0.00197010 </v>
   <v>       0.10507040       0.03975284      -0.17032946 </v>
   <v>       0.10311629       0.00041735       0.36493793 </v>
   <v>      -0.09447383       0.00361409      -0.14831898 </v>
   <v>       0.07057122       0.05556294       0.04158171 </v>
   <v>       0.05685516       0.05121396      -0.11597539 </v>
   <v>       0.04841149      -0.06374872       0.03949704 </v>
   <v>      -0.07211243      -0.06130351      -0.14170008 </v>
   <v>      -0.10068302      -0.04561400       0.02577703 </v>
   <v>       0.00839716      -0.02569361      -0.15730705 </v>
   <v>      -0.06099753      -0.08462472       0.00877923 </v>
   <v>      -0.05108016      -0.09734680       0.28701161 </v>
   <v>       0.03063079       0.10287578       0.02372976 </v>
   <v>      -0.04913855       0.10006964       0.24177100 </v>
   <v>       0.02528710      -0.00559803       0.09592576 </v>
   <v>       0.10480131      -0.00186582      -0.15299022 </v>
   <v>       0.00460247       0.00006203      -0.40312277 </v>
   <v>       0.05152699      -0.00303519       0.18354051 </v>
  </varray>
  <varray name="stress" >
   <v>     -19.89924333       0.01489101       0.04199340 </v>
   <v>       0.01489102     -19.48329882       0.01401693 </v>
   <v>       0.04199344       0.01401703      -1.76555437 </v>
  </varray>
  <energy>
   <i name="e_fr_energy">   -188.71481361 </i>
   <i name="e_wo_entrp">   -188.57528941 </i>
   <i name="e_0_energy">     -0.27904840 </i>
  </energy>
  <time name="totalsc">  419.19  420.32</time>
 </calculation>
 <calculation>
  <scstep>
   <time name="dav">   23.32   23.38</time>
   <time name="total">   23.85   23.91</time>
   <energy>
    <i name="alphaZ">     82.33691672 </i>
    <i name="ewald">  41299.19557911 </i>
    <i name="hartreedc"> -47297.98208794 </i>
    <i name="XCdc">   -233.84847367 </i>
    <i name="pawpsdc">   3950.06096166 </i>
    <i name="pawaedc">  -3364.57875696 </i>
    <i name="eentropy">     -0.23645507 </i>
    <i name="bandstr">  -1387.03601222 </i>
    <i name="atom">   6761.44252427 </i>
    <i name="e_fr_energy">   -190.64580410 </i>
    <i name="e_wo_entrp">   -190.40934903 </i>
    <i name="e_0_energy">   -190.52757656 </i>
   </energy>
  </scstep>
  <scstep>
   <time name="dav">   27.51   27.58</time>
   <time name="total">   28.03   28.11</time>
   <energy>
    <i name="e_fr_energy">   -190.56474219 </i>
    <i name="e_wo_entrp">   -190.32750913 </i>
    <i name="e_0_energy">   -190.44612566 </i>
   </energy>
  </scstep>
  <scstep>
   <time name="dav">   29.96   30.03</time>
   <time name="total">   30.48   30.56</time>
   <energy>
    <i name="e_fr_energy">   -190.13561657 </i>
    <i name="e_wo_entrp">   -189.88363043 </i>
    <i name="e_0_energy">   -190.00962350 </i>
   </energy>
  </scstep>
  <scstep>
   <time name="dav">   30.92   31.00</time>
   <time name="total">   31.45   31.54</time>
   <energy>
    <i name="e_fr_energy">   -189.92320835 </i>
    <i name="e_wo_entrp">   -189.68731226 </i>
    <i name="e_0_energy">   -189.80526031 </i>
   </energy>
  </scstep>
  <scstep>
   <time name="dav">   29.79   29.86</time>
   <time name="total">   30.32   30.40</time>
   <energy>
    <i name="e_fr_energy">   -189.89999327 </i>
    <i name="e_wo_entrp">   -189.66045047 </i>
    <i name="e_0_energy">   -189.78022187 </i>
   </energy>
  </scstep>
  <scstep>
   <time name="dav">   30.05   30.12</time>
   <time name="total">   30.58   30.66</time>
   <energy>
    <i name="e_fr_energy">   -189.82593111 </i>
    <i name="e_wo_entrp">   -189.58684074 </i>
    <i name="e_0_energy">   -189.70638592 </i>
   </energy>
  </scstep>
  <scstep>
   <time name="dav">   28.88   28.95</time>
   <time name="total">   29.41   29.49</time>
   <energy>
    <i name="e_fr_energy">   -189.81728694 </i>
    <i name="e_wo_entrp">   -189.57866953 </i>
    <i name="e_0_energy">   -189.69797824 </i>
   </energy>
  </scstep>
  <scstep>
   <time name="dav">   30.43   30.50</time>
   <time name="total">   30.96   31.04</time>
   <energy>
    <i name="e_fr_energy">   -189.81831028 </i>
    <i name="e_wo_entrp">   -189.57956040 </i>
    <i name="e_0_energy">   -189.69893534 </i>
   </energy>
  </scstep>
  <scstep>
   <time name="dav">   27.87   27.93</time>
   <time name="total">   28.40   28.47</time>
   <energy>
    <i name="e_fr_energy">   -189.81718348 </i>
    <i name="e_wo_entrp">   -189.57847503 </i>
    <i name="e_0_energy">   -189.69782925 </i>
   </energy>
  </scstep>
  <scstep>
   <time name="dav">   25.40   25.46</time>
   <time name="total">   25.93   26.00</time>
   <energy>
    <i name="e_fr_energy">   -189.81744649 </i>
    <i name="e_wo_entrp">   -189.57874507 </i>
    <i name="e_0_energy">   -189.69809578 </i>
   </energy>
  </scstep>
  <scstep>
   <time name="dav">   22.38   22.44</time>
   <time name="total">   22.91   22.98</time>
   <energy>
    <i name="e_fr_energy">   -189.81723117 </i>
    <i name="e_wo_entrp">   -189.57842570 </i>
    <i name="e_0_energy">   -189.69782843 </i>
   </energy>
  </scstep>
  <scstep>
   <time name="dav">   19.16   19.21</time>
   <time name="total">   19.19   19.25</time>
   <energy>
    <i name="alphaZ">     82.33691672 </i>
    <i name="ewald">  41299.19557911 </i>
    <i name="hartreedc"> -47271.44239998 </i>
    <i name="XCdc">   -235.23790798 </i>
    <i name="pawpsdc">   4038.95733384 </i>
    <i name="pawaedc">  -3454.67583827 </i>
    <i name="eentropy">     -0.23881073 </i>
    <i name="bandstr">  -1410.15465111 </i>
    <i name="atom">   6761.44252427 </i>
    <i name="e_fr_energy">   -189.81725414 </i>
    <i name="e_wo_entrp">   -189.57844340 </i>
    <i name="e_0_energy">   -189.69784877 </i>
   </energy>
  </scstep>
  <structure>
   <crystal>
    <varray name="basis" >
     <v>       8.66718494       4.99690124       0.00000000 </v>
     <v>      -8.66981642       5.00142831       0.00000000 </v>
     <v>       0.00000000       0.00000000      30.00000000 </v>
    </varray>
    <i name="volume">   2600.11561598 </i>
    <varray name="rec_basis" >
     <v>       0.05770622       0.10003190       0.00000000 </v>
     <v>      -0.05765399       0.10000153       0.00000000 </v>
     <v>       0.00000000       0.00000000       0.03333333 </v>
    </varray>
   </crystal>
   <varray name="positions" >
    <v>      -0.00185486       0.66789061       0.00006561 </v>
    <v>       0.66668012       0.33389104       0.00009894 </v>
    <v>       0.33378367       0.33336271      -0.00005803 </v>
    <v>      -0.00397309      -0.00170008      -0.00017200 </v>
    <v>       0.66835527       0.67017934       0.00003177 </v>
    <v>       0.66854125      -0.00225540       0.00000730 </v>
    <v>       0.99776547       0.32937786      -0.00010951 </v>
    <v>       0.33337053       0.00023324       0.00009367 </v>
    <v>       0.33735322       0.66868986       0.00007468 </v>
    <v>       0.11510408       0.22502206       0.95188570 </v>
    <v>       0.22495675       0.11498687       0.04789476 </v>
    <v>       0.10912459       0.55736136       0.95233402 </v>
    <v>       0.22404905       0.44259397       0.04789491 </v>
    <v>       0.10992652       0.88488359       0.95198411 </v>
    <v>       0.21842363       0.77582740       0.04806338 </v>
    <v>       0.44572036       0.22553539       0.95308211 </v>
    <v>       0.55649802       0.11490842       0.04791427 </v>
    <v>       0.44142148       0.55125529       0.95192572 </v>
    <v>       0.55345386       0.43987737       0.04674369 </v>
    <v>       0.44347035       0.88841928       0.95074451 </v>
    <v>       0.55416440       0.77712011       0.04948111 </v>
    <v>       0.77644406       0.22515178       0.95202455 </v>
    <v>       0.88930441       0.11225962       0.04942454 </v>
    <v>       0.77985670       0.55324296       0.95310755 </v>
    <v>       0.88719738       0.44611469       0.04688776 </v>
    <v>       0.77779728       0.88888770       0.95043283 </v>
    <v>       0.89127995       0.77509741       0.04814195 </v>
   </varray>
  </structure>
  <varray name="forces" >
   <v>      -0.31368630       0.03311995      -0.07750891 </v>
   <v>      -0.03377787       0.01559606       0.08420653 </v>
   <v>       0.00394843      -0.01551105       0.08218690 </v>
   <v>      -0.46044581      -0.42491884      -0.00556707 </v>
   <v>      -0.53368774       0.47547156      -0.00142849 </v>
   <v>       0.65700421      -0.10867264      -0.00633201 </v>
   <v>       0.30241817      -0.48443185      -0.10888516 </v>
   <v>       0.11387619      -0.08354621       0.10760111 </v>
   <v>       0.15793797       0.57867034      -0.08631649 </v>
   <v>       0.03115072       0.08974367      -0.51211184 </v>
   <v>      -0.02630093       0.07382241       0.30664985 </v>
   <v>      -0.02862921       0.00245978      -0.09537010 </v>
   <v>       0.03570067       0.00089393       0.33557629 </v>
   <v>       0.05194909      -0.06793993      -0.44461570 </v>
   <v>      -0.00632094      -0.08417351       0.39271102 </v>
   <v>      -0.02317142       0.07049141      -0.42427063 </v>
   <v>      -0.03986634       0.07481137       0.33729055 </v>
   <v>       0.03619500      -0.08703573      -0.47463208 </v>
   <v>       0.03030487      -0.05929509       0.27225075 </v>
   <v>      -0.02647275       0.00239071      -0.55073482 </v>
   <v>       0.00119412      -0.01146231       0.87263790 </v>
   <v>      -0.08357077       0.00356474      -0.47581697 </v>
   <v>      -0.00317041       0.01988196       0.81136943 </v>
   <v>       0.07644678      -0.00926551      -0.34048660 </v>
   <v>      -0.03827647       0.00309187       0.30115973 </v>
   <v>       0.01011446      -0.00739850      -0.97819524 </v>
   <v>       0.10913631      -0.00035860       0.67863207 </v>
  </varray>
  <varray name="stress" >
   <v>     -10.13059179       0.01951724       0.01949521 </v>
   <v>       0.01951712      -9.82778197       0.02694867 </v>
   <v>       0.01949525       0.02694857       6.47605257 </v>
  </varray>
  <energy>
   <i name="e_fr_energy">   -189.81725414 </i>
   <i name="e_wo_entrp">   -189.69784877 </i>
   <i name="e_0_energy">     -0.23881073 </i>
  </energy>
  <time name="totalsc">  373.21  374.20</time>
 </calculation>
 <calculation>
  <scstep>
   <time name="dav">   21.48   21.53</time>
   <time name="total">   22.00   22.05</time>
   <energy>
    <i name="alphaZ">     85.80584644 </i>
    <i name="ewald">  42827.72588738 </i>
    <i name="hartreedc"> -48844.26950617 </i>
    <i name="XCdc">   -232.95455831 </i>
    <i name="pawpsdc">   4039.09711304 </i>
    <i name="pawaedc">  -3454.81374133 </i>
    <i name="eentropy">     -0.21084235 </i>
    <i name="bandstr">  -1373.23814132 </i>
    <i name="atom">   6761.44252427 </i>
    <i name="e_fr_energy">   -191.41541835 </i>
    <i name="e_wo_entrp">   -191.20457600 </i>
    <i name="e_0_energy">   -191.30999718 </i>
   </energy>
  </scstep>
  <scstep>
   <time name="dav">   31.80   31.87</time>
   <time name="total">   32.31   32.39</time>
   <energy>
    <i name="e_fr_energy">   -191.22590414 </i>
    <i name="e_wo_entrp">   -191.01532820 </i>
    <i name="e_0_energy">   -191.12061617 </i>
   </energy>
  </scstep>
  <scstep>
   <time name="dav">   29.81   29.88</time>
   <time name="total">   30.32   30.40</time>
   <energy>
    <i name="e_fr_energy">   -191.37564649 </i>
    <i name="e_wo_entrp">   -191.14329164 </i>
    <i name="e_0_energy">   -191.25946907 </i>
   </energy>
  </scstep>
  <scstep>
   <time name="dav">   29.93   30.01</time>
   <time name="total">   30.45   30.53</time>
   <energy>
    <i name="e_fr_energy">   -190.99838028 </i>
    <i name="e_wo_entrp">   -190.78500964 </i>
    <i name="e_0_energy">   -190.89169496 </i>
   </energy>
  </scstep>
  <scstep>
   <time name="dav">   30.15   30.22</time>
   <time name="total">   30.66   30.75</time>
   <energy>
    <i name="e_fr_energy">   -190.92068933 </i>
    <i name="e_wo_entrp">   -190.70814565 </i>
    <i name="e_0_energy">   -190.81441749 </i>
   </energy>
  </scstep>
  <scstep>
   <time name="dav">   30.14   30.21</time>
   <time name="total">   30.65   30.73</time>
   <energy>
    <i name="e_fr_energy">   -190.86909785 </i>
    <i name="e_wo_entrp">   -190.65146030 </i>
    <i name="e_0_energy">   -190.76027908 </i>
   </energy>
  </scstep>
  <scstep>
   <time name="dav">   30.67   30.74</time>
   <time name="total">   31.18   31.27</time>
   <energy>
    <i name="e_fr_energy">   -190.84622414 </i>
    <i name="e_wo_entrp">   -190.63036686 </i>
    <i name="e_0_energy">   -190.73829550 </i>
   </energy>
  </scstep>
  <scstep>
   <time name="dav">   28.38   28.45</time>
   <time name="total">   28.89   28.97</time>
   <energy>
    <i name="e_fr_energy">   -190.84448585 </i>
    <i name="e_wo_entrp">   -190.62860329 </i>
    <i name="e_0_energy">   -190.73654457 </i>
   </energy>
  </scstep>
  <scstep>
   <time name="dav">   26.91   26.98</time>
   <time name="total">   27.43   27.50</time>
   <energy>
    <i name="e_fr_energy">   -190.84366912 </i>
    <i name="e_wo_entrp">   -190.62779649 </i>
    <i name="e_0_energy">   -190.73573281 </i>
   </energy>
  </scstep>
  <scstep>
   <time name="dav">   27.74   27.81</time>
   <time name="total">   28.25   28.33</time>
   <energy>
    <i name="e_fr_energy">   -190.84388887 </i>
    <i name="e_wo_entrp">   -190.62802530 </i>
    <i name="e_0_energy">   -190.73595708 </i>
   </energy>
  </scstep>
  <scstep>
   <time name="dav">   25.93   25.99</time>
   <time name="total">   26.44   26.51</time>
   <energy>
    <i name="e_fr_energy">   -190.84370094 </i>
    <i name="e_wo_entrp">   -190.62777393 </i>
    <i name="e_0_energy">   -190.73573743 </i>
   </energy>
  </scstep>
  <scstep>
   <time name="dav">   19.35   19.39</time>
   <time name="total">   19.38   19.44</time>
   <energy>
    <i name="alphaZ">     85.80584644 </i>
    <i name="ewald">  42827.72588738 </i>
    <i name="hartreedc"> -48815.78918007 </i>
    <i name="XCdc">   -234.27329951 </i>
    <i name="pawpsdc">   4064.79799561 </i>
    <i name="pawaedc">  -3480.71006923 </i>
    <i name="eentropy">     -0.21593665 </i>
    <i name="bandstr">  -1399.62747609 </i>
    <i name="atom">   6761.44252427 </i>
    <i name="e_fr_energy">   -190.84370784 </i>
    <i name="e_wo_entrp">   -190.62777120 </i>
    <i name="e_0_energy">   -190.73573952 </i>
   </energy>
  </scstep>
  <structure>
   <crystal>
    <varray name="basis" >
     <v>       8.48666734       4.89777838       0.00000000 </v>
     <v>      -8.48846539       4.90086510       0.00000000 </v>
     <v>       0.00000000       0.00000000      30.00000000 </v>
    </varray>
    <i name="volume">   2494.99902195 </i>
    <varray name="rec_basis" >
     <v>       0.05892826       0.10206576       0.00000000 </v>
     <v>      -0.05889115       0.10204414       0.00000000 </v>
     <v>       0.00000000       0.00000000       0.03333333 </v>
    </varray>
   </crystal>
   <varray name="positions" >
    <v>      -0.00265048       0.66930061      -0.00010859 </v>
    <v>       0.66663848       0.33404682       0.00026797 </v>
    <v>       0.33360987       0.33323516       0.00012400 </v>
    <v>      -0.00832441      -0.00261814      -0.00016256 </v>
    <v>       0.66931309       0.67522571       0.00002615 </v>
    <v>       0.67020338      -0.00542908      -0.00000243 </v>
    <v>       0.99588025       0.32523249      -0.00032532 </v>
    <v>       0.33322859      -0.00085099       0.00031122 </v>
    <v>       0.34157387       0.67185132      -0.00011550 </v>
    <v>       0.11610561       0.22539065       0.95039412 </v>
    <v>       0.22522024       0.11581703       0.04893315 </v>
    <v>       0.10885258       0.55767406       0.95174687 </v>
    <v>       0.22436367       0.44227730       0.04899901 </v>
    <v>       0.10935470       0.88399021       0.95065246 </v>
    <v>       0.21744613       0.77507705       0.04930669 </v>
    <v>       0.44630939       0.22649690       0.95181155 </v>
    <v>       0.55720746       0.11581304       0.04901777 </v>
    <v>       0.44110059       0.55028052       0.95051993 </v>
    <v>       0.55313988       0.43928180       0.04767075 </v>
    <v>       0.44365578       0.88869679       0.94913121 </v>
    <v>       0.55438570       0.77718277       0.05178254 </v>
    <v>       0.77575342       0.22539241       0.95061704 </v>
    <v>       0.88928386       0.11213012       0.05158563 </v>
    <v>       0.78013916       0.55282654       0.95203350 </v>
    <v>       0.88688547       0.44648967       0.04789546 </v>
    <v>       0.77777684       0.88877841       0.94792195 </v>
    <v>       0.89176133       0.77462529       0.04996531 </v>
   </varray>
  </structure>
  <varray name="forces" >
   <v>      -0.33782772       0.05498709      -0.07933880 </v>
   <v>      -0.05597301       0.02536187       0.04621710 </v>
   <v>      -0.00789522      -0.03469428       0.07694240 </v>
   <v>      -0.46210255      -0.37033759       0.01952133 </v>
   <v>      -0.53277388       0.41527511      -0.00767158 </v>
   <v>       0.63323637      -0.13488201      -0.00609753 </v>
   <v>       0.31876531      -0.54454032      -0.06543012 </v>
   <v>       0.13523025      -0.09857714       0.07129473 </v>
   <v>       0.15779885       0.66028049      -0.05040409 </v>
   <v>       0.08176199      -0.03185454      -0.39617635 </v>
   <v>      -0.04520223      -0.06311663       0.16104607 </v>
   <v>       0.05886469       0.00454623       0.07657802 </v>
   <v>      -0.02582787       0.00826328       0.12707119 </v>
   <v>      -0.05576694      -0.01329208      -0.28025224 </v>
   <v>       0.03367632      -0.06361824       0.28365987 </v>
   <v>       0.00742789       0.02574767      -0.28942838 </v>
   <v>       0.08149372       0.03182636       0.19036166 </v>
   <v>       0.05829245       0.05144012      -0.32519976 </v>
   <v>      -0.04683794       0.08126706       0.19410336 </v>
   <v>       0.02553169       0.10492285      -0.40137238 </v>
   <v>       0.02509072       0.05000209       0.69571711 </v>
   <v>       0.01908433      -0.08435302      -0.31054120 </v>
   <v>       0.01259877      -0.06127644       0.60302927 </v>
   <v>      -0.06690180      -0.00177943      -0.24912106 </v>
   <v>       0.01337910      -0.00325289       0.21135437 </v>
   <v>       0.01782955       0.00022267      -0.78419349 </v>
   <v>      -0.04295281      -0.00856828       0.48833050 </v>
  </varray>
  <varray name="stress" >
   <v>      -5.56431585      -0.07899228      -0.13520280 </v>
   <v>      -0.07899231      -5.68020752      -0.08345264 </v>
   <v>      -0.13520318      -0.08345267       4.48260525 </v>
  </varray>
  <energy>
   <i name="e_fr_energy">   -190.84370784 </i>
   <i name="e_wo_entrp">   -190.73573952 </i>
   <i name="e_0_energy">     -0.21593665 </i>
  </energy>
  <time name="totalsc">  379.72  380.73</time>
 </calculation>
 <calculation>
  <scstep>
   <time name="dav">   21.47   21.53</time>
   <time name="total">   21.98   22.03</time>
   <energy>
    <i name="alphaZ">     89.93631736 </i>
    <i name="ewald">  44563.74784350 </i>
    <i name="hartreedc"> -50604.29005777 </i>
    <i name="XCdc">   -231.95884233 </i>
    <i name="pawpsdc">   4064.75480115 </i>
    <i name="pawaedc">  -3480.66285631 </i>
    <i name="eentropy">     -0.21453271 </i>
    <i name="bandstr">  -1354.90022027 </i>
    <i name="atom">   6761.44252427 </i>
    <i name="e_fr_energy">   -192.14502309 </i>
    <i name="e_wo_entrp">   -191.93049039 </i>
    <i name="e_0_energy">   -192.03775674 </i>
   </energy>
  </scstep>
  <scstep>
   <time name="dav">   26.97   27.03</time>
   <time name="total">   27.47   27.54</time>
   <energy>
    <i name="e_fr_energy">   -191.92359486 </i>
    <i name="e_wo_entrp">   -191.70733986 </i>
    <i name="e_0_energy">   -191.81546736 </i>
   </energy>
  </scstep>
  <scstep>
   <time name="dav">   28.97   29.04</time>
   <time name="total">   29.47   29.55</time>
   <energy>
    <i name="e_fr_energy">   -191.79857958 </i>
    <i name="e_wo_entrp">   -191.57182848 </i>
    <i name="e_0_energy">   -191.68520403 </i>
   </energy>
  </scstep>
  <scstep>
   <time name="dav">   30.06   30.13</time>
   <time name="total">   30.56   30.64</time>
   <energy>
    <i name="e_fr_energy">   -191.82096018 </i>
    <i name="e_wo_entrp">   -191.61556160 </i>
    <i name="e_0_energy">   -191.71826089 </i>
   </energy>
  </scstep>
  <scstep>
   <time name="dav">   30.05   30.12</time>
   <time name="total">   30.56   30.64</time>
   <energy>
    <i name="e_fr_energy">   -191.55167488 </i>
    <i name="e_wo_entrp">   -191.32994354 </i>
    <i name="e_0_energy">   -191.44080921 </i>
   </energy>
  </scstep>
  <scstep>
   <time name="dav">   27.89   27.95</time>
   <time name="total">   28.39   28.46</time>
   <energy>
    <i name="e_fr_energy">   -191.54185527 </i>
    <i name="e_wo_entrp">   -191.32042086 </i>
    <i name="e_0_energy">   -191.43113807 </i>
   </energy>
  </scstep>
  <scstep>
   <time name="dav">   29.14   29.21</time>
   <time name="total">   29.65   29.73</time>
   <energy>
    <i name="e_fr_energy">   -191.54563884 </i>
    <i name="e_wo_entrp">   -191.32509210 </i>
    <i name="e_0_energy">   -191.43536547 </i>
   </energy>
  </scstep>
  <scstep>
   <time name="dav">   28.42   28.49</time>
   <time name="total">   28.92   29.00</time>
   <energy>
    <i name="e_fr_energy">   -191.53732399 </i>
    <i name="e_wo_entrp">   -191.31612392 </i>
    <i name="e_0_energy">   -191.42672395 </i>
   </energy>
  </scstep>
  <scstep>
   <time name="dav">   28.27   28.34</time>
   <time name="total">   28.77   28.85</time>
   <energy>
    <i name="e_fr_energy">   -191.53784543 </i>
    <i name="e_wo_entrp">   -191.31693020 </i>
    <i name="e_0_energy">   -191.42738781 </i>
   </energy>
  </scstep>
  <scstep>
   <time name="dav">   27.56   27.63</time>
   <time name="total">   28.06   28.14</time>
   <energy>
    <i name="e_fr_energy">   -191.53773336 </i>
    <i name="e_wo_entrp">   -191.31651053 </i>
    <i name="e_0_energy">   -191.42712195 </i>
   </energy>
  </scstep>
  <scstep>
   <time name="dav">   25.42   25.48</time>
   <time name="total">   25.93   26.00</time>
   <energy>
    <i name="e_fr_energy">   -191.53736340 </i>
    <i name="e_wo_entrp">   -191.31626774 </i>
    <i name="e_0_energy">   -191.42681557 </i>
   </energy>
  </scstep>
  <scstep>
   <time name="dav">   17.21   17.25</time>
   <time name="total">   17.25   17.30</time>
   <energy>
    <i name="alphaZ">     89.93631736 </i>
    <i name="ewald">  44563.74784350 </i>
    <i name="hartreedc"> -50572.69838817 </i>
    <i name="XCdc">   -233.38275845 </i>
    <i name="pawpsdc">   4087.39385668 </i>
    <i name="pawaedc">  -3503.43053533 </i>
    <i name="eentropy">     -0.22117997 </i>
    <i name="bandstr">  -1384.32501270 </i>
    <i name="atom">   6761.44252427 </i>
    <i name="e_fr_energy">   -191.53733281 </i>
    <i name="e_wo_entrp">   -191.31615283 </i>
    <i name="e_0_energy">   -191.42674282 </i>
   </energy>
  </scstep>
  <structure>
   <crystal>
    <varray name="basis" >
     <v>       8.29014898       4.77866994       0.00000000 </v>
     <v>      -8.29618585       4.78909824       0.00000000 </v>
     <v>       0.00000000       0.00000000      30.00000000 </v>
    </varray>
    <i name="volume">   2380.41215404 </i>
    <varray name="rec_basis" >
     <v>       0.06035633       0.10455566       0.00000000 </v>
     <v>      -0.06022491       0.10447958       0.00000000 </v>
     <v>       0.00000000       0.00000000       0.03333333 </v>
    </varray>
   </crystal>
   <varray name="positions" >
    <v>      -0.00418271       0.67228675      -0.00042956 </v>
    <v>       0.66654190       0.33462596       0.00046013 </v>
    <v>       0.33308558       0.33287926       0.00043724 </v>
    <v>      -0.01599876      -0.00384788      -0.00007681 </v>
    <v>       0.67058474       0.68405231      -0.00000327 </v>
    <v>       0.67296995      -0.01147843      -0.00002245 </v>
    <v>       0.99174233       0.31667517      -0.00058984 </v>
    <v>       0.33295654      -0.00306754       0.00059964 </v>
    <v>       0.35039166       0.67859578      -0.00034112 </v>
    <v>       0.11678960       0.22460108       0.94833223 </v>
    <v>       0.22428007       0.11587334       0.05007012 </v>
    <v>       0.10902654       0.55761255       0.95153090 </v>
    <v>       0.22452544       0.44227387       0.05004265 </v>
    <v>       0.10846200       0.88372502       0.94903659 </v>
    <v>       0.21638669       0.77382682       0.05092869 </v>
    <v>       0.44696084       0.22732593       0.95019579 </v>
    <v>       0.55852135       0.11612897       0.05027062 </v>
    <v>       0.44197524       0.54996794       0.94872464 </v>
    <v>       0.55357586       0.44015108       0.04885776 </v>
    <v>       0.44515852       0.88983545       0.94698677 </v>
    <v>       0.55534822       0.77768095       0.05510315 </v>
    <v>       0.77447936       0.22440057       0.94887125 </v>
    <v>       0.88861013       0.11116858       0.05454883 </v>
    <v>       0.77984785       0.55303211       0.95062076 </v>
    <v>       0.88669105       0.44665352       0.04917778 </v>
    <v>       0.77787107       0.88862512       0.94426038 </v>
    <v>       0.89161340       0.77461017       0.05240704 </v>
   </varray>
  </structure>
  <varray name="forces" >
   <v>      -0.46238758       0.04573785       0.00138199 </v>
   <v>      -0.10994368       0.08791043       0.04480813 </v>
   <v>       0.00256269      -0.06565016       0.02155692 </v>
   <v>      -0.09531696      -0.02356941      -0.06775511 </v>
   <v>      -0.05520470       0.02723453      -0.03398439 </v>
   <v>       0.00713637      -0.05268009      -0.03585385 </v>
   <v>       0.26298684      -0.52331222      -0.02756115 </v>
   <v>       0.19063610      -0.06788401       0.05162632 </v>
   <v>       0.09600530       0.53812197       0.06298373 </v>
   <v>       0.08418915      -0.13993492      -0.10556975 </v>
   <v>      -0.01013376      -0.20301430      -0.08871243 </v>
   <v>       0.21536323       0.01617944       0.42414211 </v>
   <v>      -0.13033275       0.02575031      -0.20796495 </v>
   <v>      -0.16509091       0.05922801       0.00237353 </v>
   <v>       0.11141692      -0.03527221       0.00515628 </v>
   <v>       0.01962113      -0.03411546       0.00880679 </v>
   <v>       0.19153005      -0.04141537      -0.09184400 </v>
   <v>       0.00613283       0.18310072      -0.02754788 </v>
   <v>      -0.12204436       0.19191128      -0.03226954 </v>
   <v>       0.06644092       0.21327616      -0.16886722 </v>
   <v>       0.01870226       0.08098325       0.30084906 </v>
   <v>       0.14094384      -0.18723988      -0.02792163 </v>
   <v>      -0.00369156      -0.14230679       0.25675164 </v>
   <v>      -0.21331298       0.01225627      -0.02429733 </v>
   <v>       0.09456949       0.02027570      -0.08318035 </v>
   <v>       0.02156322       0.02546574      -0.27873351 </v>
   <v>      -0.16234110      -0.01103685       0.12162660 </v>
  </varray>
  <varray name="stress" >
   <v>       0.45914612      -0.23073557      -0.19558775 </v>
   <v>      -0.23073560       0.26892893      -0.28755859 </v>
   <v>      -0.19558775      -0.28755862      -0.68361787 </v>
  </varray>
  <energy>
   <i name="e_fr_energy">   -191.53733281 </i>
   <i name="e_wo_entrp">   -191.42674282 </i>
   <i name="e_0_energy">     -0.22117997 </i>
  </energy>
  <time name="totalsc">  368.89  369.87</time>
 </calculation>
 <calculation>
  <scstep>
   <time name="dav">   21.46   21.51</time>
   <time name="total">   21.97   22.02</time>
   <energy>
    <i name="alphaZ">     89.68805826 </i>
    <i name="ewald">  44440.52746698 </i>
    <i name="hartreedc"> -50447.20708525 </i>
    <i name="XCdc">   -233.60201149 </i>
    <i name="pawpsdc">   4087.24634748 </i>
    <i name="pawaedc">  -3503.27790064 </i>
    <i name="eentropy">     -0.22199594 </i>
    <i name="bandstr">  -1386.20625847 </i>
    <i name="atom">   6761.44252427 </i>
    <i name="e_fr_energy">   -191.61085479 </i>
    <i name="e_wo_entrp">   -191.38885885 </i>
    <i name="e_0_energy">   -191.49985682 </i>
   </energy>
  </scstep>
  <scstep>
   <time name="dav">   32.42   32.50</time>
   <time name="total">   32.92   33.01</time>
   <energy>
    <i name="e_fr_energy">   -191.66321034 </i>
    <i name="e_wo_entrp">   -191.43428177 </i>
    <i name="e_0_energy">   -191.54874606 </i>
   </energy>
  </scstep>
  <scstep>
   <time name="dav">   30.41   30.49</time>
   <time name="total">   30.92   31.00</time>
   <energy>
    <i name="e_fr_energy">   -191.62215915 </i>
    <i name="e_wo_entrp">   -191.39958221 </i>
    <i name="e_0_energy">   -191.51087068 </i>
   </energy>
  </scstep>
  <scstep>
   <time name="dav">   25.78   25.84</time>
   <time name="total">   26.28   26.35</time>
   <energy>
    <i name="e_fr_energy">   -191.62507853 </i>
    <i name="e_wo_entrp">   -191.40313049 </i>
    <i name="e_0_energy">   -191.51410451 </i>
   </energy>
  </scstep>
  <scstep>
   <time name="dav">   27.54   27.60</time>
   <time name="total">   28.04   28.12</time>
   <energy>
    <i name="e_fr_energy">   -191.61916297 </i>
    <i name="e_wo_entrp">   -191.39528789 </i>
    <i name="e_0_energy">   -191.50722543 </i>
   </energy>
  </scstep>
  <scstep>
   <time name="dav">   27.52   27.58</time>
   <time name="total">   28.02   28.09</time>
   <energy>
    <i name="e_fr_energy">   -191.61990495 </i>
    <i name="e_wo_entrp">   -191.39707879 </i>
    <i name="e_0_energy">   -191.50849187 </i>
   </energy>
  </scstep>
  <scstep>
   <time name="dav">   27.73   27.79</time>
   <time name="total">   28.23   28.31</time>
   <energy>
    <i name="e_fr_energy">   -191.61895087 </i>
    <i name="e_wo_entrp">   -191.39592631 </i>
    <i name="e_0_energy">   -191.50743859 </i>
   </energy>
  </scstep>
  <scstep>
   <time name="dav">   24.96   25.02</time>
   <time name="total">   25.46   25.53</time>
   <energy>
    <i name="e_fr_energy">   -191.61844940 </i>
    <i name="e_wo_entrp">   -191.39543215 </i>
    <i name="e_0_energy">   -191.50694077 </i>
   </energy>
  </scstep>
  <scstep>
   <time name="dav">   17.92   17.96</time>
   <time name="total">   17.95   18.00</time>
   <energy>
    <i name="alphaZ">     89.68805826 </i>
    <i name="ewald">  44440.52746698 </i>
    <i name="hartreedc"> -50450.22661537 </i>
    <i name="XCdc">   -233.49883954 </i>
    <i name="pawpsdc">   4083.94336733 </i>
    <i name="pawaedc">  -3499.93098398 </i>
    <i name="eentropy">     -0.22305782 </i>
    <i name="bandstr">  -1383.34037958 </i>
    <i name="atom">   6761.44252427 </i>
    <i name="e_fr_energy">   -191.61845945 </i>
    <i name="e_wo_entrp">   -191.39540163 </i>
    <i name="e_0_energy">   -191.50693054 </i>
   </energy>
  </scstep>
  <structure>
   <crystal>
    <varray name="basis" >
     <v>       8.30081089       4.77954623       0.00000000 </v>
     <v>      -8.31222664       4.79929440       0.00000000 </v>
     <v>       0.00000000       0.00000000      30.00000000 </v>
    </varray>
    <i name="volume">   2387.00120263 </i>
    <varray name="rec_basis" >
     <v>       0.06031787       0.10446865       0.00000000 </v>
     <v>      -0.06006968       0.10432518       0.00000000 </v>
     <v>       0.00000000       0.00000000       0.03333333 </v>
    </varray>
   </crystal>
   <varray name="positions" >
    <v>      -0.00517838       0.67365672      -0.00041563 </v>
    <v>       0.66666146       0.33532368       0.00052055 </v>
    <v>       0.33280201       0.33257436       0.00045817 </v>
    <v>      -0.01609292      -0.00365535      -0.00018242 </v>
    <v>       0.67051737       0.68400894      -0.00005352 </v>
    <v>       0.67264012      -0.01152743      -0.00007594 </v>
    <v>       0.99012805       0.31378638      -0.00062169 </v>
    <v>       0.33316666      -0.00382614       0.00066692 </v>
    <v>       0.35288852       0.68063856      -0.00023718 </v>
    <v>       0.11631985       0.22373389       0.94826016 </v>
    <v>       0.22332179       0.11492579       0.04988241 </v>
    <v>       0.10969278       0.55709661       0.95219195 </v>
    <v>       0.22427921       0.44275838       0.04967729 </v>
    <v>       0.10833216       0.88447747       0.94911157 </v>
    <v>       0.21657580       0.77340759       0.05086505 </v>
    <v>       0.44682208       0.22706668       0.95027956 </v>
    <v>       0.55879206       0.11538669       0.05007397 </v>
    <v>       0.44283107       0.55084208       0.94876101 </v>
    <v>       0.55414062       0.44137139       0.04875545 </v>
    <v>       0.44629402       0.89062081       0.94682369 </v>
    <v>       0.55574328       0.77799331       0.05542240 </v>
    <v>       0.77403397       0.22316223       0.94890546 </v>
    <v>       0.88795120       0.11054355       0.05481428 </v>
    <v>       0.77932849       0.55367041       0.95064610 </v>
    <v>       0.88705881       0.44647818       0.04899447 </v>
    <v>       0.77804799       0.88869316       0.94398669 </v>
    <v>       0.89111640       0.77500654       0.05248916 </v>
   </varray>
  </structure>
  <varray name="forces" >
   <v>      -0.54827111       0.02363244      -0.00460553 </v>
   <v>      -0.12252550       0.11600418       0.05985581 </v>
   <v>      -0.01094895      -0.05953690       0.03397282 </v>
   <v>      -0.16892415      -0.08485112      -0.01837357 </v>
   <v>      -0.10683640       0.10817351      -0.02937834 </v>
   <v>       0.11608053      -0.08213171      -0.02302946 </v>
   <v>       0.29275656      -0.56160503      -0.02700806 </v>
   <v>       0.24886946      -0.05666962       0.04867824 </v>
   <v>       0.10848141       0.57803894       0.00022558 </v>
   <v>       0.06230274      -0.07964543      -0.10773085 </v>
   <v>       0.02694061      -0.11205558      -0.09896933 </v>
   <v>       0.15539590      -0.00145403       0.48371326 </v>
   <v>      -0.09698838       0.01348900      -0.21667559 </v>
   <v>      -0.08927150       0.04314850      -0.01231597 </v>
   <v>       0.07863479      -0.03362695      -0.01887280 </v>
   <v>       0.01362334      -0.02488464       0.03985954 </v>
   <v>       0.08928983      -0.00520075      -0.07161232 </v>
   <v>      -0.01676562       0.10423380      -0.01498977 </v>
   <v>      -0.06790996       0.08998959      -0.03570854 </v>
   <v>       0.02954739       0.12106398      -0.15926765 </v>
   <v>       0.03890848       0.08411149       0.23419161 </v>
   <v>       0.06478284      -0.12855647      -0.05368431 </v>
   <v>       0.02771514      -0.10830883       0.19387991 </v>
   <v>      -0.11951515       0.01483240      -0.04251753 </v>
   <v>       0.07255231       0.02477583      -0.12117722 </v>
   <v>       0.00741393       0.00647705      -0.16313289 </v>
   <v>      -0.08533855       0.01055634       0.12467296 </v>
  </varray>
  <varray name="stress" >
   <v>      -0.21879387      -0.03910367      -0.01364318 </v>
   <v>      -0.03910376      -0.03935399      -0.09409590 </v>
   <v>      -0.01364294      -0.09409587      -1.21446544 </v>
  </varray>
  <energy>
   <i name="e_fr_energy">   -191.61845945 </i>
   <i name="e_wo_entrp">   -191.50693054 </i>
   <i name="e_0_energy">     -0.22305782 </i>
  </energy>
  <time name="totalsc">  281.57  282.31</time>
 </calculation>
 <calculation>
  <scstep>
   <time name="dav">   21.46   21.51</time>
   <time name="total">   21.96   22.01</time>
   <energy>
    <i name="alphaZ">     89.76400336 </i>
    <i name="ewald">  44472.60300768 </i>
    <i name="hartreedc"> -50483.10411573 </i>
    <i name="XCdc">   -233.45941290 </i>
    <i name="pawpsdc">   4083.61118188 </i>
    <i name="pawaedc">  -3499.59544700 </i>
    <i name="eentropy">     -0.22152982 </i>
    <i name="bandstr">  -1382.73198742 </i>
    <i name="atom">   6761.44252427 </i>
    <i name="e_fr_energy">   -191.69177567 </i>
    <i name="e_wo_entrp">   -191.47024585 </i>
    <i name="e_0_energy">   -191.58101076 </i>
   </energy>
  </scstep>
  <scstep>
   <time name="dav">   31.56   31.64</time>
   <time name="total">   32.06   32.15</time>
   <energy>
    <i name="e_fr_energy">   -191.72637783 </i>
    <i name="e_wo_entrp">   -191.49787741 </i>
    <i name="e_0_energy">   -191.61212762 </i>
   </energy>
  </scstep>
  <scstep>
   <time name="dav">   30.35   30.42</time>
   <time name="total">   30.85   30.93</time>
   <energy>
    <i name="e_fr_energy">   -191.69906025 </i>
    <i name="e_wo_entrp">   -191.47711840 </i>
    <i name="e_0_energy">   -191.58808933 </i>
   </energy>
  </scstep>
  <scstep>
   <time name="dav">   27.16   27.23</time>
   <time name="total">   27.67   27.74</time>
   <energy>
    <i name="e_fr_energy">   -191.69962960 </i>
    <i name="e_wo_entrp">   -191.47862617 </i>
    <i name="e_0_energy">   -191.58912789 </i>
   </energy>
  </scstep>
  <scstep>
   <time name="dav">   27.49   27.55</time>
   <time name="total">   27.99   28.06</time>
   <energy>
    <i name="e_fr_energy">   -191.69638629 </i>
    <i name="e_wo_entrp">   -191.47315751 </i>
    <i name="e_0_energy">   -191.58477190 </i>
   </energy>
  </scstep>
  <scstep>
   <time name="dav">   28.07   28.13</time>
   <time name="total">   28.57   28.65</time>
   <energy>
    <i name="e_fr_energy">   -191.69644794 </i>
    <i name="e_wo_entrp">   -191.47387999 </i>
    <i name="e_0_energy">   -191.58516396 </i>
   </energy>
  </scstep>
  <scstep>
   <time name="dav">   26.22   26.28</time>
   <time name="total">   26.72   26.79</time>
   <energy>
    <i name="e_fr_energy">   -191.69645446 </i>
    <i name="e_wo_entrp">   -191.47370436 </i>
    <i name="e_0_energy">   -191.58507941 </i>
   </energy>
  </scstep>
  <scstep>
[...]
      <set comment="kpoint 31">
       <r>  -17.4819    1.0000 </r>
       <r>  -17.2719    1.0000 </r>
       <r>  -16.9149    1.0000 </r>
       <r>  -16.6080    1.0000 </r>
       <r>  -16.4901    1.0000 </r>
       <r>  -16.3736    1.0000 </r>
       <r>  -16.3049    1.0000 </r>
       <r>  -16.1631    1.0000 </r>
       <r>  -16.0799    1.0000 </r>
       <r>  -16.0199    1.0000 </r>
       <r>  -15.9605    1.0000 </r>
       <r>  -15.9043    1.0000 </r>
       <r>  -15.8055    1.0000 </r>
       <r>  -15.7398    1.0000 </r>
       <r>  -15.6292    1.0000 </r>
       <r>  -15.5364    1.0000 </r>
       <r>  -15.4555    1.0000 </r>
       <r>  -15.3390    1.0000 </r>
       <r>   -9.7015    1.0000 </r>
       <r>   -9.4061    1.0000 </r>
       <r>   -9.3106    1.0000 </r>
       <r>   -8.9428    1.0000 </r>
       <r>   -8.8327    1.0000 </r>
       <r>   -8.7044    1.0000 </r>
       <r>   -8.5341    1.0000 </r>
       <r>   -8.4442    1.0000 </r>
       <r>   -8.4045    1.0000 </r>
       <r>   -8.3196    1.0000 </r>
       <r>   -8.2506    1.0000 </r>
       <r>   -8.2355    1.0000 </r>
       <r>   -8.1147    1.0000 </r>
       <r>   -8.0694    1.0000 </r>
       <r>   -8.0155    1.0000 </r>
       <r>   -7.9079    1.0000 </r>
       <r>   -7.8121    1.0000 </r>
       <r>   -7.6344    1.0000 </r>
       <r>   -7.5965    1.0000 </r>
       <r>   -7.4338    1.0000 </r>
       <r>   -7.2799    1.0000 </r>
       <r>   -7.1926    1.0000 </r>
       <r>   -7.1383    1.0000 </r>
       <r>   -7.0995    1.0000 </r>
       <r>   -7.0308    1.0000 </r>
       <r>   -6.9733    1.0000 </r>
       <r>   -6.9070    1.0000 </r>
       <r>   -6.8039    1.0000 </r>
       <r>   -6.6980    1.0000 </r>
       <r>   -6.6305    1.0000 </r>
       <r>   -6.5628    1.0000 </r>
       <r>   -6.4906    1.0000 </r>
       <r>   -6.4034    1.0000 </r>
       <r>   -6.3333    1.0000 </r>
       <r>   -6.3025    1.0000 </r>
       <r>   -6.1991    1.0000 </r>
       <r>   -6.1554    1.0000 </r>
       <r>   -6.0951    1.0000 </r>
       <r>   -5.9918    1.0000 </r>
       <r>   -5.9420    1.0000 </r>
       <r>   -5.8892    1.0000 </r>
       <r>   -5.8256    1.0000 </r>
       <r>   -5.7309    1.0000 </r>
       <r>   -5.6373    1.0000 </r>
       <r>   -5.5704    1.0000 </r>
       <r>   -5.4116    1.0000 </r>
       <r>   -5.2291    1.0000 </r>
       <r>   -5.1859    1.0000 </r>
       <r>   -5.0820    1.0000 </r>
       <r>   -4.9143    1.0000 </r>
       <r>   -4.8473    1.0000 </r>
       <r>   -4.7306    1.0000 </r>
       <r>   -4.5382    1.0000 </r>
       <r>   -4.4590    1.0000 </r>
       <r>   -4.3874    1.0000 </r>
       <r>   -4.2979    1.0000 </r>
       <r>   -4.2050    1.0000 </r>
       <r>   -4.0398    1.0000 </r>
       <r>   -3.8045    0.9998 </r>
       <r>   -3.6920    0.9973 </r>
       <r>   -3.5387    0.9557 </r>
       <r>   -3.2961    0.4952 </r>
       <r>   -2.9833    0.0131 </r>
       <r>   -2.8191    0.0004 </r>
       <r>   -2.6080    0.0000 </r>
       <r>   -2.5126    0.0000 </r>
       <r>   -2.4552    0.0000 </r>
       <r>   -2.3427    0.0000 </r>
       <r>   -2.3278    0.0000 </r>
       <r>   -2.1881    0.0000 </r>
       <r>   -2.0655    0.0000 </r>
       <r>   -1.9453    0.0000 </r>
       <r>   -1.9292    0.0000 </r>
       <r>   -1.6275    0.0000 </r>
       <r>   -1.5051    0.0000 </r>
       <r>   -1.3116    0.0000 </r>
       <r>   -1.2660    0.0000 </r>
       <r>   -1.1313    0.0000 </r>
       <r>   -1.0676    0.0000 </r>
       <r>   -1.0323    0.0000 </r>
       <r>   -0.9421    0.0000 </r>
       <r>   -0.8966    0.0000 </r>
       <r>   -0.8224    0.0000 </r>
       <r>   -0.8053    0.0000 </r>
       <r>   -0.6972    0.0000 </r>
       <r>   -0.6428    0.0000 </r>
       <r>   -0.4826    0.0000 </r>
       <r>   -0.3999    0.0000 </r>
       <r>   -0.3268    0.0000 </r>
       <r>   -0.1953    0.0000 </r>
       <r>   -0.0171    0.0000 </r>
       <r>    0.1857    0.0000 </r>
       <r>    0.4073    0.0000 </r>
       <r>    0.5641    0.0000 </r>
       <r>    0.7523    0.0000 </r>
       <r>    1.0035    0.0000 </r>
       <r>    1.0945    0.0000 </r>
       <r>    1.2011    0.0000 </r>
       <r>    1.4159    0.0000 </r>
       <r>    2.1137    0.0000 </r>
       <r>    2.2778    0.0000 </r>
       <r>    2.3780    0.0000 </r>
      </set>
      <set comment="kpoint 32">
       <r>  -17.5099    1.0000 </r>
       <r>  -17.1442    1.0000 </r>
       <r>  -17.0680    1.0000 </r>
       <r>  -16.6069    1.0000 </r>
       <r>  -16.4032    1.0000 </r>
       <r>  -16.3522    1.0000 </r>
       <r>  -16.2724    1.0000 </r>
       <r>  -16.2156    1.0000 </r>
       <r>  -16.0839    1.0000 </r>
       <r>  -16.0279    1.0000 </r>
       <r>  -15.9849    1.0000 </r>
       <r>  -15.9115    1.0000 </r>
       <r>  -15.8106    1.0000 </r>
       <r>  -15.7313    1.0000 </r>
       <r>  -15.6321    1.0000 </r>
       <r>  -15.5482    1.0000 </r>
       <r>  -15.4472    1.0000 </r>
       <r>  -15.3292    1.0000 </r>
       <r>   -9.6049    1.0000 </r>
       <r>   -9.5405    1.0000 </r>
       <r>   -9.3729    1.0000 </r>
       <r>   -8.9152    1.0000 </r>
       <r>   -8.7486    1.0000 </r>
       <r>   -8.5377    1.0000 </r>
       <r>   -8.5166    1.0000 </r>
       <r>   -8.4551    1.0000 </r>
       <r>   -8.3998    1.0000 </r>
       <r>   -8.3279    1.0000 </r>
       <r>   -8.2675    1.0000 </r>
       <r>   -8.2281    1.0000 </r>
       <r>   -8.1887    1.0000 </r>
       <r>   -8.1309    1.0000 </r>
       <r>   -8.0819    1.0000 </r>
       <r>   -7.9354    1.0000 </r>
       <r>   -7.8013    1.0000 </r>
       <r>   -7.6306    1.0000 </r>
       <r>   -7.5298    1.0000 </r>
       <r>   -7.4640    1.0000 </r>
       <r>   -7.2922    1.0000 </r>
       <r>   -7.2543    1.0000 </r>
       <r>   -7.1501    1.0000 </r>
       <r>   -7.0732    1.0000 </r>
       <r>   -7.0016    1.0000 </r>
       <r>   -6.9666    1.0000 </r>
       <r>   -6.8750    1.0000 </r>
       <r>   -6.8095    1.0000 </r>
       <r>   -6.7249    1.0000 </r>
       <r>   -6.6642    1.0000 </r>
       <r>   -6.5676    1.0000 </r>
       <r>   -6.4668    1.0000 </r>
       <r>   -6.3935    1.0000 </r>
       <r>   -6.3816    1.0000 </r>
       <r>   -6.2743    1.0000 </r>
       <r>   -6.2365    1.0000 </r>
       <r>   -6.1505    1.0000 </r>
       <r>   -6.0766    1.0000 </r>
       <r>   -5.9630    1.0000 </r>
       <r>   -5.9030    1.0000 </r>
       <r>   -5.8710    1.0000 </r>
       <r>   -5.7985    1.0000 </r>
       <r>   -5.6672    1.0000 </r>
       <r>   -5.6105    1.0000 </r>
       <r>   -5.5529    1.0000 </r>
       <r>   -5.4198    1.0000 </r>
       <r>   -5.3139    1.0000 </r>
       <r>   -5.2296    1.0000 </r>
       <r>   -5.0853    1.0000 </r>
       <r>   -4.9124    1.0000 </r>
       <r>   -4.8950    1.0000 </r>
       <r>   -4.6833    1.0000 </r>
       <r>   -4.5877    1.0000 </r>
       <r>   -4.4394    1.0000 </r>
       <r>   -4.4014    1.0000 </r>
       <r>   -4.2978    1.0000 </r>
       <r>   -4.2098    1.0000 </r>
       <r>   -4.0198    1.0000 </r>
       <r>   -3.8234    0.9999 </r>
       <r>   -3.6884    0.9971 </r>
       <r>   -3.4986    0.9222 </r>
       <r>   -3.3203    0.5633 </r>
       <r>   -2.9996    0.0175 </r>
       <r>   -2.8188    0.0004 </r>
       <r>   -2.5917    0.0000 </r>
       <r>   -2.4982    0.0000 </r>
       <r>   -2.4478    0.0000 </r>
       <r>   -2.3357    0.0000 </r>
       <r>   -2.3059    0.0000 </r>
       <r>   -2.2001    0.0000 </r>
       <r>   -2.0335    0.0000 </r>
       <r>   -1.9493    0.0000 </r>
       <r>   -1.8956    0.0000 </r>
       <r>   -1.6717    0.0000 </r>
       <r>   -1.5261    0.0000 </r>
       <r>   -1.3263    0.0000 </r>
       <r>   -1.2878    0.0000 </r>
       <r>   -1.0993    0.0000 </r>
       <r>   -1.0823    0.0000 </r>
       <r>   -1.0510    0.0000 </r>
       <r>   -0.9961    0.0000 </r>
       <r>   -0.8974    0.0000 </r>
       <r>   -0.8362    0.0000 </r>
       <r>   -0.7870    0.0000 </r>
       <r>   -0.7023    0.0000 </r>
       <r>   -0.6296    0.0000 </r>
       <r>   -0.5396    0.0000 </r>
       <r>   -0.4039    0.0000 </r>
       <r>   -0.2174    0.0000 </r>
       <r>   -0.1434    0.0000 </r>
       <r>    0.0779    0.0000 </r>
       <r>    0.1517    0.0000 </r>
       <r>    0.3483    0.0000 </r>
       <r>    0.5668    0.0000 </r>
       <r>    0.7280    0.0000 </r>
       <r>    0.9653    0.0000 </r>
       <r>    1.0514    0.0000 </r>
       <r>    1.2206    0.0000 </r>
       <r>    1.4273    0.0000 </r>
       <r>    2.0810    0.0000 </r>
       <r>    2.2502    0.0000 </r>
       <r>    2.5423    0.0000 </r>
      </set>
      <set comment="kpoint 33">
       <r>  -17.5044    1.0000 </r>
       <r>  -17.2336    1.0000 </r>
       <r>  -16.9298    1.0000 </r>
       <r>  -16.6128    1.0000 </r>
       <r>  -16.5005    1.0000 </r>
       <r>  -16.3833    1.0000 </r>
       <r>  -16.2703    1.0000 </r>
       <r>  -16.1716    1.0000 </r>
       <r>  -16.0533    1.0000 </r>
       <r>  -16.0052    1.0000 </r>
       <r>  -15.9707    1.0000 </r>
       <r>  -15.9220    1.0000 </r>
       <r>  -15.8109    1.0000 </r>
       <r>  -15.7476    1.0000 </r>
       <r>  -15.6234    1.0000 </r>
       <r>  -15.5493    1.0000 </r>
       <r>  -15.4514    1.0000 </r>
       <r>  -15.3406    1.0000 </r>
       <r>   -9.6857    1.0000 </r>
       <r>   -9.4160    1.0000 </r>
       <r>   -9.2846    1.0000 </r>
       <r>   -8.9321    1.0000 </r>
       <r>   -8.8702    1.0000 </r>
       <r>   -8.7255    1.0000 </r>
       <r>   -8.5268    1.0000 </r>
       <r>   -8.4520    1.0000 </r>
       <r>   -8.3652    1.0000 </r>
       <r>   -8.3142    1.0000 </r>
       <r>   -8.2729    1.0000 </r>
       <r>   -8.2275    1.0000 </r>
       <r>   -8.1377    1.0000 </r>
       <r>   -8.0813    1.0000 </r>
       <r>   -8.0092    1.0000 </r>
       <r>   -7.8508    1.0000 </r>
       <r>   -7.8068    1.0000 </r>
       <r>   -7.6496    1.0000 </r>
       <r>   -7.6026    1.0000 </r>
       <r>   -7.4559    1.0000 </r>
       <r>   -7.2771    1.0000 </r>
       <r>   -7.2170    1.0000 </r>
       <r>   -7.1114    1.0000 </r>
       <r>   -7.0769    1.0000 </r>
       <r>   -7.0408    1.0000 </r>
       <r>   -7.0004    1.0000 </r>
       <r>   -6.8859    1.0000 </r>
       <r>   -6.7859    1.0000 </r>
       <r>   -6.6946    1.0000 </r>
       <r>   -6.6205    1.0000 </r>
       <r>   -6.5571    1.0000 </r>
       <r>   -6.5337    1.0000 </r>
       <r>   -6.4121    1.0000 </r>
       <r>   -6.3572    1.0000 </r>
       <r>   -6.2724    1.0000 </r>
       <r>   -6.2483    1.0000 </r>
       <r>   -6.1629    1.0000 </r>
       <r>   -6.0571    1.0000 </r>
       <r>   -6.0071    1.0000 </r>
       <r>   -5.9308    1.0000 </r>
       <r>   -5.8694    1.0000 </r>
       <r>   -5.8440    1.0000 </r>
       <r>   -5.7364    1.0000 </r>
       <r>   -5.6766    1.0000 </r>
       <r>   -5.5857    1.0000 </r>
       <r>   -5.3671    1.0000 </r>
       <r>   -5.2434    1.0000 </r>
       <r>   -5.1950    1.0000 </r>
       <r>   -5.0528    1.0000 </r>
       <r>   -4.8781    1.0000 </r>
       <r>   -4.8063    1.0000 </r>
       <r>   -4.7137    1.0000 </r>
       <r>   -4.5880    1.0000 </r>
       <r>   -4.4469    1.0000 </r>
       <r>   -4.3931    1.0000 </r>
       <r>   -4.2955    1.0000 </r>
       <r>   -4.2232    1.0000 </r>
       <r>   -4.0168    1.0000 </r>
       <r>   -3.8784    1.0000 </r>
       <r>   -3.6614    0.9949 </r>
       <r>   -3.4915    0.9146 </r>
       <r>   -3.3892    0.7409 </r>
       <r>   -3.0191    0.0244 </r>
       <r>   -2.7692    0.0001 </r>
       <r>   -2.6197    0.0000 </r>
       <r>   -2.4900    0.0000 </r>
       <r>   -2.4061    0.0000 </r>
       <r>   -2.3447    0.0000 </r>
       <r>   -2.2903    0.0000 </r>
       <r>   -2.1952    0.0000 </r>
       <r>   -2.0232    0.0000 </r>
       <r>   -1.9390    0.0000 </r>
       <r>   -1.8409    0.0000 </r>
       <r>   -1.7030    0.0000 </r>
       <r>   -1.5361    0.0000 </r>
       <r>   -1.3215    0.0000 </r>
       <r>   -1.2949    0.0000 </r>
       <r>   -1.1341    0.0000 </r>
       <r>   -1.1210    0.0000 </r>
       <r>   -1.0606    0.0000 </r>
       <r>   -1.0129    0.0000 </r>
       <r>   -0.9285    0.0000 </r>
       <r>   -0.8422    0.0000 </r>
       <r>   -0.7830    0.0000 </r>
       <r>   -0.7079    0.0000 </r>
       <r>   -0.6333    0.0000 </r>
       <r>   -0.5248    0.0000 </r>
       <r>   -0.3646    0.0000 </r>
       <r>   -0.2452    0.0000 </r>
       <r>   -0.0487    0.0000 </r>
       <r>    0.0794    0.0000 </r>
       <r>    0.1763    0.0000 </r>
       <r>    0.3309    0.0000 </r>
       <r>    0.5271    0.0000 </r>
       <r>    0.6810    0.0000 </r>
       <r>    0.9570    0.0000 </r>
       <r>    1.0451    0.0000 </r>
       <r>    1.2674    0.0000 </r>
       <r>    1.4726    0.0000 </r>
       <r>    2.1117    0.0000 </r>
       <r>    2.2810    0.0000 </r>
       <r>    2.3686    0.0000 </r>
      </set>
      <set comment="kpoint 34">
       <r>  -17.4912    1.0000 </r>
       <r>  -17.2891    1.0000 </r>
       <r>  -16.7653    1.0000 </r>
       <r>  -16.6892    1.0000 </r>
       <r>  -16.5869    1.0000 </r>
       <r>  -16.3921    1.0000 </r>
       <r>  -16.2554    1.0000 </r>
       <r>  -16.1755    1.0000 </r>
       <r>  -16.0473    1.0000 </r>
       <r>  -15.9889    1.0000 </r>
       <r>  -15.9297    1.0000 </r>
       <r>  -15.9131    1.0000 </r>
       <r>  -15.8265    1.0000 </r>
       <r>  -15.7588    1.0000 </r>
       <r>  -15.6187    1.0000 </r>
       <r>  -15.5445    1.0000 </r>
       <r>  -15.4581    1.0000 </r>
       <r>  -15.3517    1.0000 </r>
       <r>   -9.7266    1.0000 </r>
       <r>   -9.2870    1.0000 </r>
       <r>   -9.1611    1.0000 </r>
       <r>   -9.0439    1.0000 </r>
       <r>   -8.9730    1.0000 </r>
       <r>   -8.8362    1.0000 </r>
       <r>   -8.5387    1.0000 </r>
       <r>   -8.4640    1.0000 </r>
       <r>   -8.3790    1.0000 </r>
       <r>   -8.2800    1.0000 </r>
       <r>   -8.2605    1.0000 </r>
       <r>   -8.2246    1.0000 </r>
       <r>   -8.1231    1.0000 </r>
       <r>   -8.0441    1.0000 </r>
       <r>   -7.9399    1.0000 </r>
       <r>   -7.8578    1.0000 </r>
       <r>   -7.7994    1.0000 </r>
       <r>   -7.6301    1.0000 </r>
       <r>   -7.5680    1.0000 </r>
       <r>   -7.3987    1.0000 </r>
       <r>   -7.3802    1.0000 </r>
       <r>   -7.2154    1.0000 </r>
       <r>   -7.1283    1.0000 </r>
       <r>   -7.0860    1.0000 </r>
       <r>   -7.0252    1.0000 </r>
       <r>   -7.0013    1.0000 </r>
       <r>   -6.8834    1.0000 </r>
       <r>   -6.7450    1.0000 </r>
       <r>   -6.6712    1.0000 </r>
       <r>   -6.6157    1.0000 </r>
       <r>   -6.5802    1.0000 </r>
       <r>   -6.4681    1.0000 </r>
       <r>   -6.4234    1.0000 </r>
       <r>   -6.3879    1.0000 </r>
       <r>   -6.2705    1.0000 </r>
       <r>   -6.2528    1.0000 </r>
       <r>   -6.2469    1.0000 </r>
       <r>   -6.0665    1.0000 </r>
       <r>   -6.0508    1.0000 </r>
       <r>   -5.9555    1.0000 </r>
       <r>   -5.8469    1.0000 </r>
       <r>   -5.8263    1.0000 </r>
       <r>   -5.7479    1.0000 </r>
       <r>   -5.6851    1.0000 </r>
       <r>   -5.6574    1.0000 </r>
       <r>   -5.4027    1.0000 </r>
       <r>   -5.2649    1.0000 </r>
       <r>   -5.0576    1.0000 </r>
       <r>   -4.9679    1.0000 </r>
       <r>   -4.8836    1.0000 </r>
       <r>   -4.8244    1.0000 </r>
       <r>   -4.6753    1.0000 </r>
       <r>   -4.5779    1.0000 </r>
       <r>   -4.4850    1.0000 </r>
       <r>   -4.3671    1.0000 </r>
       <r>   -4.2833    1.0000 </r>
       <r>   -4.2434    1.0000 </r>
       <r>   -4.0245    1.0000 </r>
       <r>   -3.9057    1.0000 </r>
       <r>   -3.6174    0.9881 </r>
       <r>   -3.5287    0.9487 </r>
       <r>   -3.4351    0.8341 </r>
       <r>   -3.0135    0.0222 </r>
       <r>   -2.7434    0.0000 </r>
       <r>   -2.6395    0.0000 </r>
       <r>   -2.4863    0.0000 </r>
       <r>   -2.3822    0.0000 </r>
       <r>   -2.3469    0.0000 </r>
       <r>   -2.2953    0.0000 </r>
       <r>   -2.1901    0.0000 </r>
       <r>   -2.0242    0.0000 </r>
       <r>   -1.9250    0.0000 </r>
       <r>   -1.8212    0.0000 </r>
       <r>   -1.7099    0.0000 </r>
       <r>   -1.5363    0.0000 </r>
       <r>   -1.3279    0.0000 </r>
       <r>   -1.2543    0.0000 </r>
       <r>   -1.1753    0.0000 </r>
       <r>   -1.1604    0.0000 </r>
       <r>   -1.0552    0.0000 </r>
       <r>   -1.0198    0.0000 </r>
       <r>   -0.9439    0.0000 </r>
       <r>   -0.8444    0.0000 </r>
       <r>   -0.7879    0.0000 </r>
       <r>   -0.7043    0.0000 </r>
       <r>   -0.6561    0.0000 </r>
       <r>   -0.4451    0.0000 </r>
       <r>   -0.3963    0.0000 </r>
       <r>   -0.2598    0.0000 </r>
       <r>   -0.0325    0.0000 </r>
       <r>    0.1139    0.0000 </r>
       <r>    0.1337    0.0000 </r>
       <r>    0.3792    0.0000 </r>
       <r>    0.4874    0.0000 </r>
       <r>    0.6483    0.0000 </r>
       <r>    0.9759    0.0000 </r>
       <r>    1.0430    0.0000 </r>
       <r>    1.2961    0.0000 </r>
       <r>    1.4988    0.0000 </r>
       <r>    2.1926    0.0000 </r>
       <r>    2.2215    0.0000 </r>
       <r>    2.3717    0.0000 </r>
      </set>
     </set>
    </set>
   </array>
  </eigenvalues>
  <separator name="orbital magnetization" >
   <v name="MAGDIPOLOUT">      0.00000000      0.00000000      0.00000000</v>
  </separator>
 </calculation>
 <structure name="finalpos" >
  <crystal>
   <varray name="basis" >
    <v>       8.40212344       4.82737275       0.00000000 </v>
    <v>      -8.40640320       4.83442777       0.00000000 </v>
    <v>       0.00000000       0.00000000      30.00000000 </v>
   </varray>
   <i name="volume">   2436.00901785 </i>
   <varray name="rec_basis" >
    <v>       0.05953707       0.10352675       0.00000000 </v>
    <v>      -0.05945018       0.10347404       0.00000000 </v>
    <v>       0.00000000       0.00000000       0.03333333 </v>
   </varray>
  </crystal>
  <varray name="positions" >
   <v>      -0.01737509       0.68723395      -0.00038451 </v>
   <v>       0.66248938       0.36330686      -0.00052676 </v>
   <v>       0.31369043       0.33877107      -0.00094191 </v>
   <v>      -0.02228087       0.00108054      -0.00021536 </v>
   <v>       0.67856899       0.68534719       0.00032360 </v>
   <v>       0.66944754      -0.02131559       0.00037805 </v>
   <v>       0.97806389       0.29511998      -0.00083649 </v>
   <v>       0.35458223      -0.02375172       0.00152494 </v>
   <v>       0.36524205       0.68250952       0.00054189 </v>
   <v>       0.11070065       0.22169105       0.94614502 </v>
   <v>       0.23007731       0.10847514       0.04265500 </v>
   <v>       0.10770057       0.55533132       0.96018002 </v>
   <v>       0.21664972       0.43827072       0.04953179 </v>
   <v>       0.11804044       0.89362808       0.95190990 </v>
   <v>       0.21868181       0.76673977       0.05060356 </v>
   <v>       0.44420241       0.22294015       0.95360026 </v>
   <v>       0.56916266       0.12249904       0.04797569 </v>
   <v>       0.44585923       0.54982896       0.94880023 </v>
   <v>       0.54648348       0.44333941       0.04879519 </v>
   <v>       0.45287564       0.88263951       0.94434114 </v>
   <v>       0.56030584       0.77538326       0.05731001 </v>
   <v>       0.76727054       0.21798346       0.95063057 </v>
   <v>       0.88357666       0.10567938       0.05674401 </v>
   <v>       0.78389510       0.56393322       0.94812296 </v>
   <v>       0.88742884       0.45043321       0.04502591 </v>
   <v>       0.78006274       0.88837444       0.94332608 </v>
   <v>       0.89281227       0.78274253       0.05443912 </v>
  </varray>
 </structure>
</modeling>
