   27   27  100    1
  0.9710400E+02  0.1002848E-08  0.1002848E-08  0.3000000E-08  0.5000000E-15
  1.000000000000000E-004
  CAR 
 unknown system                          
    159     34    120
 
  0.0000000E+00  0.0000000E+00  0.0000000E+00  0.1562500E-01
    1      -17.797752   1.000000
    2      -16.658716   1.000000
    3      -16.639117   1.000000
    4      -16.554571   1.000000
    5      -16.485633   1.000000
    6      -16.452870   1.000000
    7      -16.417213   1.000000
    8      -16.286904   1.000000
    9      -16.143012   1.000000
   10      -16.100124   1.000000
   11      -16.025548   1.000000
   12      -15.915523   1.000000
   13      -15.884946   1.000000
   14      -15.831831   1.000000
   15      -15.570677   1.000000
   16      -15.506737   1.000000
   17      -15.424831   1.000000
   18      -15.352334   1.000000
   19       -9.321778   1.000000
   20       -8.933807   1.000000
   21       -8.859384   1.000000
   22       -8.851663   1.000000
   23       -8.705893   1.000000
   24       -8.665938   1.000000
   25       -8.576183   1.000000
   26       -8.562298   1.000000
   27       -8.512710   1.000000
   28       -8.432694   1.000000
   29       -8.406359   1.000000
   30       -8.398047   1.000000
   31       -8.306158   1.000000
   32       -8.171843   1.000000
   33       -8.124561   1.000000
   34       -8.036293   1.000000
   35       -7.852167   1.000000
   36       -7.762093   1.000000
   37       -7.739157   1.000000
   38       -7.532154   1.000000
   39       -7.504982   1.000000
   40       -7.438184   1.000000
   41       -7.404938   1.000000
   42       -7.167618   1.000000
   43       -7.134461   1.000000
   44       -6.933491   1.000000
   45       -6.807896   1.000000
   46       -6.747321   1.000000
   47       -6.695794   1.000000
   48       -6.681339   1.000000
   49       -6.617382   1.000000
   50       -6.493316   1.000000
   51       -6.469482   1.000000
   52       -6.418087   1.000000
   53       -6.366353   1.000000
   54       -6.226039   1.000000
   55       -6.203855   1.000000
   56       -6.140080   1.000000
   57       -5.933001   1.000000
   58       -5.822153   1.000000
   59       -5.775493   1.000000
   60       -5.647350   1.000000
   61       -5.420134   1.000000
   62       -5.338006   1.000000
   63       -5.249551   1.000000
   64       -5.200984   1.000000
   65       -5.049060   1.000000
   66       -4.965135   1.000000
   67       -4.902493   1.000000
   68       -4.870872   1.000000
   69       -4.790588   1.000000
   70       -4.622203   1.000000
   71       -4.611534   1.000000
   72       -4.565170   1.000000
   73       -4.460828   1.000000
   74       -4.415767   1.000000
   75       -4.252772   1.000000
   76       -3.984765   1.000000
   77       -3.737065   0.999260
   78       -3.599500   0.986299
   79       -3.409100   0.804943
   80       -3.363782   0.705045
   81       -3.326258   0.607815
   82       -2.858306   0.001202
   83       -2.752694   0.000078
   84       -2.699293   0.000016
   85       -2.595910   0.000001
   86       -2.484954   0.000000
   87       -2.419819   0.000000
   88       -2.305284   0.000000
   89       -2.179649   0.000000
   90       -2.064539   0.000000
   91       -1.713112   0.000000
   92       -1.620080   0.000000
   93       -1.438863   0.000000
   94       -1.334248   0.000000
   95       -1.287701   0.000000
   96       -1.158398   0.000000
   97       -1.026376   0.000000
   98       -0.940873   0.000000
   99       -0.739878   0.000000
  100       -0.590191   0.000000
  101       -0.564647   0.000000
  102       -0.516582   0.000000
  103       -0.410398   0.000000
  104       -0.280836   0.000000
  105       -0.169121   0.000000
  106        0.037901   0.000000
  107        0.075121   0.000000
  108        0.110053   0.000000
  109        0.197123   0.000000
  110        0.251681   0.000000
  111        0.343868   0.000000
  112        0.500068   0.000000
  113        0.613316   0.000000
  114        0.779207   0.000000
  115        0.825570   0.000000
  116        1.026556   0.000000
  117        1.093592   0.000000
  118        1.656913   0.000000
  119        1.840434   0.000000
  120        2.161343   0.000000
 
  0.1250000E+00  0.2775558E-16  0.0000000E+00  0.3125000E-01
    1      -17.772739   1.000000
    2      -16.771721   1.000000
    3      -16.654518   1.000000
    4      -16.566258   1.000000
    5      -16.522817   1.000000
    6      -16.440734   1.000000
    7      -16.338701   1.000000
    8      -16.295589   1.000000
    9      -16.112872   1.000000
   10      -16.079908   1.000000
   11      -16.009502   1.000000
   12      -15.907601   1.000000
   13      -15.876978   1.000000
   14      -15.796865   1.000000
   15      -15.578981   1.000000
   16      -15.516809   1.000000
   17      -15.440117   1.000000
   18      -15.354183   1.000000
   19       -9.328432   1.000000
   20       -9.083916   1.000000
   21       -8.983414   1.000000
   22       -8.908574   1.000000
   23       -8.769494   1.000000
   24       -8.650679   1.000000
   25       -8.621083   1.000000
   26       -8.553772   1.000000
   27       -8.517958   1.000000
   28       -8.473181   1.000000
   29       -8.372780   1.000000
   30       -8.270505   1.000000
   31       -8.190669   1.000000
   32       -8.126551   1.000000
   33       -8.040504   1.000000
   34       -7.905466   1.000000
   35       -7.793338   1.000000
   36       -7.744908   1.000000
   37       -7.652218   1.000000
   38       -7.621182   1.000000
   39       -7.532364   1.000000
   40       -7.443151   1.000000
   41       -7.331962   1.000000
   42       -7.163499   1.000000
   43       -7.125111   1.000000
   44       -7.011788   1.000000
   45       -6.842090   1.000000
   46       -6.782746   1.000000
   47       -6.713500   1.000000
   48       -6.644620   1.000000
   49       -6.591419   1.000000
   50       -6.486826   1.000000
   51       -6.456940   1.000000
   52       -6.403467   1.000000
   53       -6.370166   1.000000
   54       -6.245874   1.000000
   55       -6.205046   1.000000
   56       -6.160208   1.000000
   57       -5.963569   1.000000
   58       -5.848315   1.000000
   59       -5.683526   1.000000
   60       -5.637893   1.000000
   61       -5.398856   1.000000
   62       -5.341646   1.000000
   63       -5.283598   1.000000
   64       -5.215227   1.000000
   65       -5.169912   1.000000
   66       -5.086221   1.000000
   67       -4.998875   1.000000
   68       -4.822321   1.000000
   69       -4.759230   1.000000
   70       -4.719393   1.000000
   71       -4.647062   1.000000
   72       -4.443470   1.000000
   73       -4.400340   1.000000
   74       -4.250414   1.000000
   75       -4.158154   1.000000
   76       -3.968377   0.999999
   77       -3.797759   0.999846
   78       -3.735994   0.999240
   79       -3.561622   0.973683
   80       -3.267843   0.444557
   81       -3.217423   0.309966
   82       -2.865659   0.001426
   83       -2.786558   0.000198
   84       -2.683502   0.000010
   85       -2.564147   0.000000
   86       -2.481050   0.000000
   87       -2.394104   0.000000
   88       -2.303058   0.000000
   89       -2.169556   0.000000
   90       -2.046451   0.000000
   91       -1.718327   0.000000
   92       -1.626419   0.000000
   93       -1.448022   0.000000
   94       -1.325824   0.000000
   95       -1.272224   0.000000
   96       -1.142694   0.000000
   97       -1.033601   0.000000
   98       -0.918898   0.000000
   99       -0.782841   0.000000
  100       -0.691230   0.000000
  101       -0.582266   0.000000
  102       -0.546330   0.000000
  103       -0.446257   0.000000
  104       -0.343277   0.000000
  105       -0.237602   0.000000
  106       -0.056351   0.000000
  107        0.028225   0.000000
  108        0.114770   0.000000
  109        0.146796   0.000000
  110        0.282560   0.000000
  111        0.400460   0.000000
  112        0.469599   0.000000
  113        0.608403   0.000000
  114        0.862477   0.000000
  115        0.909814   0.000000
  116        1.045881   0.000000
  117        1.101496   0.000000
  118        1.698969   0.000000
  119        1.880542   0.000000
  120        2.196106   0.000000
 
  0.2500000E+00  0.5551115E-16  0.0000000E+00  0.3125000E-01
    1      -17.698946   1.000000
    2      -16.981531   1.000000
    3      -16.680384   1.000000
    4      -16.609142   1.000000
    5      -16.555092   1.000000
    6      -16.393219   1.000000
    7      -16.323078   1.000000
    8      -16.247371   1.000000
    9      -16.099177   1.000000
   10      -16.039050   1.000000
   11      -15.961204   1.000000
   12      -15.897018   1.000000
   13      -15.800563   1.000000
   14      -15.747789   1.000000
   15      -15.604750   1.000000
   16      -15.533971   1.000000
   17      -15.471057   1.000000
   18      -15.365656   1.000000
   19       -9.485717   1.000000
   20       -9.199429   1.000000
   21       -9.110085   1.000000
   22       -9.011214   1.000000
   23       -8.898566   1.000000
   24       -8.773081   1.000000
   25       -8.586911   1.000000
   26       -8.484960   1.000000
   27       -8.470515   1.000000
   28       -8.406197   1.000000
   29       -8.298159   1.000000
   30       -8.231668   1.000000
   31       -8.143962   1.000000
   32       -8.107932   1.000000
   33       -7.871309   1.000000
   34       -7.798747   1.000000
   35       -7.750248   1.000000
   36       -7.683623   1.000000
   37       -7.577432   1.000000
   38       -7.504254   1.000000
   39       -7.441353   1.000000
   40       -7.411739   1.000000
   41       -7.257277   1.000000
   42       -7.187931   1.000000
   43       -7.116772   1.000000
   44       -7.064309   1.000000
   45       -6.850615   1.000000
   46       -6.762375   1.000000
   47       -6.720453   1.000000
   48       -6.701743   1.000000
   49       -6.590226   1.000000
   50       -6.532372   1.000000
   51       -6.483750   1.000000
   52       -6.394358   1.000000
   53       -6.300599   1.000000
   54       -6.207615   1.000000
   55       -6.155710   1.000000
   56       -6.132805   1.000000
   57       -5.993719   1.000000
   58       -5.866595   1.000000
   59       -5.704420   1.000000
   60       -5.625848   1.000000
   61       -5.581283   1.000000
   62       -5.490510   1.000000
   63       -5.434295   1.000000
   64       -5.325869   1.000000
   65       -5.228112   1.000000
   66       -5.090707   1.000000
   67       -5.004950   1.000000
   68       -4.821552   1.000000
   69       -4.743802   1.000000
   70       -4.669296   1.000000
   71       -4.587788   1.000000
   72       -4.378517   1.000000
   73       -4.305823   1.000000
   74       -4.186030   1.000000
   75       -4.079676   1.000000
   76       -3.960014   0.999999
   77       -3.921354   0.999996
   78       -3.811125   0.999893
   79       -3.580083   0.980701
   80       -3.234574   0.353953
   81       -3.109163   0.103571
   82       -2.884622   0.002191
   83       -2.823084   0.000511
   84       -2.654879   0.000004
   85       -2.537053   0.000000
   86       -2.463951   0.000000
   87       -2.340736   0.000000
   88       -2.279104   0.000000
   89       -2.146726   0.000000
   90       -1.989613   0.000000
   91       -1.722275   0.000000
   92       -1.641838   0.000000
   93       -1.471116   0.000000
   94       -1.313172   0.000000
   95       -1.239896   0.000000
   96       -1.118789   0.000000
   97       -1.061539   0.000000
   98       -0.936782   0.000000
   99       -0.857109   0.000000
  100       -0.846015   0.000000
  101       -0.668059   0.000000
  102       -0.597976   0.000000
  103       -0.519900   0.000000
  104       -0.444001   0.000000
  105       -0.350627   0.000000
  106       -0.234094   0.000000
  107       -0.114442   0.000000
  108       -0.017926   0.000000
  109        0.146057   0.000000
  110        0.297340   0.000000
  111        0.408640   0.000000
  112        0.510052   0.000000
  113        0.661509   0.000000
  114        0.984677   0.000000
  115        1.049350   0.000000
  116        1.061618   0.000000
  117        1.195211   0.000000
  118        1.817688   0.000000
  119        1.994137   0.000000
  120        2.299350   0.000000
 
  0.3750000E+00  0.0000000E+00  0.0000000E+00  0.3125000E-01
    1      -17.581734   1.000000
    2      -17.195127   1.000000
    3      -16.716188   1.000000
    4      -16.630214   1.000000
    5      -16.558626   1.000000
    6      -16.400698   1.000000
    7      -16.308828   1.000000
    8      -16.198811   1.000000
    9      -16.101281   1.000000
   10      -15.992461   1.000000
   11      -15.919236   1.000000
   12      -15.859812   1.000000
   13      -15.743767   1.000000
   14      -15.723832   1.000000
   15      -15.629524   1.000000
   16      -15.561536   1.000000
   17      -15.472207   1.000000
   18      -15.386560   1.000000
   19       -9.683382   1.000000
   20       -9.294271   1.000000
   21       -9.120794   1.000000
   22       -9.053992   1.000000
   23       -8.967310   1.000000
   24       -8.857201   1.000000
   25       -8.550557   1.000000
   26       -8.437691   1.000000
   27       -8.400548   1.000000
   28       -8.340126   1.000000
   29       -8.255717   1.000000
   30       -8.249540   1.000000
   31       -8.145132   1.000000
   32       -8.064997   1.000000
   33       -7.948331   1.000000
   34       -7.851057   1.000000
   35       -7.687839   1.000000
   36       -7.627554   1.000000
   37       -7.547002   1.000000
   38       -7.448362   1.000000
   39       -7.359369   1.000000
   40       -7.231133   1.000000
   41       -7.179766   1.000000
   42       -7.089852   1.000000
   43       -7.061985   1.000000
   44       -7.023909   1.000000
   45       -6.858900   1.000000
   46       -6.778033   1.000000
   47       -6.737343   1.000000
   48       -6.674588   1.000000
   49       -6.574782   1.000000
   50       -6.502452   1.000000
   51       -6.443786   1.000000
   52       -6.323072   1.000000
   53       -6.290504   1.000000
   54       -6.180379   1.000000
   55       -6.094523   1.000000
   56       -6.079820   1.000000
   57       -6.011158   1.000000
   58       -5.934517   1.000000
   59       -5.849326   1.000000
   60       -5.828390   1.000000
   61       -5.761583   1.000000
   62       -5.626134   1.000000
   63       -5.518983   1.000000
   64       -5.471543   1.000000
   65       -5.174645   1.000000
   66       -5.011711   1.000000
   67       -4.925709   1.000000
   68       -4.849629   1.000000
   69       -4.772848   1.000000
   70       -4.646125   1.000000
   71       -4.601474   1.000000
   72       -4.467561   1.000000
   73       -4.282731   1.000000
   74       -4.176820   1.000000
   75       -4.144856   1.000000
   76       -3.905614   0.999994
   77       -3.823471   0.999925
   78       -3.717655   0.998822
   79       -3.551184   0.968846
   80       -3.257286   0.415244
   81       -3.042928   0.041832
   82       -2.891289   0.002539
   83       -2.846342   0.000905
   84       -2.649822   0.000003
   85       -2.507569   0.000000
   86       -2.432796   0.000000
   87       -2.319281   0.000000
   88       -2.236471   0.000000
   89       -2.112118   0.000000
   90       -1.915111   0.000000
   91       -1.701779   0.000000
   92       -1.659325   0.000000
   93       -1.516107   0.000000
   94       -1.316632   0.000000
   95       -1.227692   0.000000
   96       -1.161414   0.000000
   97       -1.113757   0.000000
   98       -0.990431   0.000000
   99       -0.955665   0.000000
  100       -0.869799   0.000000
  101       -0.747881   0.000000
  102       -0.678614   0.000000
  103       -0.540500   0.000000
  104       -0.522583   0.000000
  105       -0.407649   0.000000
  106       -0.347628   0.000000
  107       -0.270044   0.000000
  108       -0.172239   0.000000
  109        0.105446   0.000000
  110        0.276302   0.000000
  111        0.419939   0.000000
  112        0.595474   0.000000
  113        0.686839   0.000000
  114        1.033462   0.000000
  115        1.099768   0.000000
  116        1.189549   0.000000
  117        1.290310   0.000000
  118        1.998147   0.000000
  119        2.167653   0.000000
  120        2.467680   0.000000
 
  0.5000000E+00  0.1110223E-15  0.0000000E+00  0.1562500E-01
    1      -17.471118   1.000000
    2      -17.339753   1.000000
    3      -16.730099   1.000000
    4      -16.639478   1.000000
    5      -16.553047   1.000000
    6      -16.412361   1.000000
    7      -16.300563   1.000000
    8      -16.186763   1.000000
    9      -16.095570   1.000000
   10      -15.974479   1.000000
   11      -15.902707   1.000000
   12      -15.813583   1.000000
   13      -15.777814   1.000000
   14      -15.696440   1.000000
   15      -15.633740   1.000000
   16      -15.583550   1.000000
   17      -15.458210   1.000000
   18      -15.399160   1.000000
   19       -9.757938   1.000000
   20       -9.333412   1.000000
   21       -9.147787   1.000000
   22       -9.056809   1.000000
   23       -8.957371   1.000000
   24       -8.872613   1.000000
   25       -8.567049   1.000000
   26       -8.437608   1.000000
   27       -8.363407   1.000000
   28       -8.316764   1.000000
   29       -8.278048   1.000000
   30       -8.192014   1.000000
   31       -8.098431   1.000000
   32       -8.040530   1.000000
   33       -8.004063   1.000000
   34       -7.913939   1.000000
   35       -7.732370   1.000000
   36       -7.634642   1.000000
   37       -7.544883   1.000000
   38       -7.390464   1.000000
   39       -7.384344   1.000000
   40       -7.163504   1.000000
   41       -7.069870   1.000000
   42       -7.058080   1.000000
   43       -6.983402   1.000000
   44       -6.953873   1.000000
   45       -6.893090   1.000000
   46       -6.785283   1.000000
   47       -6.733365   1.000000
   48       -6.638833   1.000000
   49       -6.507841   1.000000
   50       -6.488744   1.000000
   51       -6.406191   1.000000
   52       -6.335675   1.000000
   53       -6.313085   1.000000
   54       -6.209745   1.000000
   55       -6.162823   1.000000
   56       -6.081551   1.000000
   57       -6.058012   1.000000
   58       -5.938881   1.000000
   59       -5.887827   1.000000
   60       -5.818259   1.000000
   61       -5.748297   1.000000
   62       -5.629505   1.000000
   63       -5.562173   1.000000
   64       -5.522304   1.000000
   65       -5.290813   1.000000
   66       -5.043435   1.000000
   67       -4.939079   1.000000
   68       -4.876281   1.000000
   69       -4.757179   1.000000
   70       -4.657936   1.000000
   71       -4.527971   1.000000
   72       -4.461984   1.000000
   73       -4.354717   1.000000
   74       -4.163460   1.000000
   75       -4.140313   1.000000
   76       -3.861354   0.999975
   77       -3.785738   0.999786
   78       -3.668804   0.996489
   79       -3.533947   0.959265
   80       -3.277618   0.471976
   81       -3.023215   0.030797
   82       -2.881200   0.002030
   83       -2.863993   0.001372
   84       -2.648578   0.000003
   85       -2.492578   0.000000
   86       -2.419006   0.000000
   87       -2.311102   0.000000
   88       -2.222235   0.000000
   89       -2.089398   0.000000
   90       -1.878999   0.000000
   91       -1.679521   0.000000
   92       -1.655931   0.000000
   93       -1.564958   0.000000
   94       -1.328536   0.000000
   95       -1.245710   0.000000
   96       -1.192941   0.000000
   97       -1.123753   0.000000
   98       -1.020189   0.000000
   99       -0.961567   0.000000
  100       -0.904980   0.000000
  101       -0.754764   0.000000
  102       -0.729134   0.000000
  103       -0.556359   0.000000
  104       -0.514328   0.000000
  105       -0.430920   0.000000
  106       -0.398848   0.000000
  107       -0.318273   0.000000
  108       -0.243834   0.000000
  109        0.086734   0.000000
  110        0.268191   0.000000
  111        0.420756   0.000000
  112        0.624410   0.000000
  113        0.699476   0.000000
  114        1.036431   0.000000
  115        1.132971   0.000000
  116        1.242430   0.000000
  117        1.321586   0.000000
  118        2.215212   0.000000
  119        2.244828   0.000000
  120        2.376360   0.000000
 
  0.0000000E+00  0.1250000E+00  0.0000000E+00  0.3125000E-01
    1      -17.773005   1.000000
    2      -16.739459   1.000000
    3      -16.646842   1.000000
    4      -16.606262   1.000000
    5      -16.555186   1.000000
    6      -16.419399   1.000000
    7      -16.348276   1.000000
    8      -16.260607   1.000000
    9      -16.158877   1.000000
   10      -16.071344   1.000000
   11      -16.008470   1.000000
   12      -15.884920   1.000000
   13      -15.862042   1.000000
   14      -15.804331   1.000000
   15      -15.589049   1.000000
   16      -15.516928   1.000000
   17      -15.428044   1.000000
   18      -15.363179   1.000000
   19       -9.319109   1.000000
   20       -9.076291   1.000000
   21       -8.968923   1.000000
   22       -8.939727   1.000000
   23       -8.739250   1.000000
   24       -8.707354   1.000000
   25       -8.643977   1.000000
   26       -8.570401   1.000000
   27       -8.497186   1.000000
   28       -8.451276   1.000000
   29       -8.391028   1.000000
   30       -8.230644   1.000000
   31       -8.194127   1.000000
   32       -8.155529   1.000000
   33       -8.008375   1.000000
   34       -7.868738   1.000000
   35       -7.828485   1.000000
   36       -7.764705   1.000000
   37       -7.692277   1.000000
   38       -7.575404   1.000000
   39       -7.508886   1.000000
   40       -7.413871   1.000000
   41       -7.325963   1.000000
   42       -7.186726   1.000000
   43       -7.152116   1.000000
   44       -6.973206   1.000000
   45       -6.877791   1.000000
   46       -6.796246   1.000000
   47       -6.720318   1.000000
   48       -6.676091   1.000000
   49       -6.606606   1.000000
   50       -6.489209   1.000000
   51       -6.470551   1.000000
   52       -6.387064   1.000000
   53       -6.326491   1.000000
   54       -6.234775   1.000000
   55       -6.195469   1.000000
   56       -6.142607   1.000000
   57       -5.943990   1.000000
   58       -5.820302   1.000000
   59       -5.706749   1.000000
   60       -5.625000   1.000000
   61       -5.438263   1.000000
   62       -5.365218   1.000000
   63       -5.274881   1.000000
   64       -5.213043   1.000000
   65       -5.127057   1.000000
   66       -5.092000   1.000000
   67       -4.969623   1.000000
   68       -4.912428   1.000000
   69       -4.814678   1.000000
   70       -4.658483   1.000000
   71       -4.595807   1.000000
   72       -4.498683   1.000000
   73       -4.317817   1.000000
   74       -4.281157   1.000000
   75       -4.208330   1.000000
   76       -3.941810   0.999998
   77       -3.787052   0.999794
   78       -3.679130   0.997187
   79       -3.634407   0.992908
   80       -3.322443   0.597412
   81       -3.159222   0.182074
   82       -2.836741   0.000717
   83       -2.757834   0.000090
   84       -2.693523   0.000013
   85       -2.605166   0.000001
   86       -2.525381   0.000000
   87       -2.370848   0.000000
   88       -2.307933   0.000000
   89       -2.180008   0.000000
   90       -2.085661   0.000000
   91       -1.659673   0.000000
   92       -1.608386   0.000000
   93       -1.444162   0.000000
   94       -1.339809   0.000000
   95       -1.264855   0.000000
   96       -1.140835   0.000000
   97       -1.032459   0.000000
   98       -0.926117   0.000000
   99       -0.760138   0.000000
  100       -0.643486   0.000000
  101       -0.624555   0.000000
  102       -0.562769   0.000000
  103       -0.501858   0.000000
  104       -0.296751   0.000000
  105       -0.176724   0.000000
  106       -0.097957   0.000000
  107        0.033691   0.000000
  108        0.084448   0.000000
  109        0.135769   0.000000
  110        0.247474   0.000000
  111        0.370560   0.000000
  112        0.459866   0.000000
  113        0.631320   0.000000
  114        0.846644   0.000000
  115        0.938916   0.000000
  116        1.065922   0.000000
  117        1.133421   0.000000
  118        1.700149   0.000000
  119        1.879563   0.000000
  120        2.196558   0.000000
 
  0.1250000E+00  0.1250000E+00  0.0000000E+00  0.3125000E-01
    1      -17.724517   1.000000
    2      -16.861965   1.000000
    3      -16.780877   1.000000
    4      -16.601792   1.000000
    5      -16.474386   1.000000
    6      -16.426903   1.000000
    7      -16.320266   1.000000
    8      -16.268976   1.000000
    9      -16.102903   1.000000
   10      -16.036896   1.000000
   11      -15.989565   1.000000
   12      -15.912005   1.000000
   13      -15.793219   1.000000
   14      -15.762539   1.000000
   15      -15.607635   1.000000
   16      -15.537487   1.000000
   17      -15.451566   1.000000
   18      -15.363371   1.000000
   19       -9.377308   1.000000
   20       -9.224346   1.000000
   21       -9.118500   1.000000
   22       -9.034207   1.000000
   23       -8.796424   1.000000
   24       -8.667656   1.000000
   25       -8.616178   1.000000
   26       -8.553102   1.000000
   27       -8.485021   1.000000
   28       -8.434770   1.000000
   29       -8.310770   1.000000
   30       -8.234138   1.000000
   31       -8.138399   1.000000
   32       -8.063711   1.000000
   33       -8.002777   1.000000
   34       -7.825550   1.000000
   35       -7.793753   1.000000
   36       -7.710255   1.000000
   37       -7.576401   1.000000
   38       -7.537225   1.000000
   39       -7.427615   1.000000
   40       -7.334649   1.000000
   41       -7.253209   1.000000
   42       -7.233813   1.000000
   43       -7.153133   1.000000
   44       -7.058089   1.000000
   45       -6.848410   1.000000
   46       -6.805399   1.000000
   47       -6.755509   1.000000
   48       -6.691576   1.000000
   49       -6.627880   1.000000
   50       -6.517274   1.000000
   51       -6.465671   1.000000
   52       -6.339240   1.000000
   53       -6.297509   1.000000
   54       -6.270283   1.000000
   55       -6.164827   1.000000
   56       -6.120775   1.000000
   57       -5.957637   1.000000
   58       -5.861807   1.000000
   59       -5.711895   1.000000
   60       -5.567841   1.000000
   61       -5.528827   1.000000
   62       -5.430960   1.000000
   63       -5.345944   1.000000
   64       -5.251520   1.000000
   65       -5.185710   1.000000
   66       -5.129805   1.000000
   67       -5.056407   1.000000
   68       -5.005526   1.000000
   69       -4.770512   1.000000
   70       -4.647395   1.000000
   71       -4.518777   1.000000
   72       -4.373365   1.000000
   73       -4.277447   1.000000
   74       -4.195361   1.000000
   75       -4.148105   1.000000
   76       -3.986226   1.000000
   77       -3.879705   0.999986
   78       -3.768143   0.999661
   79       -3.586260   0.982662
   80       -3.323409   0.600054
   81       -3.077520   0.068743
   82       -2.850232   0.000993
   83       -2.788981   0.000211
   84       -2.661588   0.000005
   85       -2.599015   0.000001
   86       -2.493587   0.000000
   87       -2.349114   0.000000
   88       -2.299116   0.000000
   89       -2.159100   0.000000
   90       -2.052641   0.000000
   91       -1.680315   0.000000
   92       -1.611896   0.000000
   93       -1.441473   0.000000
   94       -1.332755   0.000000
   95       -1.236982   0.000000
   96       -1.119205   0.000000
   97       -1.050956   0.000000
   98       -0.913914   0.000000
   99       -0.826467   0.000000
  100       -0.781200   0.000000
  101       -0.665050   0.000000
  102       -0.600052   0.000000
  103       -0.563412   0.000000
  104       -0.364743   0.000000
  105       -0.299737   0.000000
  106       -0.173396   0.000000
  107       -0.116671   0.000000
  108        0.010786   0.000000
  109        0.148792   0.000000
  110        0.211974   0.000000
  111        0.348943   0.000000
  112        0.502301   0.000000
  113        0.682940   0.000000
  114        0.957844   0.000000
  115        1.008478   0.000000
  116        1.106099   0.000000
  117        1.215798   0.000000
  118        1.780025   0.000000
  119        1.957868   0.000000
  120        2.265608   0.000000
 
  0.2500000E+00  0.1250000E+00  0.0000000E+00  0.3125000E-01
    1      -17.629715   1.000000
    2      -17.069538   1.000000
    3      -16.859381   1.000000
    4      -16.587842   1.000000
    5      -16.453318   1.000000
    6      -16.387799   1.000000
    7      -16.334355   1.000000
    8      -16.229391   1.000000
    9      -16.111779   1.000000
   10      -15.979469   1.000000
   11      -15.948415   1.000000
   12      -15.896904   1.000000
   13      -15.766336   1.000000
   14      -15.706676   1.000000
   15      -15.626707   1.000000
   16      -15.557807   1.000000
   17      -15.469197   1.000000
   18      -15.373653   1.000000
   19       -9.572128   1.000000
   20       -9.350687   1.000000
   21       -9.244838   1.000000
   22       -9.037392   1.000000
   23       -8.860961   1.000000
   24       -8.682464   1.000000
   25       -8.539383   1.000000
   26       -8.443359   1.000000
   27       -8.419072   1.000000
   28       -8.355064   1.000000
   29       -8.288469   1.000000
   30       -8.242661   1.000000
   31       -8.188907   1.000000
   32       -8.069358   1.000000
   33       -7.981963   1.000000
   34       -7.886494   1.000000
   35       -7.862161   1.000000
   36       -7.615468   1.000000
   37       -7.476414   1.000000
   38       -7.388070   1.000000
   39       -7.336030   1.000000
   40       -7.261330   1.000000
   41       -7.179072   1.000000
   42       -7.151474   1.000000
   43       -7.098495   1.000000
   44       -7.034401   1.000000
   45       -6.859771   1.000000
   46       -6.819207   1.000000
   47       -6.757985   1.000000