       N       E                     dE             d eps       ncg     rms          rms(c)
DAV:   1     0.112378084587E+04    0.11238E+04   -0.35856E+04  8160   0.577E+02
DAV:   2    -0.524806845802E+01   -0.11290E+04   -0.10879E+04 11400   0.173E+02
DAV:   3    -0.200070584955E+03   -0.19482E+03   -0.18748E+03 10880   0.818E+01
DAV:   4    -0.208995115188E+03   -0.89245E+01   -0.86741E+01 12200   0.260E+01
DAV:   5    -0.209311643497E+03   -0.31653E+00   -0.31566E+00 11400   0.353E+00    0.275E+01
DAV:   6    -0.237177100747E+03   -0.27865E+02   -0.10589E+02 12480   0.604E+01    0.594E+01
DAV:   7    -0.196493824746E+03    0.40683E+02   -0.17640E+02 13320   0.152E+02    0.201E+01
DAV:   8    -0.189441994454E+03    0.70518E+01   -0.17459E+01 12040   0.127E+01    0.125E+01
DAV:   9    -0.188235999810E+03    0.12060E+01   -0.35806E+00 12520   0.614E+00    0.931E+00
DAV:  10    -0.187081186129E+03    0.11548E+01   -0.20096E+00 13240   0.736E+00    0.319E+00
DAV:  11    -0.187033065060E+03    0.48121E-01   -0.72269E-01 13600   0.323E+00    0.346E+00
DAV:  12    -0.187174001684E+03   -0.14094E+00   -0.11429E+00 12680   0.556E+00    0.483E+00
DAV:  13    -0.186930245331E+03    0.24376E+00   -0.48728E-01 13280   0.356E+00    0.218E+00
DAV:  14    -0.186880663442E+03    0.49582E-01   -0.11199E-01 13600   0.164E+00    0.665E-01
DAV:  15    -0.186879439280E+03    0.12242E-02   -0.29731E-02 12440   0.929E-01    0.932E-01
DAV:  16    -0.186875054572E+03    0.43847E-02   -0.13945E-02 13480   0.661E-01    0.590E-01
DAV:  17    -0.186871465075E+03    0.35895E-02   -0.97584E-03 12680   0.525E-01    0.217E-01
DAV:  18    -0.186871292426E+03    0.17265E-03   -0.20627E-03 11720   0.147E-01    0.154E-01
DAV:  19    -0.186870938505E+03    0.35392E-03   -0.90907E-04 11440   0.103E-01    0.508E-02
DAV:  20    -0.186871659985E+03   -0.72148E-03   -0.70229E-04  9160   0.609E-02    0.544E-02
DAV:  21    -0.186872211656E+03   -0.55167E-03   -0.22613E-04  8320   0.450E-02    0.331E-02
DAV:  22    -0.186873410914E+03   -0.11993E-02   -0.20296E-04  7520   0.446E-02    0.329E-02
DAV:  23    -0.186874639054E+03   -0.12281E-02   -0.13042E-04  7640   0.404E-02    0.108E-02
DAV:  24    -0.186875228563E+03   -0.58951E-03   -0.25857E-05  6640   0.130E-02    0.866E-03
DAV:  25    -0.186875607863E+03   -0.37930E-03   -0.15052E-05  5680   0.123E-02    0.480E-03
DAV:  26    -0.186875832353E+03   -0.22449E-03   -0.88384E-06  6800   0.707E-03    0.218E-03
DAV:  27    -0.186875930261E+03   -0.97908E-04   -0.37176E-06  7200   0.419E-03
   1 F= -.18687593E+03 E0= -.18670432E+03  d E =-.186876E+03
       N       E                     dE             d eps       ncg     rms          rms(c)
DAV:   1    -0.187499209114E+03   -0.62338E+00   -0.27012E+02  8160   0.349E+01    0.461E+00
DAV:   2    -0.189360551642E+03   -0.18613E+01   -0.20035E+01 12240   0.151E+01    0.864E+00
DAV:   3    -0.189378899347E+03   -0.18348E-01   -0.42589E+00 12400   0.121E+01    0.660E+00
DAV:   4    -0.188755544538E+03    0.62335E+00   -0.59401E-01 12440   0.458E+00    0.167E+00
DAV:   5    -0.188798796761E+03   -0.43252E-01   -0.34349E-01 11560   0.265E+00    0.359E+00
DAV:   6    -0.188762688217E+03    0.36109E-01   -0.52535E-01 12800   0.407E+00    0.309E+00
DAV:   7    -0.188689898624E+03    0.72790E-01   -0.20231E-01 12760   0.203E+00    0.107E+00
DAV:   8    -0.188674758323E+03    0.15140E-01   -0.55066E-02 11640   0.954E-01    0.889E-01
DAV:   9    -0.188669844951E+03    0.49134E-02   -0.16623E-02 12160   0.745E-01    0.507E-01
DAV:  10    -0.188668288961E+03    0.15560E-02   -0.50884E-03 13360   0.356E-01    0.247E-01
DAV:  11    -0.188667650169E+03    0.63879E-03   -0.28758E-03 12760   0.209E-01    0.132E-01
DAV:  12    -0.188667630654E+03    0.19515E-04   -0.98557E-04 11560   0.938E-02
   2 F= -.18866763E+03 E0= -.18852785E+03  d E =-.179170E+01
       N       E                     dE             d eps       ncg     rms          rms(c)
DAV:   1    -0.190584434139E+03   -0.19168E+01   -0.30813E+01  9200   0.141E+01    0.445E+00
DAV:   2    -0.190564614420E+03    0.19820E-01   -0.28024E+00 11040   0.964E+00    0.738E+00
DAV:   3    -0.190059730222E+03    0.50488E+00   -0.13015E+00 12280   0.865E+00    0.416E+00
DAV:   4    -0.189854014607E+03    0.20572E+00   -0.68783E-01 12680   0.413E+00    0.248E+00
DAV:   5    -0.189787975192E+03    0.66039E-01   -0.30947E-01 11040   0.234E+00    0.194E+00
DAV:   6    -0.189758173771E+03    0.29801E-01   -0.10373E-01 12640   0.192E+00    0.868E-01
DAV:   7    -0.189750331954E+03    0.78418E-02   -0.15439E-02 12520   0.605E-01    0.193E-01
DAV:   8    -0.189750337140E+03   -0.51863E-05   -0.26122E-03 11120   0.163E-01    0.139E-01
DAV:   9    -0.189750947426E+03   -0.61029E-03   -0.14173E-03 10520   0.241E-01    0.257E-01
DAV:  10    -0.189750746106E+03    0.20132E-03   -0.15007E-03 10600   0.268E-01    0.155E-01
DAV:  11    -0.189750454777E+03    0.29133E-03   -0.51201E-04  8720   0.114E-01    0.291E-02
DAV:  12    -0.189750471193E+03   -0.16416E-04   -0.84461E-05  6680   0.328E-02
   3 F= -.18975047E+03 E0= -.18963307E+03  d E =-.108284E+01
       N       E                     dE             d eps       ncg     rms          rms(c)
DAV:   1    -0.191287356933E+03   -0.15369E+01   -0.70373E+01  8160   0.192E+01    0.459E+00
DAV:   2    -0.191179338472E+03    0.10802E+00   -0.53557E+00 13400   0.835E+00    0.518E+00
DAV:   3    -0.191227798363E+03   -0.48460E-01   -0.15663E+00 11680   0.918E+00    0.684E+00
DAV:   4    -0.190904190256E+03    0.32361E+00   -0.15579E+00 12520   0.784E+00    0.412E+00
DAV:   5    -0.190890883778E+03    0.13306E-01   -0.87111E-01 11200   0.587E+00    0.359E+00
DAV:   6    -0.190708653017E+03    0.18223E+00   -0.20534E-01 11280   0.295E+00    0.604E-01
DAV:   7    -0.190707039562E+03    0.16135E-02   -0.36939E-02 11360   0.693E-01    0.451E-01
DAV:   8    -0.190703652117E+03    0.33874E-02   -0.72654E-03 10200   0.354E-01    0.166E-01
DAV:   9    -0.190704270013E+03   -0.61790E-03   -0.19652E-03 12360   0.294E-01    0.265E-01
DAV:  10    -0.190703990019E+03    0.27999E-03   -0.15896E-03 10880   0.274E-01    0.122E-01
DAV:  11    -0.190703849848E+03    0.14017E-03   -0.59561E-04 10280   0.107E-01    0.451E-02
DAV:  12    -0.190703857537E+03   -0.76890E-05   -0.13523E-04  7320   0.441E-02
   4 F= -.19070386E+03 E0= -.19060528E+03  d E =-.953386E+00
       N       E                     dE             d eps       ncg     rms          rms(c)
DAV:   1    -0.192124311971E+03   -0.14205E+01   -0.15158E+02  8160   0.276E+01    0.586E+00
DAV:   2    -0.191967675123E+03    0.15664E+00   -0.99429E+00 12200   0.959E+00    0.556E+00
DAV:   3    -0.192424196799E+03   -0.45652E+00   -0.33671E+00 12240   0.127E+01    0.948E+00
DAV:   4    -0.191545425888E+03    0.87877E+00   -0.22183E+00 12320   0.107E+01    0.305E+00
DAV:   5    -0.191517403938E+03    0.28022E-01   -0.55773E-01 11800   0.496E+00    0.422E+00
DAV:   6    -0.191375480875E+03    0.14192E+00   -0.61098E-01 12200   0.522E+00    0.161E+00
DAV:   7    -0.191350320912E+03    0.25160E-01   -0.72073E-02 11920   0.146E+00    0.694E-01
DAV:   8    -0.191348871653E+03    0.14493E-02   -0.25162E-02 12080   0.112E+00    0.762E-01
DAV:   9    -0.191343169147E+03    0.57025E-02   -0.10121E-02 11440   0.757E-01    0.233E-01
DAV:  10    -0.191343291593E+03   -0.12245E-03   -0.28239E-03 11640   0.227E-01    0.116E-01
DAV:  11    -0.191343164439E+03    0.12715E-03   -0.86595E-04 10720   0.108E-01    0.657E-02
DAV:  12    -0.191343125382E+03    0.39057E-04   -0.14273E-04  7200   0.484E-02
   5 F= -.19134313E+03 E0= -.19124969E+03  d E =-.639268E+00
       N       E                     dE             d eps       ncg     rms          rms(c)
DAV:   1    -0.191395178013E+03   -0.52014E-01   -0.47214E+00  8160   0.460E+00    0.639E-01
DAV:   2    -0.191456177799E+03   -0.61000E-01   -0.25261E-01 12480   0.267E+00    0.233E+00
DAV:   3    -0.191406371905E+03    0.49806E-01   -0.12247E-01 11920   0.234E+00    0.563E-01
DAV:   4    -0.191406600807E+03   -0.22890E-03   -0.16354E-02 11440   0.866E-01    0.603E-01
DAV:   5    -0.191402850034E+03    0.37508E-02   -0.74583E-03 11440   0.634E-01    0.195E-01
DAV:   6    -0.191402869063E+03   -0.19029E-04   -0.23407E-03 11440   0.297E-01    0.225E-01
DAV:   7    -0.191402894014E+03   -0.24951E-04   -0.25909E-03 11680   0.383E-01    0.220E-01
DAV:   8    -0.191402335928E+03    0.55809E-03   -0.93678E-04  9960   0.208E-01    0.311E-02
DAV:   9    -0.191402349462E+03   -0.13533E-04   -0.91278E-05  6000   0.376E-02
   6 F= -.19140235E+03 E0= -.19130652E+03  d E =-.592241E-01
       N       E                     dE             d eps       ncg     rms          rms(c)
DAV:   1    -0.191464357471E+03   -0.62022E-01   -0.80986E+00  8160   0.601E+00    0.801E-01
DAV:   2    -0.191561145591E+03   -0.96788E-01   -0.35824E-01 13080   0.327E+00    0.313E+00
DAV:   3    -0.191477390028E+03    0.83756E-01   -0.22944E-01 12080   0.304E+00    0.749E-01
DAV:   4    -0.191476901336E+03    0.48869E-03   -0.26805E-02 11640   0.111E+00    0.756E-01
DAV:   5    -0.191471134728E+03    0.57666E-02   -0.12315E-02 11640   0.792E-01    0.267E-01
DAV:   6    -0.191471254510E+03   -0.11978E-03   -0.45532E-03 11440   0.443E-01    0.334E-01
DAV:   7    -0.191470690751E+03    0.56376E-03   -0.41472E-03 11280   0.485E-01    0.219E-01
DAV:   8    -0.191470103214E+03    0.58754E-03   -0.11108E-03  9920   0.214E-01    0.392E-02
DAV:   9    -0.191470095656E+03    0.75581E-05   -0.12733E-04  6720   0.462E-02
   7 F= -.19147010E+03 E0= -.19137229E+03  d E =-.677462E-01
       N       E                     dE             d eps       ncg     rms          rms(c)
DAV:   1    -0.191503734458E+03   -0.33631E-01   -0.21601E+00  8160   0.314E+00    0.449E-01
DAV:   2    -0.191532547251E+03   -0.28813E-01   -0.11056E-01 12760   0.191E+00    0.167E+00
DAV:   3    -0.191506929942E+03    0.25617E-01   -0.59199E-02 12160   0.163E+00    0.378E-01
DAV:   4    -0.191507376057E+03   -0.44612E-03   -0.83311E-03 11520   0.625E-01    0.447E-01
DAV:   5    -0.191505391578E+03    0.19845E-02   -0.44389E-03 11320   0.468E-01    0.161E-01
DAV:   6    -0.191505487802E+03   -0.96225E-04   -0.17318E-03  9880   0.279E-01    0.205E-01
DAV:   7    -0.191505198151E+03    0.28965E-03   -0.14094E-03  9840   0.279E-01    0.110E-01
DAV:   8    -0.191505040330E+03    0.15782E-03   -0.30450E-04  7520   0.109E-01    0.234E-02
DAV:   9    -0.191505036992E+03    0.33381E-05   -0.54232E-05  6960   0.302E-02
   8 F= -.19150504E+03 E0= -.19140682E+03  d E =-.349413E-01
       N       E                     dE             d eps       ncg     rms          rms(c)
DAV:   1    -0.191557671562E+03   -0.52631E-01   -0.59237E+00  8160   0.519E+00    0.646E-01
DAV:   2    -0.191610928373E+03   -0.53257E-01   -0.23710E-01 13040   0.249E+00    0.226E+00
DAV:   3    -0.191567526162E+03    0.43402E-01   -0.12143E-01 12280   0.224E+00    0.589E-01
DAV:   4    -0.191568433092E+03   -0.90693E-03   -0.18231E-02 11480   0.913E-01    0.687E-01
DAV:   5    -0.191563660186E+03    0.47729E-02   -0.10249E-02 11240   0.729E-01    0.247E-01
DAV:   6    -0.191563640846E+03    0.19340E-04   -0.33937E-03 11520   0.382E-01    0.268E-01
DAV:   7    -0.191563412360E+03    0.22849E-03   -0.30433E-03 11200   0.427E-01    0.207E-01
DAV:   8    -0.191562830155E+03    0.58221E-03   -0.93334E-04  9640   0.213E-01    0.335E-02
DAV:   9    -0.191562828164E+03    0.19905E-05   -0.10086E-04  6760   0.405E-02
   9 F= -.19156283E+03 E0= -.19146584E+03  d E =-.577912E-01
       N       E                     dE             d eps       ncg     rms          rms(c)
DAV:   1    -0.191555899053E+03    0.69311E-02   -0.11092E-01  8160   0.709E-01    0.881E-02
DAV:   2    -0.191556766547E+03   -0.86749E-03   -0.42025E-03 12560   0.306E-01    0.277E-01
DAV:   3    -0.191556012866E+03    0.75368E-03   -0.17746E-03  9720   0.294E-01    0.796E-02
DAV:   4    -0.191555992343E+03    0.20523E-04   -0.22337E-04  5960   0.894E-02
  10 F= -.19155599E+03 E0= -.19145863E+03  d E =0.683582E-02
       N       E                     dE             d eps       ncg     rms          rms(c)
DAV:   1    -0.191558771647E+03   -0.27588E-02   -0.20058E-02  8160   0.321E-01    0.694E-02
DAV:   2    -0.191559053097E+03   -0.28145E-03   -0.15213E-03 10560   0.208E-01    0.181E-01
DAV:   3    -0.191558714402E+03    0.33870E-03   -0.78763E-04  9240   0.206E-01    0.603E-02
DAV:   4    -0.191558730617E+03   -0.16215E-04   -0.20040E-04  6480   0.995E-02
  11 F= -.19155873E+03 E0= -.19146176E+03  d E =-.273827E-02
       N       E                     dE             d eps       ncg     rms          rms(c)
DAV:   1    -0.191579983082E+03   -0.21269E-01   -0.74672E-01  8160   0.189E+00    0.268E-01
DAV:   2    -0.191582798149E+03   -0.28151E-02   -0.28682E-02 13440   0.700E-01    0.530E-01
DAV:   3    -0.191580828297E+03    0.19699E-02   -0.10298E-02 11600   0.679E-01    0.313E-01
DAV:   4    -0.191580439155E+03    0.38914E-03   -0.39875E-03 11560   0.411E-01    0.280E-01
DAV:   5    -0.191579737564E+03    0.70159E-03   -0.21648E-03  9720   0.346E-01    0.138E-01
DAV:   6    -0.191579548976E+03    0.18859E-03   -0.86143E-04  9800   0.168E-01    0.713E-02
DAV:   7    -0.191579549233E+03   -0.25743E-06   -0.35966E-04  8120   0.133E-01
  12 F= -.19157955E+03 E0= -.19148294E+03  d E =-.208186E-01
       N       E                     dE             d eps       ncg     rms          rms(c)
DAV:   1    -0.191605787005E+03   -0.26238E-01   -0.12610E+00  8160   0.240E+00    0.279E-01
DAV:   2    -0.191612545375E+03   -0.67584E-02   -0.42687E-02 12760   0.850E-01    0.708E-01
DAV:   3    -0.191607915214E+03    0.46302E-02   -0.14621E-02 12280   0.854E-01    0.287E-01
DAV:   4    -0.191607553503E+03    0.36171E-03   -0.28289E-03 10920   0.316E-01    0.231E-01
DAV:   5    -0.191607235358E+03    0.31815E-03   -0.20449E-03  9840   0.317E-01    0.175E-01
DAV:   6    -0.191606992732E+03    0.24263E-03   -0.89872E-04  9440   0.181E-01    0.732E-02
DAV:   7    -0.191606988311E+03    0.44210E-05   -0.31743E-04  8440   0.115E-01
  13 F= -.19160699E+03 E0= -.19151240E+03  d E =-.274391E-01
       N       E                     dE             d eps       ncg     rms          rms(c)
DAV:   1    -0.191637805877E+03   -0.30813E-01   -0.15948E+00  8160   0.270E+00    0.279E-01
DAV:   2    -0.191642124417E+03   -0.43185E-02   -0.47368E-02 11800   0.699E-01    0.439E-01
DAV:   3    -0.191641699242E+03    0.42517E-03   -0.11278E-02 12320   0.705E-01    0.418E-01
DAV:   4    -0.191640222535E+03    0.14767E-02   -0.36674E-03 11840   0.393E-01    0.177E-01
DAV:   5    -0.191640057560E+03    0.16497E-03   -0.14333E-03  9960   0.267E-01    0.170E-01
DAV:   6    -0.191639919366E+03    0.13819E-03   -0.11532E-03 10440   0.237E-01    0.110E-01
DAV:   7    -0.191639847443E+03    0.71922E-04   -0.42563E-04  8320   0.146E-01
  14 F= -.19163985E+03 E0= -.19154765E+03  d E =-.328591E-01
       N       E                     dE             d eps       ncg     rms          rms(c)
DAV:   1    -0.191593673629E+03    0.46246E-01   -0.28470E+00  8160   0.361E+00    0.374E-01
DAV:   2    -0.191599852799E+03   -0.61792E-02   -0.83307E-02 12240   0.860E-01    0.426E-01
DAV:   3    -0.191600481339E+03   -0.62854E-03   -0.13832E-02 12240   0.820E-01    0.570E-01
DAV:   4    -0.191598027701E+03    0.24536E-02   -0.90929E-03 11880   0.616E-01    0.320E-01
DAV:   5    -0.191597267031E+03    0.76067E-03   -0.32176E-03 11000   0.404E-01    0.212E-01
DAV:   6    -0.191596991805E+03    0.27523E-03   -0.18091E-03 11000   0.287E-01    0.122E-01
DAV:   7    -0.191596856094E+03    0.13571E-03   -0.72054E-04 11040   0.163E-01    0.950E-02
DAV:   8    -0.191596767655E+03    0.88439E-04   -0.25569E-04  7920   0.119E-01
  15 F= -.19159677E+03 E0= -.19150158E+03  d E =0.430798E-01
       N       E                     dE             d eps       ncg     rms          rms(c)
DAV:   1    -0.191553430705E+03    0.43425E-01   -0.36037E+00  8160   0.406E+00    0.415E-01
DAV:   2    -0.191560870928E+03   -0.74402E-02   -0.10526E-01 12200   0.902E-01    0.380E-01
DAV:   3    -0.191561798718E+03   -0.92779E-03   -0.13489E-02 12440   0.779E-01    0.559E-01
DAV:   4    -0.191558991593E+03    0.28071E-02   -0.75043E-03 12240   0.683E-01    0.273E-01
DAV:   5    -0.191558212017E+03    0.77958E-03   -0.25901E-03 11360   0.325E-01    0.184E-01
DAV:   6    -0.191558644892E+03   -0.43287E-03   -0.27491E-03 11280   0.377E-01    0.268E-01
DAV:   7    -0.191558058217E+03    0.58667E-03   -0.17653E-03  9840   0.285E-01    0.148E-01
DAV:   8    -0.191557860537E+03    0.19768E-03   -0.44066E-04  8000   0.146E-01    0.327E-02
DAV:   9    -0.191557859605E+03    0.93289E-06   -0.47780E-05  6720   0.349E-02
  16 F= -.19155786E+03 E0= -.19146116E+03  d E =0.389081E-01
       N       E                     dE             d eps       ncg     rms          rms(c)
DAV:   1    -0.191569136994E+03   -0.11276E-01   -0.10238E+00  8160   0.218E+00    0.281E-01
DAV:   2    -0.191579694917E+03   -0.10558E-01   -0.43766E-02 13600   0.106E+00    0.100E+00
DAV:   3    -0.191570726672E+03    0.89682E-02   -0.19864E-02 11840   0.962E-01    0.230E-01
DAV:   4    -0.191571139624E+03   -0.41295E-03   -0.28630E-03 10840   0.365E-01    0.304E-01
DAV:   5    -0.191570226996E+03    0.91263E-03   -0.20247E-03  9600   0.342E-01    0.108E-01
DAV:   6    -0.191570238139E+03   -0.11143E-04   -0.61762E-04 10200   0.138E-01
  17 F= -.19157024E+03 E0= -.19147508E+03  d E =-.123785E-01
       N       E                     dE             d eps       ncg     rms          rms(c)
DAV:   1    -0.191596914689E+03   -0.26688E-01   -0.18080E+00  8160   0.292E+00    0.368E-01
DAV:   2    -0.191608051901E+03   -0.11137E-01   -0.71135E-02 13280   0.116E+00    0.101E+00
DAV:   3    -0.191600076051E+03    0.79758E-02   -0.27011E-02 12000   0.108E+00    0.381E-01
DAV:   4    -0.191599396673E+03    0.67938E-03   -0.55220E-03 11200   0.456E-01    0.321E-01
DAV:   5    -0.191598552552E+03    0.84412E-03   -0.34435E-03 10720   0.434E-01    0.208E-01
DAV:   6    -0.191598181910E+03    0.37064E-03   -0.14926E-03  9640   0.241E-01    0.990E-02
DAV:   7    -0.191598145990E+03    0.35920E-04   -0.61851E-04 10560   0.156E-01
  18 F= -.19159815E+03 E0= -.19150383E+03  d E =-.279079E-01
       N       E                     dE             d eps       ncg     rms          rms(c)
DAV:   1    -0.191647749345E+03   -0.49567E-01   -0.30959E+01  8160   0.120E+01    0.147E+00
DAV:   2    -0.191945889098E+03   -0.29814E+00   -0.12535E+00 12680   0.553E+00    0.606E+00
DAV:   3    -0.191713688365E+03    0.23220E+00   -0.79345E-01 12080   0.528E+00    0.136E+00
DAV:   4    -0.191718754569E+03   -0.50662E-02   -0.92823E-02 11080   0.232E+00    0.163E+00
DAV:   5    -0.191686624145E+03    0.32130E-01   -0.46862E-02 11160   0.179E+00    0.480E-01
DAV:   6    -0.191686673616E+03   -0.49471E-04   -0.14023E-02 12720   0.628E-01    0.453E-01
DAV:   7    -0.191685351199E+03    0.13224E-02   -0.95177E-03 12400   0.782E-01    0.401E-01
DAV:   8    -0.191683240128E+03    0.21111E-02   -0.31162E-03 11600   0.459E-01    0.716E-02
DAV:   9    -0.191683209387E+03    0.30741E-04   -0.50605E-04 10680   0.926E-02
  19 F= -.19168321E+03 E0= -.19159764E+03  d E =-.850634E-01
       N       E                     dE             d eps       ncg     rms          rms(c)
DAV:   1    -0.191679198724E+03    0.40414E-02   -0.19956E+00  8160   0.303E+00    0.356E-01
DAV:   2    -0.191691697528E+03   -0.12499E-01   -0.60646E-02 13160   0.124E+00    0.103E+00
DAV:   3    -0.191681034029E+03    0.10663E-01   -0.20437E-02 12440   0.113E+00    0.288E-01
DAV:   4    -0.191681215790E+03   -0.18176E-03   -0.38633E-03 11400   0.397E-01    0.331E-01
DAV:   5    -0.191680316412E+03    0.89938E-03   -0.31766E-03 10760   0.429E-01    0.177E-01
DAV:   6    -0.191680104625E+03    0.21179E-03   -0.11638E-03  9600   0.208E-01    0.992E-02
DAV:   7    -0.191680067354E+03    0.37271E-04   -0.49006E-04 10080   0.178E-01
  20 F= -.19168007E+03 E0= -.19159281E+03  d E =0.314203E-02
       N       E                     dE             d eps       ncg     rms          rms(c)
DAV:   1    -0.191701372889E+03   -0.21268E-01   -0.20431E+00  8160   0.306E+00    0.337E-01
DAV:   2    -0.191712744902E+03   -0.11372E-01   -0.69304E-02 12840   0.113E+00    0.971E-01
DAV:   3    -0.191705190544E+03    0.75544E-02   -0.21327E-02 11960   0.101E+00    0.320E-01
DAV:   4    -0.191704839462E+03    0.35108E-03   -0.34297E-03 11200   0.398E-01    0.287E-01
DAV:   5    -0.191704050576E+03    0.78889E-03   -0.22174E-03 10520   0.386E-01    0.146E-01
DAV:   6    -0.191703975052E+03    0.75524E-04   -0.10088E-03 10520   0.180E-01    0.875E-02
DAV:   7    -0.191703829233E+03    0.14582E-03   -0.37828E-04  7880   0.103E-01    0.394E-02
DAV:   8    -0.191703819742E+03    0.94912E-05   -0.76578E-05  7960   0.740E-02
  21 F= -.19170382E+03 E0= -.19161870E+03  d E =-.237524E-01
       N       E                     dE             d eps       ncg     rms          rms(c)
DAV:   1    -0.191717101634E+03   -0.13272E-01   -0.60406E-01  8160   0.166E+00    0.164E-01
DAV:   2    -0.191718143473E+03   -0.10418E-02   -0.15796E-02 12080   0.373E-01    0.167E-01
DAV:   3    -0.191718444880E+03   -0.30141E-03   -0.25525E-03 12000   0.369E-01    0.245E-01
DAV:   4    -0.191717859562E+03    0.58532E-03   -0.12831E-03  9840   0.275E-01    0.994E-02
DAV:   5    -0.191717909519E+03   -0.49957E-04   -0.58219E-04  8240   0.170E-01
  22 F= -.19171791E+03 E0= -.19163454E+03  d E =-.140898E-01
       N       E                     dE             d eps       ncg     rms          rms(c)
DAV:   1    -0.191673755750E+03    0.44104E-01   -0.78882E+00  8160   0.605E+00    0.607E-01
DAV:   2    -0.191687622881E+03   -0.13867E-01   -0.20498E-01 12520   0.134E+00    0.644E-01
DAV:   3    -0.191691061977E+03   -0.34391E-02   -0.37343E-02 12440   0.132E+00    0.962E-01
DAV:   4    -0.191683651101E+03    0.74109E-02   -0.21118E-02 12240   0.106E+00    0.455E-01
DAV:   5    -0.191682571882E+03    0.10792E-02   -0.73307E-03 11080   0.636E-01    0.425E-01
DAV:   6    -0.191681536794E+03    0.10351E-02   -0.57510E-03 11720   0.594E-01    0.253E-01
DAV:   7    -0.191680723693E+03    0.81310E-03   -0.16905E-03 11600   0.260E-01    0.653E-02
DAV:   8    -0.191680682815E+03    0.40878E-04   -0.26895E-04  8080   0.107E-01
  23 F= -.19168068E+03 E0= -.19159492E+03  d E =0.372267E-01
       N       E                     dE             d eps       ncg     rms          rms(c)
DAV:   1    -0.191674763347E+03    0.59603E-02   -0.15886E+00  8160   0.273E+00    0.298E-01
DAV:   2    -0.191677761465E+03   -0.29981E-02   -0.41914E-02 12600   0.651E-01    0.389E-01
DAV:   3    -0.191678081257E+03   -0.31979E-03   -0.79211E-03 12200   0.696E-01    0.442E-01
DAV:   4    -0.191676441598E+03    0.16397E-02   -0.34659E-03 11920   0.444E-01    0.211E-01
DAV:   5    -0.191676299075E+03    0.14252E-03   -0.18828E-03 10000   0.332E-01    0.205E-01
DAV:   6    -0.191676052961E+03    0.24611E-03   -0.12968E-03  9600   0.272E-01    0.108E-01
DAV:   7    -0.191675917660E+03    0.13530E-03   -0.40627E-04  8960   0.136E-01    0.690E-02
DAV:   8    -0.191675863873E+03    0.53787E-04   -0.10373E-04  7000   0.928E-02
  24 F= -.19167586E+03 E0= -.19159121E+03  d E =0.481894E-02
       N       E                     dE             d eps       ncg     rms          rms(c)
DAV:   1    -0.191685675221E+03   -0.97576E-02   -0.52345E-01  8160   0.156E+00    0.188E-01
DAV:   2    -0.191688867189E+03   -0.31920E-02   -0.18040E-02 13200   0.628E-01    0.519E-01
DAV:   3    -0.191686525090E+03    0.23421E-02   -0.51174E-03 11960   0.558E-01    0.171E-01
DAV:   4    -0.191686538113E+03   -0.13023E-04   -0.10489E-03  9680   0.243E-01    0.175E-01
DAV:   5    -0.191686239973E+03    0.29814E-03   -0.74138E-04  9080   0.234E-01    0.840E-02
DAV:   6    -0.191686235612E+03    0.43608E-05   -0.32306E-04  8560   0.126E-01
  25 F= -.19168624E+03 E0= -.19160325E+03  d E =-.103717E-01
       N       E                     dE             d eps       ncg     rms          rms(c)
DAV:   1    -0.191688480765E+03   -0.22408E-02   -0.13403E-01  8160   0.801E-01    0.941E-02
DAV:   2    -0.191689229646E+03   -0.74888E-03   -0.43047E-03 13200   0.298E-01    0.240E-01
DAV:   3    -0.191688654500E+03    0.57515E-03   -0.13289E-03 10000   0.279E-01    0.896E-02
DAV:   4    -0.191688683386E+03   -0.28885E-04   -0.33933E-04  8040   0.136E-01
  26 F= -.19168868E+03 E0= -.19160490E+03  d E =-.244777E-02
       N       E                     dE             d eps       ncg     rms          rms(c)
DAV:   1    -0.191699187558E+03   -0.10533E-01   -0.76079E-01  8160   0.189E+00    0.229E-01
DAV:   2    -0.191702176543E+03   -0.29890E-02   -0.22341E-02 13200   0.652E-01    0.493E-01
DAV:   3    -0.191700102481E+03    0.20741E-02   -0.56758E-03 12160   0.605E-01    0.213E-01
DAV:   4    -0.191700141229E+03   -0.38749E-04   -0.15893E-03  9760   0.299E-01    0.238E-01
DAV:   5    -0.191699613720E+03    0.52751E-03   -0.13275E-03 10040   0.292E-01    0.107E-01
DAV:   6    -0.191699586032E+03    0.27688E-04   -0.42543E-04  8440   0.136E-01
  27 F= -.19169959E+03 E0= -.19161817E+03  d E =-.109026E-01
       N       E                     dE             d eps       ncg     rms          rms(c)
DAV:   1    -0.191685528792E+03    0.14085E-01   -0.10679E+00  8160   0.225E+00    0.268E-01
DAV:   2    -0.191687903696E+03   -0.23749E-02   -0.27827E-02 12920   0.597E-01    0.403E-01
DAV:   3    -0.191686937614E+03    0.96608E-03   -0.63002E-03 11960   0.657E-01    0.311E-01
DAV:   4    -0.191686392734E+03    0.54488E-03   -0.25089E-03 11880   0.380E-01    0.244E-01
DAV:   5    -0.191685965148E+03    0.42759E-03   -0.16870E-03 10120   0.322E-01    0.169E-01
DAV:   6    -0.191685797491E+03    0.16766E-03   -0.95778E-04  9440   0.220E-01    0.113E-01
DAV:   7    -0.191685757822E+03    0.39669E-04   -0.52951E-04  9520   0.182E-01
  28 F= -.19168576E+03 E0= -.19160234E+03  d E =0.138282E-01
       N       E                     dE             d eps       ncg     rms          rms(c)
DAV:   1    -0.191686404790E+03   -0.60730E-03   -0.79408E-01  8160   0.193E+00    0.225E-01
DAV:   2    -0.191687371613E+03   -0.96682E-03   -0.20663E-02 11240   0.403E-01    0.170E-01
DAV:   3    -0.191687631112E+03   -0.25950E-03   -0.27700E-03 12360   0.344E-01    0.258E-01
DAV:   4    -0.191687101565E+03    0.52955E-03   -0.17486E-03 10200   0.362E-01    0.169E-01
DAV:   5    -0.191686782863E+03    0.31870E-03   -0.82653E-04  9680   0.194E-01    0.856E-02
DAV:   6    -0.191687041377E+03   -0.25851E-03   -0.77768E-04  9800   0.207E-01    0.182E-01
DAV:   7    -0.191686703709E+03    0.33767E-03   -0.47108E-04  8280   0.159E-01    0.168E-02
DAV:   8    -0.191686715570E+03   -0.11861E-04   -0.33688E-05  5720   0.261E-02
  29 F= -.19168672E+03 E0= -.19160155E+03  d E =-.957748E-03
       N       E                     dE             d eps       ncg     rms          rms(c)
DAV:   1    -0.191687488600E+03   -0.78489E-03   -0.24920E-02  8160   0.344E-01    0.421E-02
DAV:   2    -0.191687550425E+03   -0.61825E-04   -0.72040E-04 11440   0.938E-02
  30 F= -.19168755E+03 E0= -.19160213E+03  d E =-.834855E-03
       N       E                     dE             d eps       ncg     rms          rms(c)
DAV:   1    -0.191682973780E+03    0.45148E-02   -0.12167E-01  8160   0.786E-01    0.129E-01
DAV:   2    -0.191684466396E+03   -0.14926E-02   -0.64864E-03 12360   0.462E-01    0.388E-01
DAV:   3    -0.191682975470E+03    0.14909E-02   -0.25975E-03 11120   0.419E-01    0.104E-01
DAV:   4    -0.191683062527E+03   -0.87057E-04   -0.63975E-04  8360   0.179E-01
  31 F= -.19168306E+03 E0= -.19159793E+03  d E =0.448790E-02
       N       E                     dE             d eps       ncg     rms          rms(c)
DAV:   1    -0.191691078645E+03   -0.81032E-02   -0.53797E-01  8160   0.157E+00    0.192E-01
DAV:   2    -0.191695524902E+03   -0.44463E-02   -0.21657E-02 12840   0.745E-01    0.637E-01
DAV:   3    -0.191691951988E+03    0.35729E-02   -0.76920E-03 11520   0.630E-01    0.162E-01
DAV:   4    -0.191691854073E+03    0.97915E-04   -0.93857E-04  9560   0.214E-01
  32 F= -.19169185E+03 E0= -.19160677E+03  d E =-.879155E-02
       N       E                     dE             d eps       ncg     rms          rms(c)
DAV:   1    -0.191692667282E+03   -0.71529E-03   -0.50166E-02  8160   0.518E-01    0.160E-01
DAV:   2    -0.191697651971E+03   -0.49847E-02   -0.10073E-02 11680   0.798E-01    0.681E-01
DAV:   3    -0.191692370515E+03    0.52815E-02   -0.66719E-03 10000   0.688E-01    0.481E-02
DAV:   4    -0.191692501057E+03   -0.13054E-03   -0.30580E-04  8680   0.126E-01    0.101E-01
DAV:   5    -0.191692396368E+03    0.10469E-03   -0.21009E-04  7200   0.116E-01    0.415E-02
DAV:   6    -0.191692405357E+03   -0.89885E-05   -0.77724E-05  5680   0.699E-02
  33 F= -.19169241E+03 E0= -.19160783E+03  d E =-.551284E-03
       N       E                     dE             d eps       ncg     rms          rms(c)
DAV:   1    -0.191712251565E+03   -0.19855E-01   -0.23898E+00  8160   0.341E+00    0.607E-01
DAV:   2    -0.191738647338E+03   -0.26396E-01   -0.12667E-01 12280   0.211E+00    0.169E+00
DAV:   3    -0.191709844294E+03    0.28803E-01   -0.59421E-02 12200   0.194E+00    0.389E-01
DAV:   4    -0.191707604920E+03    0.22394E-02   -0.65239E-03 12240   0.454E-01    0.221E-01
DAV:   5    -0.191707294310E+03    0.31061E-03   -0.42567E-03 11400   0.438E-01    0.263E-01
DAV:   6    -0.191706636754E+03    0.65756E-03   -0.23250E-03 11480   0.401E-01    0.137E-01
DAV:   7    -0.191706415467E+03    0.22129E-03   -0.49812E-04  8400   0.155E-01    0.703E-02
DAV:   8    -0.191706415663E+03   -0.19660E-06   -0.26355E-04  7480   0.118E-01
  34 F= -.19170642E+03 E0= -.19162106E+03  d E =-.140103E-01
       N       E                     dE             d eps       ncg     rms          rms(c)
DAV:   1    -0.191712357991E+03   -0.59425E-02   -0.15062E-01  8160   0.846E-01    0.128E-01
DAV:   2    -0.191713363471E+03   -0.10055E-02   -0.67822E-03 12560   0.442E-01    0.300E-01
DAV:   3    -0.191712370488E+03    0.99298E-03   -0.19186E-03 11320   0.352E-01    0.854E-02
DAV:   4    -0.191712349787E+03    0.20701E-04   -0.40454E-04  8160   0.142E-01
  35 F= -.19171235E+03 E0= -.19162800E+03  d E =-.593412E-02
       N       E                     dE             d eps       ncg     rms          rms(c)
DAV:   1    -0.191706627570E+03    0.57429E-02   -0.60978E-01  8160   0.170E+00    0.277E-01
DAV:   2    -0.191716810784E+03   -0.10183E-01   -0.33063E-02 12600   0.121E+00    0.936E-01
DAV:   3    -0.191706716141E+03    0.10095E-01   -0.14872E-02 11920   0.104E+00    0.153E-01
DAV:   4    -0.191706997750E+03   -0.28161E-03   -0.16834E-03 10480   0.271E-01    0.244E-01
DAV:   5    -0.191706525813E+03    0.47194E-03   -0.14238E-03  9840   0.291E-01    0.123E-01
DAV:   6    -0.191706440317E+03    0.85496E-04   -0.50573E-04  8920   0.144E-01
  36 F= -.19170644E+03 E0= -.19162164E+03  d E =0.590947E-02
       N       E                     dE             d eps       ncg     rms          rms(c)
DAV:   1    -0.191718998277E+03   -0.12472E-01   -0.92280E-01  8160   0.205E+00    0.210E-01
DAV:   2    -0.191721527767E+03   -0.25295E-02   -0.26244E-02 12800   0.530E-01    0.357E-01
DAV:   3    -0.191721009019E+03    0.51875E-03   -0.55418E-03 11760   0.524E-01    0.292E-01
DAV:   4    -0.191720337156E+03    0.67186E-03   -0.15863E-03  9760   0.287E-01    0.147E-01
DAV:   5    -0.191720170449E+03    0.16671E-03   -0.65855E-04  9760   0.221E-01    0.101E-01
DAV:   6    -0.191720119401E+03    0.51048E-04   -0.44734E-04 10040   0.144E-01
  37 F= -.19172012E+03 E0= -.19163722E+03  d E =-.136791E-01
       N       E                     dE             d eps       ncg     rms          rms(c)
DAV:   1    -0.191721365306E+03   -0.11949E-02   -0.85096E-03  8160   0.212E-01    0.345E-02
DAV:   2    -0.191721492020E+03   -0.12671E-03   -0.46085E-04 10760   0.136E-01    0.104E-01
DAV:   3    -0.191721362713E+03    0.12931E-03   -0.22078E-04  6840   0.127E-01    0.214E-02
DAV:   4    -0.191721370598E+03   -0.78848E-05   -0.34573E-05  5600   0.349E-02
  38 F= -.19172137E+03 E0= -.19163844E+03  d E =-.125120E-02
       N       E                     dE             d eps       ncg     rms          rms(c)
DAV:   1    -0.191723103069E+03   -0.17404E-02   -0.26236E-02  8160   0.353E-01    0.515E-02
DAV:   2    -0.191723287165E+03   -0.18410E-03   -0.88670E-04 11560   0.162E-01    0.134E-01
DAV:   3    -0.191723103581E+03    0.18358E-03   -0.35392E-04  8400   0.158E-01    0.483E-02
DAV:   4    -0.191723104202E+03   -0.62065E-06   -0.93787E-05  5600   0.673E-02
  39 F= -.19172310E+03 E0= -.19164012E+03  d E =-.173360E-02
       N       E                     dE             d eps       ncg     rms          rms(c)
DAV:   1    -0.191713769514E+03    0.93341E-02   -0.72080E-01  8160   0.185E+00    0.249E-01
DAV:   2    -0.191718125859E+03   -0.43563E-02   -0.26974E-02 12360   0.819E-01    0.611E-01
DAV:   3    -0.191714421224E+03    0.37046E-02   -0.91531E-03 12240   0.753E-01    0.227E-01
DAV:   4    -0.191714496717E+03   -0.75493E-04   -0.20723E-03 10200   0.326E-01    0.271E-01
DAV:   5    -0.191713838634E+03    0.65808E-03   -0.14762E-03  9960   0.311E-01    0.108E-01
DAV:   6    -0.191713752227E+03    0.86407E-04   -0.49490E-04  9480   0.126E-01
  40 F= -.19171375E+03 E0= -.19163101E+03  d E =0.935198E-02
       N       E                     dE             d eps       ncg     rms          rms(c)
DAV:   1    -0.191721609873E+03   -0.77712E-02   -0.66366E-01  8160   0.176E+00    0.202E-01
DAV:   2    -0.191724378389E+03   -0.27685E-02   -0.18397E-02 13320   0.594E-01    0.473E-01
DAV:   3    -0.191722479200E+03    0.18992E-02   -0.55474E-03 12280   0.561E-01    0.202E-01
DAV:   4    -0.191722372386E+03    0.10681E-03   -0.11514E-03  9600   0.235E-01    0.173E-01
DAV:   5    -0.191722120920E+03    0.25147E-03   -0.77159E-04  9160   0.247E-01    0.111E-01
DAV:   6    -0.191722051107E+03    0.69813E-04   -0.46437E-04  8520   0.148E-01
  41 F= -.19172205E+03 E0= -.19164092E+03  d E =-.829888E-02
       N       E                     dE             d eps       ncg     rms          rms(c)
DAV:   1    -0.191718388043E+03    0.37329E-02   -0.66859E-01  8160   0.178E+00    0.229E-01
DAV:   2    -0.191722184612E+03   -0.37966E-02   -0.19825E-02 12600   0.766E-01    0.595E-01
DAV:   3    -0.191718701678E+03    0.34829E-02   -0.79841E-03 12160   0.696E-01    0.193E-01
DAV:   4    -0.191718847285E+03   -0.14561E-03   -0.16715E-03 10040   0.285E-01    0.242E-01
DAV:   5    -0.191718352879E+03    0.49441E-03   -0.12587E-03 10240   0.296E-01    0.118E-01
DAV:   6    -0.191718225835E+03    0.12704E-03   -0.50501E-04  8720   0.133E-01    0.513E-02
DAV:   7    -0.191718181011E+03    0.44824E-04   -0.11202E-04  6680   0.491E-02
  42 F= -.19171818E+03 E0= -.19163562E+03  d E =0.387010E-02
       N       E                     dE             d eps       ncg     rms          rms(c)
DAV:   1    -0.191725565010E+03   -0.73392E-02   -0.59268E-01  8160   0.167E+00    0.198E-01
DAV:   2    -0.191727482702E+03   -0.19177E-02   -0.16901E-02 11920   0.544E-01    0.371E-01
DAV:   3    -0.191726357265E+03    0.11254E-02   -0.47163E-03 12320   0.530E-01    0.218E-01
DAV:   4    -0.191726247229E+03    0.11004E-03   -0.15712E-03 10320   0.282E-01    0.199E-01
DAV:   5    -0.191725892380E+03    0.35485E-03   -0.87644E-04  9720   0.253E-01    0.102E-01
DAV:   6    -0.191725859884E+03    0.32496E-04   -0.43227E-04  9080   0.144E-01
  43 F= -.19172586E+03 E0= -.19164345E+03  d E =-.767887E-02
       N       E                     dE             d eps       ncg     rms          rms(c)
DAV:   1    -0.191733554818E+03   -0.76624E-02   -0.63645E-01  8160   0.173E+00    0.200E-01
DAV:   2    -0.191736648164E+03   -0.30933E-02   -0.18548E-02 13320   0.624E-01    0.492E-01
DAV:   3    -0.191734361402E+03    0.22868E-02   -0.57439E-03 12160   0.584E-01    0.189E-01
DAV:   4    -0.191734380595E+03   -0.19193E-04   -0.12514E-03  9560   0.246E-01    0.194E-01
DAV:   5    -0.191734052629E+03    0.32797E-03   -0.88947E-04  9920   0.250E-01    0.104E-01
DAV:   6    -0.191733981691E+03    0.70938E-04   -0.41781E-04  8440   0.134E-01
  44 F= -.19173398E+03 E0= -.19165257E+03  d E =-.812181E-02
       N       E                     dE             d eps       ncg     rms          rms(c)
DAV:   1    -0.191735358230E+03   -0.13056E-02   -0.46547E-02  8160   0.483E-01    0.721E-02
DAV:   2    -0.191735804190E+03   -0.44596E-03   -0.16523E-03 12640   0.250E-01    0.198E-01
DAV:   3    -0.191735364724E+03    0.43947E-03   -0.66714E-04  9000   0.229E-01    0.585E-02
DAV:   4    -0.191735416501E+03   -0.51777E-04   -0.19503E-04  6680   0.108E-01
  45 F= -.19173542E+03 E0= -.19165406E+03  d E =-.143481E-02
       N       E                     dE             d eps       ncg     rms          rms(c)
DAV:   1    -0.191750337878E+03   -0.14973E-01   -0.10830E+00  8160   0.223E+00    0.231E-01
DAV:   2    -0.191751960967E+03   -0.16231E-02   -0.29421E-02 12320   0.490E-01    0.183E-01
DAV:   3    -0.191752740342E+03   -0.77937E-03   -0.36757E-03 12320   0.442E-01    0.343E-01
DAV:   4    -0.191751576436E+03    0.11639E-02   -0.23245E-03 10880   0.384E-01    0.145E-01
DAV:   5    -0.191751599189E+03   -0.22753E-04   -0.88188E-04  9640   0.239E-01
  46 F= -.19175160E+03 E0= -.19167167E+03  d E =-.161827E-01
       N       E                     dE             d eps       ncg     rms          rms(c)
DAV:   1    -0.191751688773E+03   -0.11234E-03   -0.11891E-01  8160   0.777E-01    0.141E-01
DAV:   2    -0.191753098473E+03   -0.14097E-02   -0.58320E-03 12040   0.468E-01    0.347E-01
DAV:   3    -0.191751536273E+03    0.15622E-02   -0.23881E-03 10680   0.427E-01    0.108E-01
DAV:   4    -0.191751527842E+03    0.84313E-05   -0.56713E-04  8680   0.171E-01
  47 F= -.19175153E+03 E0= -.19167218E+03  d E =0.713469E-04
       N       E                     dE             d eps       ncg     rms          rms(c)
DAV:   1    -0.191769457723E+03   -0.17921E-01   -0.14242E+00  8160   0.255E+00    0.254E-01
DAV:   2    -0.191772124416E+03   -0.26667E-02   -0.36108E-02 12160   0.611E-01    0.292E-01
DAV:   3    -0.191772143839E+03   -0.19423E-04   -0.49243E-03 12360   0.550E-01    0.316E-01
DAV:   4    -0.191771358132E+03    0.78571E-03   -0.24738E-03 11040   0.379E-01    0.199E-01
DAV:   5    -0.191771167112E+03    0.19102E-03   -0.12159E-03  9920   0.305E-01    0.163E-01
DAV:   6    -0.191771009331E+03    0.15778E-03   -0.79594E-04  9960   0.192E-01    0.800E-02
DAV:   7    -0.191770928089E+03    0.81241E-04   -0.30998E-04  8680   0.110E-01
  48 F= -.19177093E+03 E0= -.19169270E+03  d E =-.194002E-01
       N       E                     dE             d eps       ncg     rms          rms(c)
DAV:   1    -0.191776834756E+03   -0.58254E-02   -0.12711E-01  8160   0.766E-01    0.796E-02
DAV:   2    -0.191777111888E+03   -0.27713E-03   -0.34164E-03 12200   0.178E-01    0.103E-01
DAV:   3    -0.191777087663E+03    0.24225E-04   -0.54443E-04 10880   0.195E-01
  49 F= -.19177709E+03 E0= -.19169900E+03  d E =-.615957E-02
       N       E                     dE             d eps       ncg     rms          rms(c)
DAV:   1    -0.191750765629E+03    0.26346E-01   -0.22171E+00  8160   0.318E+00    0.336E-01
DAV:   2    -0.191760618211E+03   -0.98526E-02   -0.62191E-02 13080   0.119E+00    0.819E-01
DAV:   3    -0.191753515708E+03    0.71025E-02   -0.15613E-02 12240   0.102E+00    0.241E-01
DAV:   4    -0.191753467106E+03    0.48602E-04   -0.24219E-03 11400   0.359E-01    0.273E-01
DAV:   5    -0.191752926213E+03    0.54089E-03   -0.18629E-03 10760   0.373E-01    0.173E-01
DAV:   6    -0.191752942668E+03   -0.16455E-04   -0.11362E-03 10320   0.231E-01    0.154E-01
DAV:   7    -0.191752691124E+03    0.25154E-03   -0.57548E-04  8800   0.208E-01    0.706E-02
DAV:   8    -0.191752622280E+03    0.68844E-04   -0.12482E-04  6680   0.835E-02
  50 F= -.19175262E+03 E0= -.19167315E+03  d E =0.244654E-01
       N       E                     dE             d eps       ncg     rms          rms(c)
DAV:   1    -0.191709024558E+03    0.43667E-01   -0.77018E+00  8160   0.593E+00    0.619E-01
DAV:   2    -0.191737026224E+03   -0.28002E-01   -0.20593E-01 12760   0.198E+00    0.134E+00
DAV:   3    -0.191719997166E+03    0.17029E-01   -0.49973E-02 12560   0.174E+00    0.529E-01
DAV:   4    -0.191720214330E+03   -0.21716E-03   -0.11764E-02 12160   0.787E-01    0.625E-01
DAV:   5    -0.191716760270E+03    0.34541E-02   -0.79402E-03 11920   0.750E-01    0.284E-01
DAV:   6    -0.191717832870E+03   -0.10726E-02   -0.50228E-03 11280   0.496E-01    0.385E-01
DAV:   7    -0.191716046647E+03    0.17862E-02   -0.26463E-03 11680   0.430E-01    0.797E-02
DAV:   8    -0.191715957644E+03    0.89003E-04   -0.34059E-04  8960   0.970E-02
  51 F= -.19171596E+03 E0= -.19163271E+03  d E =0.366646E-01
       N       E                     dE             d eps       ncg     rms          rms(c)
DAV:   1    -0.191694622313E+03    0.21424E-01   -0.50067E+00  8160   0.478E+00    0.490E-01
DAV:   2    -0.191707825200E+03   -0.13203E-01   -0.12665E-01 11920   0.147E+00    0.820E-01
DAV:   3    -0.191702164118E+03    0.56611E-02   -0.22871E-02 12360   0.121E+00    0.485E-01
DAV:   4    -0.191702257769E+03   -0.93651E-04   -0.10331E-02 11920   0.721E-01    0.555E-01
DAV:   5    -0.191699420192E+03    0.28376E-02   -0.58285E-03 11840   0.617E-01    0.202E-01
DAV:   6    -0.191699969154E+03   -0.54896E-03   -0.27304E-03 11480   0.359E-01    0.270E-01
DAV:   7    -0.191699157952E+03    0.81120E-03   -0.16624E-03 10120   0.328E-01    0.920E-02
DAV:   8    -0.191699054957E+03    0.10299E-03   -0.22605E-04  7440   0.953E-02    0.238E-02
DAV:   9    -0.191699053059E+03    0.18984E-05   -0.55391E-05  7480   0.275E-02
  52 F= -.19169905E+03 E0= -.19161320E+03  d E =0.169046E-01
       N       E                     dE             d eps       ncg     rms          rms(c)
DAV:   1    -0.191714096377E+03   -0.15041E-01   -0.27562E+00  8160   0.356E+00    0.406E-01
DAV:   2    -0.191725301871E+03   -0.11205E-01   -0.86968E-02 12640   0.138E+00    0.857E-01
DAV:   3    -0.191718075625E+03    0.72262E-02   -0.19611E-02 12240   0.113E+00    0.327E-01
DAV:   4    -0.191717988404E+03    0.87222E-04   -0.50171E-03 11200   0.514E-01    0.386E-01
DAV:   5    -0.191716801293E+03    0.11871E-02   -0.35103E-03 12280   0.482E-01    0.210E-01
DAV:   6    -0.191717018183E+03   -0.21689E-03   -0.19444E-03 11160   0.327E-01    0.241E-01
DAV:   7    -0.191716427936E+03    0.59025E-03   -0.13254E-03 10360   0.293E-01    0.799E-02
DAV:   8    -0.191716337910E+03    0.90026E-04   -0.19950E-04  6680   0.839E-02
  53 F= -.19171634E+03 E0= -.19163163E+03  d E =-.172849E-01
       N       E                     dE             d eps       ncg     rms          rms(c)
DAV:   1    -0.191720557206E+03   -0.41293E-02   -0.17619E-01  8160   0.901E-01    0.106E-01
DAV:   2    -0.191721227208E+03   -0.67000E-03   -0.61843E-03 11760   0.316E-01    0.202E-01
DAV:   3    -0.191720898944E+03    0.32826E-03   -0.13713E-03 11120   0.269E-01    0.113E-01
DAV:   4    -0.191720891703E+03    0.72405E-05   -0.48220E-04  8680   0.161E-01
  54 F= -.19172089E+03 E0= -.19163630E+03  d E =-.455379E-02
       N       E                     dE             d eps       ncg     rms          rms(c)
DAV:   1    -0.191727113985E+03   -0.62150E-02   -0.36857E-01  8160   0.131E+00    0.142E-01
DAV:   2    -0.191727788092E+03   -0.67411E-03   -0.91904E-03 12120   0.297E-01    0.172E-01
DAV:   3    -0.191727733847E+03    0.54245E-04   -0.15274E-03 11800   0.321E-01    0.173E-01
DAV:   4    -0.191727490335E+03    0.24351E-03   -0.65412E-04  9280   0.207E-01    0.107E-01
DAV:   5    -0.191727450033E+03    0.40302E-04   -0.43666E-04  8880   0.159E-01
  55 F= -.19172745E+03 E0= -.19164312E+03  d E =-.655833E-02
       N       E                     dE             d eps       ncg     rms          rms(c)
DAV:   1    -0.191726434413E+03    0.10559E-02   -0.47160E-01  8160   0.148E+00    0.163E-01
DAV:   2    -0.191728682458E+03   -0.22480E-02   -0.13106E-02 13240   0.533E-01    0.411E-01
DAV:   3    -0.191726991716E+03    0.16907E-02   -0.37397E-03 11480   0.479E-01    0.145E-01
DAV:   4    -0.191727111086E+03   -0.11937E-03   -0.10628E-03  9600   0.231E-01    0.180E-01
DAV:   5    -0.191726752745E+03    0.35834E-03   -0.58918E-04  8720   0.193E-01    0.545E-02
DAV:   6    -0.191726806399E+03   -0.53653E-04   -0.21268E-04  6640   0.106E-01
  56 F= -.19172681E+03 E0= -.19164176E+03  d E =0.643634E-03
       N       E                     dE             d eps       ncg     rms          rms(c)
DAV:   1    -0.191729209619E+03   -0.24569E-02   -0.34411E-01  8160   0.127E+00    0.148E-01
DAV:   2    -0.191730427492E+03   -0.12179E-02   -0.10709E-02 13080   0.400E-01    0.260E-01
DAV:   3    -0.191729772513E+03    0.65498E-03   -0.24422E-03 12320   0.384E-01    0.145E-01
DAV:   4    -0.191729783073E+03   -0.10561E-04   -0.87479E-04 10040   0.205E-01
  57 F= -.19172978E+03 E0= -.19164470E+03  d E =-.297667E-02
       N       E                     dE             d eps       ncg     rms          rms(c)
DAV:   1    -0.191736546403E+03   -0.67739E-02   -0.44554E-01  8160   0.144E+00    0.196E-01
DAV:   2    -0.191741510869E+03   -0.49645E-02   -0.18113E-02 13080   0.808E-01    0.662E-01
DAV:   3    -0.191736966996E+03    0.45439E-02   -0.67163E-03 11560   0.684E-01    0.135E-01
DAV:   4    -0.191737103543E+03   -0.13655E-03   -0.10683E-03 10080   0.244E-01    0.170E-01
DAV:   5    -0.191736778333E+03    0.32521E-03   -0.63211E-04  9880   0.208E-01    0.645E-02
DAV:   6    -0.191736786364E+03   -0.80314E-05   -0.23703E-04  7000   0.102E-01
  58 F= -.19173679E+03 E0= -.19165184E+03  d E =-.700329E-02
       N       E                     dE             d eps       ncg     rms          rms(c)
DAV:   1    -0.191738291434E+03   -0.15131E-02   -0.16409E-02  8160   0.299E-01    0.633E-02
DAV:   2    -0.191738926713E+03   -0.63528E-03   -0.16267E-03 11160   0.286E-01    0.234E-01
DAV:   3    -0.191738264420E+03    0.66229E-03   -0.93394E-04  9520   0.253E-01    0.331E-02
DAV:   4    -0.191738281930E+03   -0.17510E-04   -0.59446E-05  5520   0.553E-02
  59 F= -.19173828E+03 E0= -.19165383E+03  d E =-.149557E-02
       N       E                     dE             d eps       ncg     rms          rms(c)
DAV:   1    -0.191752425703E+03   -0.14161E-01   -0.86932E-01  8160   0.201E+00    0.241E-01
DAV:   2    -0.191755846788E+03   -0.34211E-02   -0.26919E-02 11200   0.713E-01    0.508E-01
DAV:   3    -0.191753447123E+03    0.23997E-02   -0.69933E-03 11680   0.626E-01    0.226E-01
DAV:   4    -0.191753419492E+03    0.27632E-04   -0.20236E-03 10800   0.334E-01    0.224E-01
DAV:   5    -0.191752911886E+03    0.50761E-03   -0.12490E-03  9640   0.305E-01    0.110E-01
DAV:   6    -0.191752859393E+03    0.52493E-04   -0.48222E-04 10360   0.138E-01
  60 F= -.19175286E+03 E0= -.19166910E+03  d E =-.145775E-01
       N       E                     dE             d eps       ncg     rms          rms(c)
DAV:   1    -0.191746226627E+03    0.66853E-02   -0.15984E-01  8160   0.874E-01    0.132E-01
DAV:   2    -0.191748428126E+03   -0.22015E-02   -0.77397E-03 12360   0.555E-01    0.432E-01
DAV:   3    -0.191746278287E+03    0.21498E-02   -0.33014E-03 11440   0.482E-01    0.744E-02
DAV:   4    -0.191746351459E+03   -0.73173E-04   -0.39180E-04  8240   0.133E-01
  61 F= -.19174635E+03 E0= -.19166206E+03  d E =0.650793E-02
       N       E                     dE             d eps       ncg     rms          rms(c)
DAV:   1    -0.191718779772E+03    0.27499E-01   -0.36658E+00  8160   0.414E+00    0.505E-01
DAV:   2    -0.191731672413E+03   -0.12893E-01   -0.11420E-01 12600   0.142E+00    0.989E-01
DAV:   3    -0.191723830671E+03    0.78417E-02   -0.31759E-02 12440   0.133E+00    0.503E-01
DAV:   4    -0.191722938382E+03    0.89229E-03   -0.85547E-03 12160   0.628E-01    0.452E-01
DAV:   5    -0.191721559511E+03    0.13789E-02   -0.75682E-03 11720   0.641E-01    0.344E-01
DAV:   6    -0.191720645021E+03    0.91449E-03   -0.32135E-03 12120   0.391E-01    0.143E-01
DAV:   7    -0.191720352001E+03    0.29302E-03   -0.93057E-04 10400   0.168E-01    0.788E-02
DAV:   8    -0.191720287940E+03    0.64061E-04   -0.19337E-04  8280   0.116E-01
  62 F= -.19172029E+03 E0= -.19163539E+03  d E =0.260635E-01
       N       E                     dE             d eps       ncg     rms          rms(c)
DAV:   1    -0.191710234692E+03    0.10117E-01   -0.15051E+00  8160   0.266E+00    0.308E-01
DAV:   2    -0.191714187810E+03   -0.39531E-02   -0.43544E-02 12160   0.751E-01    0.515E-01
DAV:   3    -0.191712957821E+03    0.12300E-02   -0.10899E-02 11840   0.754E-01    0.393E-01
DAV:   4    -0.191711905178E+03    0.10526E-02   -0.37641E-03 11960   0.424E-01    0.227E-01
DAV:   5    -0.191711543824E+03    0.36135E-03   -0.22985E-03 10000   0.344E-01    0.199E-01
DAV:   6    -0.191711283643E+03    0.26018E-03   -0.11844E-03 11040   0.265E-01    0.105E-01
DAV:   7    -0.191711188859E+03    0.94784E-04   -0.39229E-04  8440   0.146E-01
  63 F= -.19171119E+03 E0= -.19162710E+03  d E =0.909908E-02
       N       E                     dE             d eps       ncg     rms          rms(c)
DAV:   1    -0.191718454174E+03   -0.71705E-02   -0.57116E-01  8160   0.163E+00    0.179E-01
DAV:   2    -0.191719527005E+03   -0.10728E-02   -0.17836E-02 12280   0.404E-01    0.149E-01
DAV:   3    -0.191719845029E+03   -0.31802E-03   -0.20395E-03 12160   0.353E-01    0.229E-01
DAV:   4    -0.191719265815E+03    0.57921E-03   -0.11709E-03 11000   0.303E-01    0.998E-02
DAV:   5    -0.191719203382E+03    0.62432E-04   -0.40988E-04  8320   0.133E-01
  64 F= -.19171920E+03 E0= -.19163550E+03  d E =-.801452E-02
       N       E                     dE             d eps       ncg     rms          rms(c)
DAV:   1    -0.191715048429E+03    0.42174E-02   -0.17344E-01  8160   0.917E-01    0.143E-01
DAV:   2    -0.191717990355E+03   -0.29419E-02   -0.90947E-03 12200   0.559E-01    0.524E-01
DAV:   3    -0.191715219763E+03    0.27706E-02   -0.50648E-03 10720   0.522E-01    0.129E-01
DAV:   4    -0.191715167240E+03    0.52524E-04   -0.58116E-04  8320   0.179E-01
  65 F= -.19171517E+03 E0= -.19163124E+03  d E =0.403614E-02
       N       E                     dE             d eps       ncg     rms          rms(c)
DAV:   1    -0.191719405946E+03   -0.41862E-02   -0.22965E-01  8160   0.103E+00    0.130E-01
DAV:   2    -0.191720376625E+03   -0.97068E-03   -0.84240E-03 12120   0.393E-01    0.251E-01
DAV:   3    -0.191719758615E+03    0.61801E-03   -0.19836E-03 11840   0.346E-01    0.123E-01
DAV:   4    -0.191719780012E+03   -0.21397E-04   -0.73861E-04  8880   0.192E-01
  66 F= -.19171978E+03 E0= -.19163639E+03  d E =-.461277E-02
       N       E                     dE             d eps       ncg     rms          rms(c)
DAV:   1    -0.191719552586E+03    0.20603E-03   -0.60488E-02  8160   0.563E-01    0.876E-02
DAV:   2    -0.191720508900E+03   -0.95631E-03   -0.29671E-03 12120   0.358E-01    0.293E-01
DAV:   3    -0.191719549501E+03    0.95940E-03   -0.13388E-03  9840   0.307E-01    0.626E-02
DAV:   4    -0.191719605848E+03   -0.56347E-04   -0.25364E-04  7760   0.124E-01
  67 F= -.19171961E+03 E0= -.19163643E+03  d E =0.174164E-03
       N       E                     dE             d eps       ncg     rms          rms(c)
DAV:   1    -0.191719874472E+03   -0.32497E-03   -0.38427E-02  8160   0.450E-01    0.719E-02
DAV:   2    -0.191719900516E+03   -0.26044E-04   -0.11817E-03 11040   0.129E-01    0.900E-02
DAV:   3    -0.191719870917E+03    0.29599E-04   -0.45652E-04  9440   0.156E-01
  68 F= -.19171987E+03 E0= -.19163660E+03  d E =-.265068E-03
       N       E                     dE             d eps       ncg     rms          rms(c)
DAV:   1    -0.191718600116E+03    0.13004E-02   -0.60989E-02  8160   0.561E-01    0.133E-01
DAV:   2    -0.191722987399E+03   -0.43873E-02   -0.90286E-03 12280   0.696E-01    0.672E-01
DAV:   3    -0.191718512244E+03    0.44752E-02   -0.61520E-03  9960   0.598E-01    0.632E-02
DAV:   4    -0.191718558753E+03   -0.46509E-04   -0.22375E-04  7240   0.118E-01
  69 F= -.19171856E+03 E0= -.19163471E+03  d E =0.131216E-02
       N       E                     dE             d eps       ncg     rms          rms(c)
DAV:   1    -0.191720009829E+03   -0.14976E-02   -0.42823E-01  8160   0.138E+00    0.261E-01
DAV:   2    -0.191733310839E+03   -0.13301E-01   -0.32877E-02 12640   0.137E+00    0.110E+00
DAV:   3    -0.191719950094E+03    0.13361E-01   -0.17918E-02 11640   0.110E+00    0.150E-01
DAV:   4    -0.191720094600E+03   -0.14451E-03   -0.13043E-03  9880   0.274E-01    0.190E-01
DAV:   5    -0.191719748007E+03    0.34659E-03   -0.60900E-04  8840   0.202E-01    0.630E-02
DAV:   6    -0.191719706088E+03    0.41919E-04   -0.16509E-04  6560   0.678E-02
  70 F= -.19171971E+03 E0= -.19163599E+03  d E =-.114734E-02
       N       E                     dE             d eps       ncg     rms          rms(c)
DAV:   1    -0.191724588055E+03   -0.48400E-02   -0.55087E-01  8160   0.160E+00    0.215E-01
DAV:   2    -0.191729327467E+03   -0.47394E-02   -0.20953E-02 12720   0.853E-01    0.637E-01
DAV:   3    -0.191725008677E+03    0.43188E-02   -0.84067E-03 12280   0.723E-01    0.164E-01
DAV:   4    -0.191725120776E+03   -0.11210E-03   -0.13857E-03  9720   0.273E-01    0.201E-01
DAV:   5    -0.191724767101E+03    0.35368E-03   -0.93213E-04 10000   0.262E-01    0.108E-01
DAV:   6    -0.191724682054E+03    0.85046E-04   -0.42604E-04  8920   0.144E-01
  71 F= -.19172468E+03 E0= -.19164107E+03  d E =-.497597E-02
       N       E                     dE             d eps       ncg     rms          rms(c)
DAV:   1    -0.191729181529E+03   -0.44144E-02   -0.28338E-01  8160   0.118E+00    0.215E-01
DAV:   2    -0.191736284332E+03   -0.71028E-02   -0.20171E-02 12240   0.951E-01    0.822E-01
DAV:   3    -0.191729027857E+03    0.72565E-02   -0.11511E-02 12160   0.840E-01    0.134E-01
DAV:   4    -0.191729082164E+03   -0.54306E-04   -0.10347E-03 10040   0.223E-01    0.159E-01
DAV:   5    -0.191728887782E+03    0.19438E-03   -0.67535E-04 10200   0.224E-01    0.959E-02
DAV:   6    -0.191728783045E+03    0.10474E-03   -0.27592E-04  6840   0.123E-01    0.559E-02
DAV:   7    -0.191728780898E+03    0.21473E-05   -0.15895E-04  7560   0.105E-01
  72 F= -.19172878E+03 E0= -.19164512E+03  d E =-.409884E-02
       N       E                     dE             d eps       ncg     rms          rms(c)
DAV:   1    -0.191735498378E+03   -0.67153E-02   -0.35845E-01  8160   0.129E+00    0.141E-01
DAV:   2    -0.191735895043E+03   -0.39667E-03   -0.94851E-03 11440   0.266E-01    0.938E-02
DAV:   3    -0.191736153830E+03   -0.25879E-03   -0.10859E-03 11240   0.246E-01    0.183E-01
DAV:   4    -0.191735769200E+03    0.38463E-03   -0.69609E-04  9240   0.235E-01    0.641E-02
DAV:   5    -0.191735754696E+03    0.14504E-04   -0.14815E-04  5880   0.741E-02
  73 F= -.19173575E+03 E0= -.19165251E+03  d E =-.697380E-02
       N       E                     dE             d eps       ncg     rms          rms(c)
DAV:   1    -0.191725332976E+03    0.10436E-01   -0.73798E-01  8160   0.184E+00    0.213E-01
DAV:   2    -0.191728597308E+03   -0.32643E-02   -0.22872E-02 12520   0.639E-01    0.526E-01
DAV:   3    -0.191726319401E+03    0.22779E-02   -0.68644E-03 12040   0.594E-01    0.201E-01
DAV:   4    -0.191725884809E+03    0.43459E-03   -0.83498E-04  9720   0.176E-01    0.755E-02
DAV:   5    -0.191725984768E+03   -0.99960E-04   -0.60399E-04 10120   0.186E-01
  74 F= -.19172598E+03 E0= -.19164202E+03  d E =0.976993E-02
       N       E                     dE             d eps       ncg     rms          rms(c)
DAV:   1    -0.191724928570E+03    0.95624E-03   -0.12184E-01  8160   0.758E-01    0.136E-01
DAV:   2    -0.191725150128E+03   -0.22156E-03   -0.47549E-03 12680   0.320E-01    0.217E-01
DAV:   3    -0.191724823076E+03    0.32705E-03   -0.17684E-03 10800   0.330E-01    0.150E-01
DAV:   4    -0.191724655184E+03    0.16789E-03   -0.77561E-04  9080   0.201E-01    0.113E-01
DAV:   5    -0.191724623767E+03    0.31416E-04   -0.49788E-04  8200   0.179E-01
  75 F= -.19172462E+03 E0= -.19164048E+03  d E =0.136100E-02
       N       E                     dE             d eps       ncg     rms          rms(c)
DAV:   1    -0.191711648886E+03    0.13006E-01   -0.23574E+00  8160   0.330E+00    0.376E-01
DAV:   2    -0.191722302629E+03   -0.10654E-01   -0.70002E-02 12920   0.116E+00    0.951E-01
DAV:   3    -0.191715024454E+03    0.72782E-02   -0.21090E-02 12440   0.106E+00    0.355E-01
DAV:   4    -0.191714432182E+03    0.59227E-03   -0.36902E-03 11040   0.422E-01    0.286E-01
DAV:   5    -0.191713583803E+03    0.84838E-03   -0.22168E-03 12640   0.407E-01    0.147E-01
DAV:   6    -0.191713555848E+03    0.27955E-04   -0.11196E-03 11080   0.197E-01    0.104E-01
DAV:   7    -0.191713378258E+03    0.17759E-03   -0.45753E-04  9720   0.135E-01    0.660E-02
DAV:   8    -0.191713336184E+03    0.42075E-04   -0.11271E-04  5960   0.944E-02
  76 F= -.19171334E+03 E0= -.19162836E+03  d E =0.112876E-01
       N       E                     dE             d eps       ncg     rms          rms(c)
DAV:   1    -0.191724548124E+03   -0.11170E-01   -0.17749E+00  8160   0.286E+00    0.343E-01
DAV:   2    -0.191732751047E+03   -0.82029E-02   -0.57104E-02 13120   0.104E+00    0.815E-01
DAV:   3    -0.191726792398E+03    0.59586E-02   -0.15737E-02 12120   0.958E-01    0.304E-01
DAV:   4    -0.191725751154E+03    0.10412E-02   -0.22612E-03 11040   0.284E-01    0.150E-01
DAV:   5    -0.191726125948E+03   -0.37479E-03   -0.16567E-03 11040   0.351E-01    0.240E-01
DAV:   6    -0.191725532526E+03    0.59342E-03   -0.12204E-03 10360   0.280E-01    0.670E-02
DAV:   7    -0.191725462480E+03    0.70046E-04   -0.17355E-04  6480   0.722E-02
  77 F= -.19172546E+03 E0= -.19164153E+03  d E =-.121263E-01
       N       E                     dE             d eps       ncg     rms          rms(c)
DAV:   1    -0.191726015141E+03   -0.48262E-03   -0.74173E-02  8160   0.596E-01    0.764E-02
DAV:   2    -0.191726322366E+03   -0.30722E-03   -0.25374E-03 13280   0.205E-01    0.146E-01
DAV:   3    -0.191726109000E+03    0.21337E-03   -0.71052E-04  9760   0.209E-01    0.776E-02
DAV:   4    -0.191726096003E+03    0.12997E-04   -0.21908E-04  7120   0.109E-01
  78 F= -.19172610E+03 E0= -.19164230E+03  d E =-.633524E-03
       N       E                     dE             d eps       ncg     rms          rms(c)
DAV:   1    -0.191727253977E+03   -0.11450E-02   -0.69160E-02  8160   0.578E-01    0.863E-02
DAV:   2    -0.191727508882E+03   -0.25491E-03   -0.23420E-03 12440   0.196E-01    0.159E-01
DAV:   3    -0.191727311132E+03    0.19775E-03   -0.94339E-04 10200   0.224E-01    0.107E-01
DAV:   4    -0.191727228909E+03    0.82222E-04   -0.28919E-04  7920   0.118E-01
  79 F= -.19172723E+03 E0= -.19164359E+03  d E =-.113291E-02
       N       E                     dE             d eps       ncg     rms          rms(c)
DAV:   1    -0.191734588911E+03   -0.72778E-02   -0.48235E-01  8160   0.151E+00    0.203E-01
DAV:   2    -0.191736740329E+03   -0.21514E-02   -0.15936E-02 12600   0.559E-01    0.442E-01
DAV:   3    -0.191735029467E+03    0.17109E-02   -0.52864E-03 12120   0.549E-01    0.212E-01
DAV:   4    -0.191734620344E+03    0.40912E-03   -0.11174E-03  9800   0.209E-01    0.896E-02
DAV:   5    -0.191734479880E+03    0.14046E-03   -0.50332E-04 10520   0.104E-01    0.613E-02
DAV:   6    -0.191734515899E+03   -0.36020E-04   -0.27436E-04  8680   0.137E-01
  80 F= -.19173452E+03 E0= -.19165089E+03  d E =-.728699E-02
       N       E                     dE             d eps       ncg     rms          rms(c)
DAV:   1    -0.191735515424E+03   -0.10355E-02   -0.32916E-02  8160   0.408E-01    0.486E-02
DAV:   2    -0.191735690940E+03   -0.17552E-03   -0.11486E-03 13280   0.150E-01    0.116E-01
DAV:   3    -0.191735561620E+03    0.12932E-03   -0.32148E-04  8720   0.144E-01    0.473E-02
DAV:   4    -0.191735558894E+03    0.27255E-05   -0.72846E-05  5520   0.645E-02
  81 F= -.19173556E+03 E0= -.19165234E+03  d E =-.104300E-02
       N       E                     dE             d eps       ncg     rms          rms(c)
DAV:   1    -0.191742018557E+03   -0.64569E-02   -0.34697E-01  8160   0.127E+00    0.162E-01
DAV:   2    -0.191743719449E+03   -0.17009E-02   -0.11004E-02 12040   0.475E-01    0.376E-01
DAV:   3    -0.191742340971E+03    0.13785E-02   -0.35280E-03 12240   0.450E-01    0.144E-01
DAV:   4    -0.191742313146E+03    0.27824E-04   -0.69104E-04  8800   0.201E-01
  82 F= -.19174231E+03 E0= -.19165944E+03  d E =-.675425E-02
       N       E                     dE             d eps       ncg     rms          rms(c)
DAV:   1    -0.191744143568E+03   -0.18026E-02   -0.47833E-02  8160   0.531E-01    0.107E-01
DAV:   2    -0.191745075671E+03   -0.93210E-03   -0.29297E-03 12560   0.377E-01    0.299E-01
DAV:   3    -0.191744064399E+03    0.10113E-02   -0.15393E-03 10120   0.349E-01    0.847E-02
DAV:   4    -0.191744112222E+03   -0.47824E-04   -0.37542E-04  8240   0.144E-01
  83 F= -.19174411E+03 E0= -.19166173E+03  d E =-.179908E-02
       N       E                     dE             d eps       ncg     rms          rms(c)
DAV:   1    -0.191751989768E+03   -0.79254E-02   -0.56367E-01  8160   0.162E+00    0.205E-01
DAV:   2    -0.191753809974E+03   -0.18202E-02   -0.16617E-02 11800   0.497E-01    0.378E-01
DAV:   3    -0.191752669694E+03    0.11403E-02   -0.50042E-03 12280   0.529E-01    0.232E-01
DAV:   4    -0.191752245248E+03    0.42445E-03   -0.12718E-03  9800   0.252E-01    0.113E-01
DAV:   5    -0.191752168011E+03    0.77237E-04   -0.65847E-04 10160   0.191E-01
  84 F= -.19175217E+03 E0= -.19167027E+03  d E =-.805579E-02
       N       E                     dE             d eps       ncg     rms          rms(c)
DAV:   1    -0.191748529913E+03    0.37153E-02   -0.11446E-01  8160   0.754E-01    0.106E-01
DAV:   2    -0.191749956769E+03   -0.14269E-02   -0.51902E-03 12280   0.435E-01    0.328E-01
DAV:   3    -0.191748671875E+03    0.12849E-02   -0.18827E-03 11000   0.383E-01    0.857E-02
DAV:   4    -0.191748645953E+03    0.25922E-04   -0.30085E-04  8080   0.125E-01
  85 F= -.19174865E+03 E0= -.19166626E+03  d E =0.352206E-02
       N       E                     dE             d eps       ncg     rms          rms(c)
DAV:   1    -0.191760182469E+03   -0.11511E-01   -0.13019E+00  8160   0.246E+00    0.269E-01
DAV:   2    -0.191764499453E+03   -0.43170E-02   -0.37322E-02 12240   0.819E-01    0.526E-01
DAV:   3    -0.191762223017E+03    0.22764E-02   -0.76679E-03 12320   0.724E-01    0.275E-01
DAV:   4    -0.191761676965E+03    0.54605E-03   -0.19730E-03  9920   0.333E-01    0.178E-01
DAV:   5    -0.191761435192E+03    0.24177E-03   -0.12302E-03  9880   0.294E-01    0.130E-01
DAV:   6    -0.191761323106E+03    0.11209E-03   -0.70577E-04 10160   0.171E-01    0.727E-02
DAV:   7    -0.191761261515E+03    0.61592E-04   -0.27303E-04  7880   0.119E-01
  86 F= -.19176126E+03 E0= -.19167995E+03  d E =-.126156E-01
       N       E                     dE             d eps       ncg     rms          rms(c)
DAV:   1    -0.191768788131E+03   -0.74650E-02   -0.45687E-01  8160   0.146E+00    0.173E-01
DAV:   2    -0.191770372393E+03   -0.15843E-02   -0.14586E-02 12960   0.474E-01    0.322E-01
DAV:   3    -0.191769566341E+03    0.80605E-03   -0.35923E-03 12320   0.460E-01    0.192E-01
DAV:   4    -0.191769226403E+03    0.33994E-03   -0.79992E-04  9560   0.199E-01    0.782E-02
DAV:   5    -0.191769157095E+03    0.69308E-04   -0.38714E-04  9080   0.114E-01
  87 F= -.19176916E+03 E0= -.19168772E+03  d E =-.789558E-02
       N       E                     dE             d eps       ncg     rms          rms(c)
DAV:   1    -0.191762691896E+03    0.65345E-02   -0.31629E-01  8160   0.124E+00    0.192E-01
DAV:   2    -0.191766345007E+03   -0.36531E-02   -0.14512E-02 12640   0.759E-01    0.560E-01
DAV:   3    -0.191762806414E+03    0.35386E-02   -0.55631E-03 11440   0.656E-01    0.137E-01
DAV:   4    -0.191762762775E+03    0.43640E-04   -0.90778E-04  9560   0.203E-01
  88 F= -.19176276E+03 E0= -.19168145E+03  d E =0.639432E-02
       N       E                     dE             d eps       ncg     rms          rms(c)
DAV:   1    -0.191755466485E+03    0.73399E-02   -0.66951E-01  8160   0.181E+00    0.288E-01
DAV:   2    -0.191756458880E+03   -0.99240E-03   -0.24424E-02 12240   0.641E-01    0.374E-01
DAV:   3    -0.191755255045E+03    0.12038E-02   -0.61956E-03 12120   0.631E-01    0.262E-01
DAV:   4    -0.191754797108E+03    0.45794E-03   -0.25854E-03 11480   0.387E-01    0.208E-01
DAV:   5    -0.191754560470E+03    0.23664E-03   -0.20160E-03 10480   0.336E-01    0.203E-01
DAV:   6    -0.191754179153E+03    0.38132E-03   -0.10900E-03  9680   0.244E-01    0.716E-02
DAV:   7    -0.191754121548E+03    0.57604E-04   -0.15625E-04  6120   0.705E-02
  89 F= -.19175412E+03 E0= -.19167278E+03  d E =0.864123E-02
       N       E                     dE             d eps       ncg     rms          rms(c)
DAV:   1    -0.191750755814E+03    0.34233E-02   -0.97935E-02  8160   0.677E-01    0.804E-02
DAV:   2    -0.191750942372E+03   -0.18656E-03   -0.28925E-03 12280   0.179E-01    0.929E-02
DAV:   3    -0.191750924375E+03    0.17998E-04   -0.50277E-04  9680   0.181E-01
  90 F= -.19175092E+03 E0= -.19166902E+03  d E =0.319717E-02
       N       E                     dE             d eps       ncg     rms          rms(c)
DAV:   1    -0.191765161597E+03   -0.14219E-01   -0.99026E-01  8160   0.224E+00    0.407E-01
DAV:   2    -0.191766500926E+03   -0.13393E-02   -0.45926E-02 11840   0.957E-01    0.581E-01
DAV:   3    -0.191763791669E+03    0.27093E-02   -0.13042E-02 11840   0.944E-01    0.352E-01
DAV:   4    -0.191762524506E+03    0.12672E-02   -0.57905E-03 12200   0.516E-01    0.304E-01
DAV:   5    -0.191762316068E+03    0.20844E-03   -0.42982E-03 12200   0.514E-01    0.301E-01
DAV:   6    -0.191761293352E+03    0.10227E-02   -0.18318E-03 10880   0.324E-01    0.640E-02
DAV:   7    -0.191761258503E+03    0.34849E-04   -0.26668E-04  6800   0.906E-02
  91 F= -.19176126E+03 E0= -.19167931E+03  d E =-.103341E-01
       N       E                     dE             d eps       ncg     rms          rms(c)
DAV:   1    -0.191762431205E+03   -0.11379E-02   -0.10018E-01  8160   0.741E-01    0.209E-01
DAV:   2    -0.191764640460E+03   -0.22093E-02   -0.10765E-02 10800   0.733E-01    0.511E-01
DAV:   3    -0.191761566395E+03    0.30741E-02   -0.46091E-03 11400   0.597E-01    0.114E-01
DAV:   4    -0.191761655904E+03   -0.89509E-04   -0.10417E-03  9560   0.245E-01    0.178E-01
DAV:   5    -0.191761407346E+03    0.24856E-03   -0.82206E-04  9760   0.258E-01    0.115E-01
DAV:   6    -0.191761280731E+03    0.12661E-03   -0.37821E-04  7600   0.141E-01    0.643E-02
DAV:   7    -0.191761245875E+03    0.34856E-04   -0.12654E-04  5760   0.940E-02
  92 F= -.19176125E+03 E0= -.19167932E+03  d E =0.126278E-04
       N       E                     dE             d eps       ncg     rms          rms(c)
DAV:   1    -0.191769013315E+03   -0.77326E-02   -0.53116E-01  8160   0.158E+00    0.187E-01
DAV:   2    -0.191770339445E+03   -0.13261E-02   -0.15963E-02 12560   0.497E-01    0.295E-01
DAV:   3    -0.191769786917E+03    0.55253E-03   -0.34632E-03 12320   0.468E-01    0.215E-01
DAV:   4    -0.191769428808E+03    0.35811E-03   -0.11962E-03  9960   0.267E-01    0.132E-01
DAV:   5    -0.191769303494E+03    0.12531E-03   -0.72832E-04  9040   0.218E-01    0.104E-01
DAV:   6    -0.191769210267E+03    0.93227E-04   -0.40096E-04  9040   0.141E-01
  93 F= -.19176921E+03 E0= -.19168761E+03  d E =-.796439E-02
       N       E                     dE             d eps       ncg     rms          rms(c)
DAV:   1    -0.191779308094E+03   -0.10005E-01   -0.93512E-01  8160   0.209E+00    0.246E-01
DAV:   2    -0.191782218064E+03   -0.29100E-02   -0.29570E-02 12240   0.700E-01    0.408E-01
DAV:   3    -0.191780892642E+03    0.13254E-02   -0.53194E-03 12280   0.628E-01    0.252E-01
DAV:   4    -0.191780414566E+03    0.47808E-03   -0.16733E-03 10320   0.321E-01    0.167E-01
DAV:   5    -0.191780229536E+03    0.18503E-03   -0.11742E-03 10280   0.276E-01    0.139E-01
DAV:   6    -0.191780120963E+03    0.10857E-03   -0.80083E-04  9280   0.195E-01    0.872E-02
DAV:   7    -0.191780066177E+03    0.54787E-04   -0.35654E-04  8440   0.140E-01
  94 F= -.19178007E+03 E0= -.19169884E+03  d E =-.108559E-01
       N       E                     dE             d eps       ncg     rms          rms(c)
DAV:   1    -0.191782828922E+03   -0.27080E-02   -0.71053E-02  8160   0.576E-01    0.681E-02
DAV:   2    -0.191783056172E+03   -0.22725E-03   -0.21682E-03 11640   0.176E-01    0.118E-01
DAV:   3    -0.191782950652E+03    0.10552E-03   -0.48774E-04  9880   0.175E-01    0.783E-02
DAV:   4    -0.191782903766E+03    0.46886E-04   -0.13317E-04  5960   0.936E-02
  95 F= -.19178290E+03 E0= -.19170172E+03  d E =-.283759E-02
       N       E                     dE             d eps       ncg     rms          rms(c)
DAV:   1    -0.191788397430E+03   -0.54468E-02   -0.26123E-01  8160   0.110E+00    0.126E-01
DAV:   2    -0.191789189703E+03   -0.79227E-03   -0.73801E-03 11960   0.316E-01    0.218E-01
DAV:   3    -0.191788831349E+03    0.35835E-03   -0.16632E-03 11960   0.329E-01    0.138E-01
DAV:   4    -0.191788678905E+03    0.15244E-03   -0.41066E-04  8280   0.153E-01    0.722E-02
DAV:   5    -0.191788654897E+03    0.24008E-04   -0.25726E-04  8600   0.133E-01
  96 F= -.19178865E+03 E0= -.19170767E+03  d E =-.575113E-02
       N       E                     dE             d eps       ncg     rms          rms(c)
DAV:   1    -0.191788078525E+03    0.60038E-03   -0.57016E-03  8360   0.189E-01    0.421E-02
DAV:   2    -0.191788343939E+03   -0.26541E-03   -0.76239E-04 11320   0.171E-01    0.145E-01
DAV:   3    -0.191788078348E+03    0.26559E-03   -0.41091E-04  8360   0.164E-01    0.390E-02
DAV:   4    -0.191788064332E+03    0.14016E-04   -0.40746E-05  5520   0.453E-02
  97 F= -.19178806E+03 E0= -.19170723E+03  d E =0.590565E-03
       N       E                     dE             d eps       ncg     rms          rms(c)
DAV:   1    -0.191794736725E+03   -0.66584E-02   -0.45217E-01  8160   0.144E+00    0.148E-01
DAV:   2    -0.191795731920E+03   -0.99519E-03   -0.11766E-02 12080   0.368E-01    0.193E-01
DAV:   3    -0.191795605834E+03    0.12609E-03   -0.17479E-03 12240   0.358E-01    0.176E-01
DAV:   4    -0.191795291845E+03    0.31399E-03   -0.60022E-04  9040   0.208E-01    0.744E-02
DAV:   5    -0.191795277759E+03    0.14086E-04   -0.31351E-04  8240   0.130E-01
  98 F= -.19179528E+03 E0= -.19171494E+03  d E =-.721343E-02
       N       E                     dE             d eps       ncg     rms          rms(c)
DAV:   1    -0.191785422045E+03    0.98698E-02   -0.80047E-01  8160   0.191E+00    0.201E-01
DAV:   2    -0.191788192754E+03   -0.27707E-02   -0.22053E-02 11720   0.571E-01    0.393E-01
DAV:   3    -0.191786799646E+03    0.13931E-02   -0.50361E-03 12280   0.560E-01    0.226E-01
DAV:   4    -0.191786369333E+03    0.43031E-03   -0.12923E-03  9600   0.256E-01    0.105E-01
DAV:   5    -0.191786241368E+03    0.12797E-03   -0.50395E-04 10040   0.148E-01    0.847E-02
DAV:   6    -0.191786261901E+03   -0.20533E-04   -0.41551E-04  9200   0.170E-01
  99 F= -.19178626E+03 E0= -.19170531E+03  d E =0.901586E-02
       N       E                     dE             d eps       ncg     rms          rms(c)
DAV:   1    -0.191770282320E+03    0.15959E-01   -0.28147E+00  8160   0.359E+00    0.391E-01
DAV:   2    -0.191781313123E+03   -0.11031E-01   -0.75546E-02 12280   0.128E+00    0.814E-01
DAV:   3    -0.191774004167E+03    0.73090E-02   -0.16779E-02 11680   0.110E+00    0.303E-01
DAV:   4    -0.191773467447E+03    0.53672E-03   -0.35948E-03 11440   0.406E-01    0.238E-01
DAV:   5    -0.191773000086E+03    0.46736E-03   -0.21546E-03 11520   0.375E-01    0.174E-01
DAV:   6    -0.191773034794E+03   -0.34708E-04   -0.13062E-03 11080   0.282E-01    0.157E-01
DAV:   7    -0.191772830058E+03    0.20474E-03   -0.82977E-04 10000   0.224E-01    0.114E-01
DAV:   8    -0.191772684715E+03    0.14534E-03   -0.25848E-04  7840   0.123E-01    0.234E-02
DAV:   9    -0.191772681738E+03    0.29768E-05   -0.27577E-05  6480   0.254E-02
 100 F= -.19177268E+03 E0= -.19168963E+03  d E =0.135802E-01
