<?xml version="1.0" encoding="ISO-8859-1"?>
<modeling>
 <generator>
  <i name="program" type="string">vasp </i>
  <i name="version" type="string">5.4.1  </i>
  <i name="subversion" type="string">05Feb16 (build Jul 05 2020 17:13:04) complex                          parallel </i>
  <i name="platform" type="string">IFC91_ompi </i>
  <i name="date" type="string">2024 04 26 </i>
  <i name="time" type="string">07:14:27 </i>
 </generator>
 <incar>
  <i type="int" name="ISTART">     0</i>
  <i type="string" name="PREC">normal</i>
  <i type="string" name="ALGO"> Normal</i>
  <i type="int" name="ISPIN">     1</i>
  <i type="int" name="ICHARG">     2</i>
  <i type="int" name="IBRION">     1</i>
  <i type="int" name="NSW">   100</i>
  <i type="int" name="ISIF">     3</i>
  <i type="int" name="ISYM">     0</i>
  <i name="SYMPREC">      0.00000001</i>
  <i name="POTIM">      0.50000000</i>
  <i type="logical" name="LREAL"> F  </i>
  <i type="logical" name="LPLANE"> F  </i>
  <i type="int" name="ISMEAR">     0</i>
  <i type="logical" name="LWAVE"> F  </i>
  <i type="logical" name="LCHARG"> F  </i>
  <v type="int" name="KPOINT_BSE">    -1     0     0     0</v>
 </incar>
 <kpoints>
  <generation param="Gamma">
   <v type="int" name="divisions">       8        8        1 </v>
   <v name="usershift">      0.00000000       0.00000000       0.00000000 </v>
   <v name="genvec1">      0.12500000       0.00000000       0.00000000 </v>
   <v name="genvec2">     -0.00000000       0.12500000       0.00000000 </v>
   <v name="genvec3">      0.00000000       0.00000000       1.00000000 </v>
   <v name="shift">      0.00000000       0.00000000       0.00000000 </v>
  </generation>
  <varray name="kpointlist" >
   <v>       0.00000000       0.00000000       0.00000000 </v>
   <v>       0.12500000       0.00000000       0.00000000 </v>
   <v>       0.25000000       0.00000000       0.00000000 </v>
   <v>       0.37500000       0.00000000       0.00000000 </v>
   <v>       0.50000000       0.00000000       0.00000000 </v>
   <v>       0.00000000       0.12500000       0.00000000 </v>
   <v>       0.12500000       0.12500000       0.00000000 </v>
   <v>       0.25000000       0.12500000       0.00000000 </v>
   <v>       0.37500000       0.12500000       0.00000000 </v>
   <v>       0.50000000       0.12500000       0.00000000 </v>
   <v>      -0.37500000       0.12500000       0.00000000 </v>
   <v>      -0.25000000       0.12500000       0.00000000 </v>
   <v>      -0.12500000       0.12500000       0.00000000 </v>
   <v>       0.00000000       0.25000000       0.00000000 </v>
   <v>       0.12500000       0.25000000       0.00000000 </v>
   <v>       0.25000000       0.25000000       0.00000000 </v>
   <v>       0.37500000       0.25000000       0.00000000 </v>
   <v>       0.50000000       0.25000000       0.00000000 </v>
   <v>      -0.37500000       0.25000000       0.00000000 </v>
   <v>      -0.25000000       0.25000000       0.00000000 </v>
   <v>      -0.12500000       0.25000000       0.00000000 </v>
   <v>      -0.00000000       0.37500000       0.00000000 </v>
   <v>       0.12500000       0.37500000       0.00000000 </v>
   <v>       0.25000000       0.37500000       0.00000000 </v>
   <v>       0.37500000       0.37500000       0.00000000 </v>
   <v>       0.50000000       0.37500000       0.00000000 </v>
   <v>      -0.37500000       0.37500000       0.00000000 </v>
   <v>      -0.25000000       0.37500000       0.00000000 </v>
   <v>      -0.12500000       0.37500000       0.00000000 </v>
   <v>       0.00000000       0.50000000       0.00000000 </v>
   <v>       0.12500000       0.50000000       0.00000000 </v>
   <v>       0.25000000       0.50000000       0.00000000 </v>
   <v>       0.37500000       0.50000000       0.00000000 </v>
   <v>       0.50000000       0.50000000       0.00000000 </v>
  </varray>
  <varray name="weights" >
   <v>       0.01562500 </v>
   <v>       0.03125000 </v>
   <v>       0.03125000 </v>
   <v>       0.03125000 </v>
   <v>       0.01562500 </v>
   <v>       0.03125000 </v>
   <v>       0.03125000 </v>
   <v>       0.03125000 </v>
   <v>       0.03125000 </v>
   <v>       0.03125000 </v>
   <v>       0.03125000 </v>
   <v>       0.03125000 </v>
   <v>       0.03125000 </v>
   <v>       0.03125000 </v>
   <v>       0.03125000 </v>
   <v>       0.03125000 </v>
   <v>       0.03125000 </v>
   <v>       0.03125000 </v>
   <v>       0.03125000 </v>
   <v>       0.03125000 </v>
   <v>       0.03125000 </v>
   <v>       0.03125000 </v>
   <v>       0.03125000 </v>
   <v>       0.03125000 </v>
   <v>       0.03125000 </v>
   <v>       0.03125000 </v>
   <v>       0.03125000 </v>
   <v>       0.03125000 </v>
   <v>       0.03125000 </v>
   <v>       0.01562500 </v>
   <v>       0.03125000 </v>
   <v>       0.03125000 </v>
   <v>       0.03125000 </v>
   <v>       0.01562500 </v>
  </varray>
 </kpoints>
 <parameters>
  <separator name="general" >
   <i type="string" name="SYSTEM">unknown system</i>
   <i type="logical" name="LCOMPAT"> F  </i>
  </separator>
  <separator name="electronic" >
   <i type="string" name="PREC">normal</i>
   <i name="ENMAX">    280.00000000</i>
   <i name="ENAUG">    373.43800000</i>
   <i name="EDIFF">      0.00010000</i>
   <i type="int" name="IALGO">    38</i>
   <i type="int" name="IWAVPR">    11</i>
   <i type="int" name="NBANDS">   120</i>
   <i name="NELECT">    159.00000000</i>
   <i type="int" name="TURBO">     0</i>
   <i type="int" name="IRESTART">     0</i>
   <i type="int" name="NREBOOT">     0</i>
   <i type="int" name="NMIN">     0</i>
   <i name="EREF">      0.00000000</i>
   <separator name="electronic smearing" >
    <i type="int" name="ISMEAR">     0</i>
    <i name="SIGMA">      0.20000000</i>
    <i name="KSPACING">      0.50000000</i>
    <i type="logical" name="KGAMMA"> T  </i>
   </separator>
   <separator name="electronic projectors" >
    <i type="logical" name="LREAL"> F  </i>
    <v name="ROPT">      0.00000000      0.00000000      0.00000000      0.00000000</v>
    <i type="int" name="LMAXPAW">  -100</i>
    <i type="int" name="LMAXMIX">     2</i>
    <i type="logical" name="NLSPLINE"> F  </i>
   </separator>
   <separator name="electronic startup" >
    <i type="int" name="ISTART">     0</i>
    <i type="int" name="ICHARG">     2</i>
    <i type="int" name="INIWAV">     1</i>
   </separator>
   <separator name="electronic spin" >
    <i type="int" name="ISPIN">     1</i>
    <i type="logical" name="LNONCOLLINEAR"> F  </i>
    <v name="MAGMOM">      1.00000000      1.00000000      1.00000000      1.00000000      1.00000000      1.00000000      1.00000000      1.00000000      1.00000000      1.00000000      1.00000000      1.00000000      1.00000000      1.00000000      1.00000000      1.00000000      1.00000000      1.00000000      1.00000000      1.00000000
      1.00000000      1.00000000      1.00000000      1.00000000      1.00000000      1.00000000      1.00000000</v>
    <i name="NUPDOWN">     -1.00000000</i>
    <i type="logical" name="LSORBIT"> F  </i>
    <v name="SAXIS">      0.00000000      0.00000000      1.00000000</v>
    <i type="logical" name="LSPIRAL"> F  </i>
    <v name="QSPIRAL">      0.00000000      0.00000000      0.00000000</v>
    <i type="logical" name="LZEROZ"> F  </i>
   </separator>
   <separator name="electronic exchange-correlation" >
    <i type="logical" name="LASPH"> F  </i>
    <i type="logical" name="LMETAGGA"> F  </i>
   </separator>
   <separator name="electronic convergence" >
    <i type="int" name="NELM">    60</i>
    <i type="int" name="NELMDL">    -5</i>
    <i type="int" name="NELMIN">     2</i>
    <i name="ENINI">    280.00000000</i>
    <separator name="electronic convergence detail" >
     <i type="logical" name="LDIAG"> T  </i>
     <i type="logical" name="LSUBROT"> F  </i>
     <i name="WEIMIN">      0.00100000</i>
     <i name="EBREAK">      0.00000021</i>
     <i name="DEPER">      0.30000000</i>
     <i type="int" name="NRMM">     4</i>
     <i name="TIME">      0.40000000</i>
    </separator>
   </separator>
   <separator name="electronic mixer" >
    <i name="AMIX">      0.40000000</i>
    <i name="BMIX">      1.00000000</i>
    <i name="AMIN">      0.10000000</i>
    <i name="AMIX_MAG">      1.60000000</i>
    <i name="BMIX_MAG">      1.00000000</i>
    <separator name="electronic mixer details" >
     <i type="int" name="IMIX">     4</i>
     <i type="logical" name="MIXFIRST"> F  </i>
     <i type="int" name="MAXMIX">   -45</i>
     <i name="WC">    100.00000000</i>
     <i type="int" name="INIMIX">     1</i>
     <i type="int" name="MIXPRE">     1</i>
     <i type="int" name="MREMOVE">     5</i>
    </separator>
   </separator>
   <separator name="electronic dipolcorrection" >
    <i type="logical" name="LDIPOL"> F  </i>
    <i type="logical" name="LMONO"> F  </i>
    <i type="int" name="IDIPOL">     0</i>
    <i name="EPSILON">      1.00000000</i>
    <v name="DIPOL">   -100.00000000   -100.00000000   -100.00000000</v>
    <i name="EFIELD">      0.00000000</i>
   </separator>
  </separator>
  <separator name="grids" >
   <i type="int" name="NGX">    42</i>
   <i type="int" name="NGY">    42</i>
   <i type="int" name="NGZ">   126</i>
   <i type="int" name="NGXF">    84</i>
   <i type="int" name="NGYF">    84</i>
   <i type="int" name="NGZF">   252</i>
   <i type="logical" name="ADDGRID"> F  </i>
  </separator>
  <separator name="ionic" >
   <i type="int" name="NSW">   100</i>
   <i type="int" name="IBRION">     1</i>
   <i type="int" name="ISIF">     3</i>
   <i name="PSTRESS">      0.00000000</i>
   <i name="EDIFFG">      0.00100000</i>
   <i type="int" name="NFREE">     0</i>
   <i name="POTIM">      0.50000000</i>
   <i name="SMASS">     -3.00000000</i>
   <i name="SCALEE">      1.00000000</i>
  </separator>
  <separator name="ionic md" >
   <i name="TEBEG">      0.00010000</i>
   <i name="TEEND">      0.00010000</i>
   <i type="int" name="NBLOCK">     1</i>
   <i type="int" name="KBLOCK">   100</i>
   <i type="int" name="NPACO">   256</i>
   <i name="APACO">     16.00000000</i>
  </separator>
  <separator name="symmetry" >
   <i type="int" name="ISYM">     0</i>
   <i name="SYMPREC">      0.00000001</i>
  </separator>
  <separator name="dos" >
   <i type="logical" name="LORBIT"> F  </i>
   <v name="RWIGS">     -1.00000000     -1.00000000     -1.00000000     -1.00000000</v>
   <i type="int" name="NEDOS">   301</i>
   <i name="EMIN">     10.00000000</i>
   <i name="EMAX">    -10.00000000</i>
   <i name="EFERMI">      0.00000000</i>
  </separator>
  <separator name="writing" >
   <i type="int" name="NWRITE">     2</i>
   <i type="logical" name="LWAVE"> F  </i>
   <i type="logical" name="LCHARG"> F  </i>
   <i type="logical" name="LPARD"> F  </i>
   <i type="logical" name="LVTOT"> F  </i>
   <i type="logical" name="LVHAR"> F  </i>
   <i type="logical" name="LELF"> F  </i>
   <i type="logical" name="LOPTICS"> F  </i>
   <v name="STM">      0.00000000      0.00000000      0.00000000      0.00000000      0.00000000      0.00000000      0.00000000</v>
  </separator>
  <separator name="performance" >
   <i type="int" name="NPAR">    40</i>
   <i type="int" name="NSIM">     4</i>
   <i type="int" name="NBLK">    -1</i>
   <i type="logical" name="LPLANE"> F  </i>
   <i type="logical" name="LSCALAPACK"> T  </i>
   <i type="logical" name="LSCAAWARE"> F  </i>
   <i type="logical" name="LSCALU"> F  </i>
   <i type="logical" name="LASYNC"> F  </i>
   <i type="logical" name="LORBITALREAL"> F  </i>
  </separator>
  <separator name="miscellaneous" >
   <i type="int" name="IDIOT">     3</i>
   <i type="logical" name="LMUSIC"> F  </i>
   <v name="POMASS">     50.94100000     95.94000000    183.85000000     32.06600000</v>
   <v name="DARWINR">      0.00000000      0.00000000      0.00000000      0.00000000</v>
   <v name="DARWINV">      1.00000000      1.00000000      1.00000000      1.00000000</v>
   <i type="logical" name="LCORR"> T  </i>
  </separator>
  <i type="logical" name="GGA_COMPAT"> T  </i>
  <i type="logical" name="LBERRY"> F  </i>
  <i type="int" name="ICORELEVEL">     0</i>
  <i type="logical" name="LDAU"> F  </i>
  <i type="int" name="I_CONSTRAINED_M">     0</i>
  <separator name="electronic exchange-correlation" >
   <i type="string" name="GGA">--</i>
   <i type="int" name="VOSKOWN">     0</i>
   <i type="logical" name="LHFCALC"> F  </i>
   <i type="string" name="PRECFOCK"></i>
   <i type="logical" name="LSYMGRAD"> F  </i>
   <i type="logical" name="LHFONE"> F  </i>
   <i type="logical" name="LRHFCALC"> F  </i>
   <i type="logical" name="LTHOMAS"> F  </i>
   <i type="logical" name="LMODELHF"> F  </i>
   <i name="ENCUT4O">     -1.00000000</i>
   <i type="int" name="EXXOEP">     0</i>
   <i type="int" name="FOURORBIT">     0</i>
   <i name="AEXX">      0.00000000</i>
   <i name="HFALPHA">      0.00000000</i>
   <i name="MCALPHA">      0.00000000</i>
   <i name="ALDAX">      1.00000000</i>
   <i name="AGGAX">      1.00000000</i>
   <i name="ALDAC">      1.00000000</i>
   <i name="AGGAC">      1.00000000</i>
   <i type="int" name="NKREDX">     1</i>
   <i type="int" name="NKREDY">     1</i>
   <i type="int" name="NKREDZ">     1</i>
   <i type="logical" name="SHIFTRED"> F  </i>
   <i type="logical" name="ODDONLY"> F  </i>
   <i type="logical" name="EVENONLY"> F  </i>
   <i type="int" name="LMAXFOCK">     0</i>
   <i type="int" name="NMAXFOCKAE">     0</i>
   <i type="logical" name="LFOCKAEDFT"> F  </i>
   <i name="HFSCREEN">      0.00000000</i>
   <i name="HFSCREENC">      0.00000000</i>
   <i type="int" name="NBANDSGWLOW">     0</i>
  </separator>
  <separator name="vdW DFT" >
   <i type="logical" name="LUSE_VDW"> F  </i>
   <i name="Zab_VDW">     -0.84910000</i>
   <i name="PARAM1">      0.12340000</i>
   <i name="PARAM2">      1.00000000</i>
   <i name="PARAM3">      0.00000000</i>
  </separator>
  <separator name="model GW" >
   <i type="int" name="MODEL_GW">     0</i>
   <i name="MODEL_EPS0">     58.26239943</i>
   <i name="MODEL_ALPHA">      1.00000000</i>
  </separator>
  <separator name="linear response parameters" >
   <i type="logical" name="LEPSILON"> F  </i>
   <i type="logical" name="LRPA"> F  </i>
   <i type="logical" name="LNABLA"> F  </i>
   <i type="logical" name="LVEL"> F  </i>
   <i type="int" name="KINTER">     0</i>
   <i name="CSHIFT">      0.10000000</i>
   <i name="OMEGAMAX">     -1.00000000</i>
   <i name="DEG_THRESHOLD">      0.00200000</i>
  </separator>
  <separator name="orbital magnetization" >
   <i type="logical" name="NUCIND"> F  </i>
   <v name="MAGPOS">      0.00000000      0.00000000      0.00000000</v>
   <i type="logical" name="LNICSALL"> T  </i>
   <i type="logical" name="ORBITALMAG"> F  </i>
   <i type="logical" name="LMAGBLOCH"> F  </i>
   <i type="logical" name="LCHIMAG"> F  </i>
   <i type="logical" name="LGAUGE"> T  </i>
   <i type="int" name="MAGATOM">     0</i>
   <v name="MAGDIPOL">      0.00000000      0.00000000      0.00000000</v>
   <v name="AVECCONST">      0.00000000      0.00000000      0.00000000</v>
  </separator>
  <separator name="response functions" >
   <i type="logical" name="LADDER"> F  </i>
   <i type="logical" name="LFXC"> F  </i>
   <i type="logical" name="LHARTREE"> T  </i>
   <i type="int" name="IBSE">     0</i>
   <v type="int" name="KPOINT">    -1     0     0     0</v>
   <i type="logical" name="LTCTE"> F  </i>
   <i type="logical" name="LTETE"> F  </i>
   <i type="logical" name="LTRIPLET"> F  </i>
   <i type="logical" name="LFXCEPS"> F  </i>
   <i type="logical" name="LFXHEG"> F  </i>
   <i type="int" name="NATURALO">     0</i>
   <i type="logical" name="L2ORDER"> F  </i>
   <i type="logical" name="LUSEW"> F  </i>
   <i name="ENCUTGW">     -2.00000000</i>
   <i name="ENCUTGWSOFT">     -2.00000000</i>
   <i name="ENCUTLF">     -1.00000000</i>
   <i type="int" name="LMAXMP2">    -1</i>
   <i name="SCISSOR">      0.00000000</i>
   <i type="int" name="NOMEGA">     0</i>
   <i type="int" name="NOMEGAR">     0</i>
   <i type="int" name="NBANDSGW">    -1</i>
   <i type="int" name="NBANDSO">    -1</i>
   <i type="int" name="NBANDSV">    -1</i>
   <i type="int" name="NELM">     1</i>
   <i type="int" name="NELMHF">     1</i>
   <i type="int" name="DIM">     3</i>
   <i type="int" name="ANTIRES">     0</i>
   <i name="OMEGAMAX">    -30.00000000</i>
   <i name="OMEGAMIN">    -30.00000000</i>
   <i name="OMEGATL">   -200.00000000</i>
   <i type="int" name="OMEGAGRID">     0</i>
   <i name="CSHIFT">     -0.10000000</i>
   <i type="logical" name="SELFENERGY"> F  </i>
   <i type="logical" name="LSPECTRAL"> F  </i>
   <i type="logical" name="LSPECTRALGW"> F  </i>
   <i type="logical" name="LSINGLES"> F  </i>
   <i type="logical" name="LFERMIGW"> F  </i>
   <i type="logical" name="ODDONLYGW"> F  </i>
   <i type="logical" name="EVENONLYGW"> F  </i>
   <i type="int" name="NKREDLFX">     1</i>
   <i type="int" name="NKREDLFY">     1</i>
   <i type="int" name="NKREDLFZ">     1</i>
   <i type="int" name="MAXMEM">  1800</i>
   <i type="int" name="TELESCOPE">     0</i>
   <i type="int" name="TAUPAR">     1</i>
   <i type="int" name="OMEGAPAR">    -1</i>
   <i name="LAMBDA">      1.00000000</i>
  </separator>
  <separator name="External order field" >
   <i name="OFIELD_KAPPA">      0.00000000</i>
   <v name="OFIELD_K">      0.00000000      0.00000000      0.00000000</v>
   <i name="OFIELD_Q6_NEAR">      0.00000000</i>
   <i name="OFIELD_Q6_FAR">      0.00000000</i>
   <i name="OFIELD_A">      0.00000000</i>
  </separator>
 </parameters>
 <atominfo>
  <atoms>      27 </atoms>
  <types>       4 </types>
  <array name="atoms" >
   <dimension dim="1">ion</dimension>
   <field type="string">element</field>
   <field type="int">atomtype</field>
   <set>
    <rc><c>V </c><c>   1</c></rc>
    <rc><c>V </c><c>   1</c></rc>
    <rc><c>V </c><c>   1</c></rc>
    <rc><c>Mo</c><c>   2</c></rc>
    <rc><c>Mo</c><c>   2</c></rc>
    <rc><c>Mo</c><c>   2</c></rc>
    <rc><c>W </c><c>   3</c></rc>
    <rc><c>W </c><c>   3</c></rc>
    <rc><c>W </c><c>   3</c></rc>
    <rc><c>S </c><c>   4</c></rc>
    <rc><c>S </c><c>   4</c></rc>
    <rc><c>S </c><c>   4</c></rc>
    <rc><c>S </c><c>   4</c></rc>
    <rc><c>S </c><c>   4</c></rc>
    <rc><c>S </c><c>   4</c></rc>
    <rc><c>S </c><c>   4</c></rc>
    <rc><c>S </c><c>   4</c></rc>
    <rc><c>S </c><c>   4</c></rc>
    <rc><c>S </c><c>   4</c></rc>
    <rc><c>S </c><c>   4</c></rc>
    <rc><c>S </c><c>   4</c></rc>
    <rc><c>S </c><c>   4</c></rc>
    <rc><c>S </c><c>   4</c></rc>
    <rc><c>S </c><c>   4</c></rc>
    <rc><c>S </c><c>   4</c></rc>
    <rc><c>S </c><c>   4</c></rc>
    <rc><c>S </c><c>   4</c></rc>
   </set>
  </array>
  <array name="atomtypes" >
   <dimension dim="1">type</dimension>
   <field type="int">atomspertype</field>
   <field type="string">element</field>
   <field>mass</field>
   <field>valence</field>
   <field type="string">pseudopotential</field>
   <set>
    <rc><c>   3</c><c>V </c><c>     50.94100000</c><c>      5.00000000</c><c> PAW_PBE V 08Apr2002                    </c></rc>
    <rc><c>   3</c><c>Mo</c><c>     95.94000000</c><c>      6.00000000</c><c> PAW_PBE Mo 08Apr2002                   </c></rc>
    <rc><c>   3</c><c>W </c><c>    183.85000000</c><c>      6.00000000</c><c> PAW_PBE W 08Apr2002                    </c></rc>
    <rc><c>  18</c><c>S </c><c>     32.06600000</c><c>      6.00000000</c><c>  PAW_PBE S 17Jan2003                   </c></rc>
   </set>
  </array>
 </atominfo>
 <structure name="initialpos" >
  <crystal>
   <varray name="basis" >
    <v>       8.66999996       5.03999989       0.00000000 </v>
    <v>      -8.66999982       5.04000013       0.00000000 </v>
    <v>       0.00000000       0.00000000      30.00000000 </v>
   </varray>
   <i name="volume">   2621.80797419 </i>
   <varray name="rec_basis" >
    <v>       0.05767013       0.09920635       0.00000000 </v>
    <v>      -0.05767013       0.09920635       0.00000000 </v>
    <v>       0.00000000       0.00000000       0.03333333 </v>
   </varray>
  </crystal>
  <varray name="positions" >
   <v>       0.66666669       0.66666669       0.00000000 </v>
   <v>       1.00000000       0.33333334       0.00000000 </v>
   <v>       0.66666669       0.33333334       0.00000000 </v>
   <v>       0.00000000       0.00000000       0.00000000 </v>
   <v>       0.33333334       0.33333334       0.00000000 </v>
   <v>       0.33333334       0.66666669       0.00000000 </v>
   <v>       0.00000000       0.66666669       0.00000000 </v>
   <v>       0.33333334       0.00000000       0.00000000 </v>
   <v>       0.66666669       0.00000000       0.00000000 </v>
   <v>       0.11068511       0.22244981       0.95539999 </v>
   <v>       0.22244981       0.11068511       0.04460000 </v>
   <v>       0.11068511       0.55578315       0.95539999 </v>
   <v>       0.22244981       0.44401845       0.04460000 </v>
   <v>       0.11068511       0.88911647       0.95539999 </v>
   <v>       0.22244981       0.77735180       0.04460000 </v>
   <v>       0.44401845       0.22244981       0.95539999 </v>
   <v>       0.55578315       0.11068511       0.04460000 </v>
   <v>       0.44401845       0.55578315       0.95539999 </v>
   <v>       0.55578315       0.44401845       0.04460000 </v>
   <v>       0.44401845       0.88911647       0.95539999 </v>
   <v>       0.55578315       0.77735180       0.04460000 </v>
   <v>       0.77735180       0.22244981       0.95539999 </v>
   <v>       0.88911647       0.11068511       0.04460000 </v>
   <v>       0.77735180       0.55578315       0.95539999 </v>
   <v>       0.88911647       0.44401845       0.04460000 </v>
   <v>       0.77735180       0.88911647       0.95539999 </v>
   <v>       0.88911647       0.77735180       0.04460000 </v>
  </varray>
 </structure>
 <calculation>
  <scstep>
   <time name="dav">   21.64   21.70</time>
   <time name="total">   21.69   21.75</time>
   <energy>
    <i name="alphaZ">     81.65567618 </i>
    <i name="ewald">  41890.25210247 </i>
    <i name="hartreedc"> -47722.88714652 </i>
    <i name="XCdc">   -242.92854894 </i>
    <i name="pawpsdc">   3467.42045192 </i>
    <i name="pawaedc">  -2871.19716117 </i>
    <i name="eentropy">     -0.53482630 </i>
    <i name="bandstr">   -239.44222604 </i>
    <i name="atom">   6761.44252427 </i>
    <i name="e_fr_energy">   1123.78084587 </i>
    <i name="e_wo_entrp">   1124.31567217 </i>
    <i name="e_0_energy">   1124.04825902 </i>
   </energy>
  </scstep>
  <scstep>
   <time name="dav">   28.47   28.54</time>
   <time name="total">   28.48   28.55</time>
   <energy>
    <i name="e_fr_energy">     -5.24806846 </i>
    <i name="e_wo_entrp">     -5.03574815 </i>
    <i name="e_0_energy">     -5.14190831 </i>
   </energy>
  </scstep>
  <scstep>
   <time name="dav">   27.40   27.46</time>
   <time name="total">   27.40   27.47</time>
   <energy>
    <i name="e_fr_energy">   -200.07058495 </i>
    <i name="e_wo_entrp">   -199.80735193 </i>
    <i name="e_0_energy">   -199.93896844 </i>
   </energy>
  </scstep>
  <scstep>
   <time name="dav">   30.13   30.20</time>
   <time name="total">   30.13   30.21</time>
   <energy>
    <i name="e_fr_energy">   -208.99511519 </i>
    <i name="e_wo_entrp">   -208.70993955 </i>
    <i name="e_0_energy">   -208.85252737 </i>
   </energy>
  </scstep>
  <scstep>
   <time name="dav">   28.37   28.44</time>
   <time name="total">   28.84   28.91</time>
   <energy>
    <i name="e_fr_energy">   -209.31164350 </i>
    <i name="e_wo_entrp">   -209.02983012 </i>
    <i name="e_0_energy">   -209.17073681 </i>
   </energy>
  </scstep>
  <scstep>
   <time name="dav">   30.59   30.67</time>
   <time name="total">   31.09   31.17</time>
   <energy>
    <i name="e_fr_energy">   -237.17710075 </i>
    <i name="e_wo_entrp">   -236.90195056 </i>
    <i name="e_0_energy">   -237.03952565 </i>
   </energy>
  </scstep>
  <scstep>
   <time name="dav">   32.38   32.46</time>
   <time name="total">   32.88   32.97</time>
   <energy>
    <i name="e_fr_energy">   -196.49382475 </i>
    <i name="e_wo_entrp">   -196.16733165 </i>
    <i name="e_0_energy">   -196.33057820 </i>
   </energy>
  </scstep>
  <scstep>
   <time name="dav">   29.75   29.82</time>
   <time name="total">   30.26   30.34</time>
   <energy>
    <i name="e_fr_energy">   -189.44199445 </i>
    <i name="e_wo_entrp">   -189.14983138 </i>
    <i name="e_0_energy">   -189.29591292 </i>
   </energy>
  </scstep>
  <scstep>
   <time name="dav">   30.76   30.83</time>
   <time name="total">   31.28   31.37</time>
   <energy>
    <i name="e_fr_energy">   -188.23599981 </i>
    <i name="e_wo_entrp">   -187.91598682 </i>
    <i name="e_0_energy">   -188.07599332 </i>
   </energy>
  </scstep>
  <scstep>
   <time name="dav">   32.22   32.30</time>
   <time name="total">   32.76   32.84</time>
   <energy>
    <i name="e_fr_energy">   -187.08118613 </i>
    <i name="e_wo_entrp">   -186.73441807 </i>
    <i name="e_0_energy">   -186.90780210 </i>
   </energy>
  </scstep>
  <scstep>
   <time name="dav">   32.99   33.07</time>
   <time name="total">   33.52   33.61</time>
   <energy>
    <i name="e_fr_energy">   -187.03306506 </i>
    <i name="e_wo_entrp">   -186.68521866 </i>
    <i name="e_0_energy">   -186.85914186 </i>
   </energy>
  </scstep>
  <scstep>
   <time name="dav">   31.07   31.15</time>
   <time name="total">   31.60   31.69</time>
   <energy>
    <i name="e_fr_energy">   -187.17400168 </i>
    <i name="e_wo_entrp">   -186.83550686 </i>
    <i name="e_0_energy">   -187.00475427 </i>
   </energy>
  </scstep>
  <scstep>
   <time name="dav">   32.29   32.37</time>
   <time name="total">   32.84   33.14</time>
   <energy>
    <i name="e_fr_energy">   -186.93024533 </i>
    <i name="e_wo_entrp">   -186.59579170 </i>
    <i name="e_0_energy">   -186.76301851 </i>
   </energy>
  </scstep>
  <scstep>
   <time name="dav">   33.01   33.09</time>
   <time name="total">   33.55   33.64</time>
   <energy>
    <i name="e_fr_energy">   -186.88066344 </i>
    <i name="e_wo_entrp">   -186.53695547 </i>
    <i name="e_0_energy">   -186.70880946 </i>
   </energy>
  </scstep>
  <scstep>
   <time name="dav">   30.53   30.60</time>
   <time name="total">   31.06   31.15</time>
   <energy>
    <i name="e_fr_energy">   -186.87943928 </i>
    <i name="e_wo_entrp">   -186.53420805 </i>
    <i name="e_0_energy">   -186.70682367 </i>
   </energy>
  </scstep>
  <scstep>
   <time name="dav">   32.77   32.85</time>
   <time name="total">   33.30   33.39</time>
   <energy>
    <i name="e_fr_energy">   -186.87505457 </i>
    <i name="e_wo_entrp">   -186.52975498 </i>
    <i name="e_0_energy">   -186.70240477 </i>
   </energy>
  </scstep>
  <scstep>
   <time name="dav">   30.95   31.03</time>
   <time name="total">   31.49   31.57</time>
   <energy>
    <i name="e_fr_energy">   -186.87146508 </i>
    <i name="e_wo_entrp">   -186.52851024 </i>
    <i name="e_0_energy">   -186.69998766 </i>
   </energy>
  </scstep>
  <scstep>
   <time name="dav">   29.01   29.08</time>
   <time name="total">   29.55   29.62</time>
   <energy>
    <i name="e_fr_energy">   -186.87129243 </i>
    <i name="e_wo_entrp">   -186.52797054 </i>
    <i name="e_0_energy">   -186.69963148 </i>
   </energy>
  </scstep>
  <scstep>
   <time name="dav">   28.47   28.54</time>
   <time name="total">   29.00   29.08</time>
   <energy>
    <i name="e_fr_energy">   -186.87093851 </i>
    <i name="e_wo_entrp">   -186.52746532 </i>
    <i name="e_0_energy">   -186.69920191 </i>
   </energy>
  </scstep>
  <scstep>
   <time name="dav">   23.65   23.70</time>
   <time name="total">   24.18   24.25</time>
   <energy>
    <i name="e_fr_energy">   -186.87165999 </i>
    <i name="e_wo_entrp">   -186.52844092 </i>
    <i name="e_0_energy">   -186.70005045 </i>
   </energy>
  </scstep>
  <scstep>
   <time name="dav">   22.04   22.09</time>
   <time name="total">   22.57   22.64</time>
   <energy>
    <i name="e_fr_energy">   -186.87221166 </i>
    <i name="e_wo_entrp">   -186.52898706 </i>
    <i name="e_0_energy">   -186.70059936 </i>
   </energy>
  </scstep>
  <scstep>
   <time name="dav">   20.38   20.43</time>
   <time name="total">   20.92   20.98</time>
   <energy>
    <i name="e_fr_energy">   -186.87341091 </i>
    <i name="e_wo_entrp">   -186.53015691 </i>
    <i name="e_0_energy">   -186.70178391 </i>
   </energy>
  </scstep>
  <scstep>
   <time name="dav">   20.61   20.66</time>
   <time name="total">   21.15   21.21</time>
   <energy>
    <i name="e_fr_energy">   -186.87463905 </i>
    <i name="e_wo_entrp">   -186.53145644 </i>
    <i name="e_0_energy">   -186.70304775 </i>
   </energy>
  </scstep>
  <scstep>
   <time name="dav">   18.63   18.68</time>
   <time name="total">   19.17   19.22</time>
   <energy>
    <i name="e_fr_energy">   -186.87522856 </i>
    <i name="e_wo_entrp">   -186.53202831 </i>
    <i name="e_0_energy">   -186.70362843 </i>
   </energy>
  </scstep>
  <scstep>
   <time name="dav">   16.68   16.72</time>
   <time name="total">   17.22   17.27</time>
   <energy>
    <i name="e_fr_energy">   -186.87560786 </i>
    <i name="e_wo_entrp">   -186.53236535 </i>
    <i name="e_0_energy">   -186.70398661 </i>
   </energy>
  </scstep>
  <scstep>
   <time name="dav">   18.95   19.00</time>
   <time name="total">   19.49   19.54</time>
   <energy>
    <i name="e_fr_energy">   -186.87583235 </i>
    <i name="e_wo_entrp">   -186.53260355 </i>
    <i name="e_0_energy">   -186.70421795 </i>
   </energy>
  </scstep>
  <scstep>
   <time name="dav">   19.85   19.90</time>
   <time name="total">   19.89   19.95</time>
   <energy>
    <i name="alphaZ">     81.65567618 </i>
    <i name="ewald">  41890.25210247 </i>
    <i name="hartreedc"> -47833.01747037 </i>
    <i name="XCdc">   -231.60090916 </i>
    <i name="pawpsdc">   4192.11974405 </i>
    <i name="pawaedc">  -3610.13754147 </i>
    <i name="eentropy">     -0.34322381 </i>
    <i name="bandstr">  -1437.24683242 </i>
    <i name="atom">   6761.44252427 </i>
    <i name="e_fr_energy">   -186.87593026 </i>
    <i name="e_wo_entrp">   -186.53270645 </i>
    <i name="e_0_energy">   -186.70431836 </i>
   </energy>
  </scstep>
  <structure>
   <crystal>
    <varray name="basis" >
     <v>       8.66999996       5.03999989       0.00000000 </v>
     <v>      -8.66999982       5.04000013       0.00000000 </v>
     <v>       0.00000000       0.00000000      30.00000000 </v>
    </varray>
    <i name="volume">   2621.80797419 </i>
    <varray name="rec_basis" >
     <v>       0.05767013       0.09920635       0.00000000 </v>
     <v>      -0.05767013       0.09920635       0.00000000 </v>
     <v>       0.00000000       0.00000000       0.03333333 </v>
    </varray>
   </crystal>
   <varray name="positions" >
    <v>       0.66666669       0.66666669       0.00000000 </v>
    <v>       1.00000000       0.33333334       0.00000000 </v>
    <v>       0.66666669       0.33333334       0.00000000 </v>
    <v>       0.00000000       0.00000000       0.00000000 </v>
    <v>       0.33333334       0.33333334       0.00000000 </v>
    <v>       0.33333334       0.66666669       0.00000000 </v>
    <v>       0.00000000       0.66666669       0.00000000 </v>
    <v>       0.33333334       0.00000000       0.00000000 </v>
    <v>       0.66666669       0.00000000       0.00000000 </v>
    <v>       0.11068511       0.22244981       0.95539999 </v>
    <v>       0.22244981       0.11068511       0.04460000 </v>
    <v>       0.11068511       0.55578315       0.95539999 </v>
    <v>       0.22244981       0.44401845       0.04460000 </v>
    <v>       0.11068511       0.88911647       0.95539999 </v>
    <v>       0.22244981       0.77735180       0.04460000 </v>
    <v>       0.44401845       0.22244981       0.95539999 </v>
    <v>       0.55578315       0.11068511       0.04460000 </v>
    <v>       0.44401845       0.55578315       0.95539999 </v>
    <v>       0.55578315       0.44401845       0.04460000 </v>
    <v>       0.44401845       0.88911647       0.95539999 </v>
    <v>       0.55578315       0.77735180       0.04460000 </v>
    <v>       0.77735180       0.22244981       0.95539999 </v>
    <v>       0.88911647       0.11068511       0.04460000 </v>
    <v>       0.77735180       0.55578315       0.95539999 </v>
    <v>       0.88911647       0.44401845       0.04460000 </v>
    <v>       0.77735180       0.88911647       0.95539999 </v>
    <v>       0.88911647       0.77735180       0.04460000 </v>
   </varray>
  </structure>
  <varray name="forces" >
   <v>      -0.16215860      -0.17767980       0.11613438 </v>
   <v>       0.37263746       0.19666788      -0.10002286 </v>
   <v>      -0.20650512      -0.04094479       0.01552788 </v>
   <v>       0.01807115       0.27805647      -0.09506269 </v>
   <v>      -0.26910701      -0.08761806       0.02204675 </v>
   <v>       0.25984395      -0.14657613       0.07125368 </v>
   <v>      -0.00194243       0.15563080       0.03202673 </v>
   <v>      -0.31440869      -0.15066772      -0.02189567 </v>
   <v>       0.29842603      -0.04290086      -0.05832500 </v>
   <v>      -0.77519012      -0.01240195      -2.16103242 </v>
   <v>       0.06189424       0.01772624       2.90051187 </v>
   <v>       0.37411635      -0.73368110      -2.16044162 </v>
   <v>      -0.52731279      -0.68152880       2.17553027 </v>
   <v>       0.25883142       0.01962099      -2.95206229 </v>
   <v>      -0.24907526       0.02211819       2.91852856 </v>
   <v>       0.62230147       0.53635510      -2.14083697 </v>
   <v>      -0.46680597       0.55125493       2.15581885 </v>
   <v>       0.53596395       0.69033582      -2.15490870 </v>
   <v>       0.31863024       0.69356962       1.42297252 </v>
   <v>       0.03539547       0.14180708      -2.84754410 </v>
   <v>       0.68750280       0.14022006       2.16974349 </v>
   <v>      -0.22842972       0.53219195      -1.41115689 </v>
   <v>      -0.62866349       0.54676258       2.13977296 </v>
   <v>      -0.23479846      -0.52285585      -1.40553964 </v>
   <v>       0.22905011      -0.51661096       1.38609560 </v>
   <v>       0.36125645      -0.68163520      -2.15211745 </v>
   <v>      -0.36952343      -0.72721649       2.13498276 </v>
  </varray>
  <varray name="stress" >
   <v>       7.28573583       0.08782884      -1.54548868 </v>
   <v>       0.08782894       4.46656475       0.06264296 </v>
   <v>      -1.54548881       0.06264286      30.30587229 </v>
  </varray>
  <energy>
   <i name="e_fr_energy">   -186.87593026 </i>
   <i name="e_wo_entrp">   -186.70431836 </i>
   <i name="e_0_energy">     -0.34322381 </i>
  </energy>
  <time name="totalsc">  786.82  789.15</time>
 </calculation>
 <calculation>
  <scstep>
   <time name="dav">   21.58   21.63</time>
   <time name="total">   22.12   22.18</time>
   <energy>
    <i name="alphaZ">     78.92180045 </i>
    <i name="ewald">  39380.08026164 </i>
    <i name="hartreedc"> -45337.59355138 </i>
    <i name="XCdc">   -239.05663535 </i>
    <i name="pawpsdc">   4192.09120373 </i>
    <i name="pawaedc">  -3610.10936194 </i>
    <i name="eentropy">     -0.28169439 </i>
    <i name="bandstr">  -1412.99375615 </i>
    <i name="atom">   6761.44252427 </i>
    <i name="e_fr_energy">   -187.49920911 </i>
    <i name="e_wo_entrp">   -187.21751472 </i>
    <i name="e_0_energy">   -187.35836192 </i>
   </energy>
  </scstep>
  <scstep>
   <time name="dav">   30.19   30.27</time>
   <time name="total">   30.73   30.81</time>
   <energy>
    <i name="e_fr_energy">   -189.36055164 </i>
    <i name="e_wo_entrp">   -189.03595909 </i>
    <i name="e_0_energy">   -189.19825537 </i>
   </energy>
  </scstep>
  <scstep>
   <time name="dav">   30.34   30.42</time>
   <time name="total">   30.89   30.98</time>
   <energy>
    <i name="e_fr_energy">   -189.37889935 </i>
    <i name="e_wo_entrp">   -189.11349363 </i>
    <i name="e_0_energy">   -189.24619649 </i>
   </energy>
  </scstep>
  <scstep>
   <time name="dav">   30.45   30.52</time>
   <time name="total">   30.99   31.08</time>
   <energy>
    <i name="e_fr_energy">   -188.75554454 </i>
    <i name="e_wo_entrp">   -188.47268360 </i>
    <i name="e_0_energy">   -188.61411407 </i>
   </energy>
  </scstep>
  <scstep>
   <time name="dav">   28.67   28.74</time>
   <time name="total">   29.21   29.29</time>
   <energy>
    <i name="e_fr_energy">   -188.79879676 </i>
    <i name="e_wo_entrp">   -188.51843988 </i>
    <i name="e_0_energy">   -188.65861832 </i>
   </energy>
  </scstep>
  <scstep>
   <time name="dav">   31.25   31.32</time>
   <time name="total">   31.79   31.88</time>
   <energy>
    <i name="e_fr_energy">   -188.76268822 </i>
    <i name="e_wo_entrp">   -188.47421959 </i>
    <i name="e_0_energy">   -188.61845390 </i>
   </energy>
  </scstep>
  <scstep>
   <time name="dav">   31.16   31.24</time>
   <time name="total">   31.71   31.79</time>
   <energy>
    <i name="e_fr_energy">   -188.68989862 </i>
    <i name="e_wo_entrp">   -188.40866385 </i>
    <i name="e_0_energy">   -188.54928124 </i>
   </energy>
  </scstep>
  <scstep>
   <time name="dav">   28.80   28.87</time>
   <time name="total">   29.35   29.42</time>
   <energy>
    <i name="e_fr_energy">   -188.67475832 </i>
    <i name="e_wo_entrp">   -188.39175370 </i>
    <i name="e_0_energy">   -188.53325601 </i>
   </energy>
  </scstep>
  <scstep>
   <time name="dav">   29.94   30.01</time>
   <time name="total">   30.48   30.56</time>
   <energy>
    <i name="e_fr_energy">   -188.66984495 </i>
    <i name="e_wo_entrp">   -188.38915536 </i>
    <i name="e_0_energy">   -188.52950016 </i>
   </energy>
  </scstep>
  <scstep>
   <time name="dav">   32.45   32.52</time>
   <time name="total">   32.99   33.08</time>
   <energy>
    <i name="e_fr_energy">   -188.66828896 </i>
    <i name="e_wo_entrp">   -188.38780260 </i>
    <i name="e_0_energy">   -188.52804578 </i>
   </energy>
  </scstep>
  <scstep>
   <time name="dav">   31.17   31.25</time>
   <time name="total">   31.71   31.80</time>
   <energy>
    <i name="e_fr_energy">   -188.66765017 </i>
    <i name="e_wo_entrp">   -188.38804635 </i>
    <i name="e_0_energy">   -188.52784826 </i>
   </energy>
  </scstep>
  <scstep>
   <time name="dav">   28.70   28.77</time>
   <time name="total">   28.74   28.81</time>
   <energy>
    <i name="alphaZ">     78.92180045 </i>
    <i name="ewald">  39380.08026164 </i>
    <i name="hartreedc"> -45348.52936353 </i>
    <i name="XCdc">   -237.96765304 </i>
    <i name="pawpsdc">   3952.79105495 </i>
    <i name="pawaedc">  -3367.33029961 </i>
    <i name="eentropy">     -0.27956450 </i>
    <i name="bandstr">  -1407.79639129 </i>
    <i name="atom">   6761.44252427 </i>
    <i name="e_fr_energy">   -188.66763065 </i>
    <i name="e_wo_entrp">   -188.38806615 </i>
    <i name="e_0_energy">   -188.52784840 </i>
   </energy>
  </scstep>
  <structure>
   <crystal>
    <varray name="basis" >
     <v>       8.85598716       5.10804696       0.00000000 </v>
     <v>      -8.85339847       5.10359429       0.00000000 </v>
     <v>       0.00000000       0.00000000      30.00000000 </v>
    </varray>
    <i name="volume">   2712.62821820 </i>
    <varray name="rec_basis" >
     <v>       0.05644261       0.09791314       0.00000000 </v>
     <v>      -0.05649186       0.09794177       0.00000000 </v>
     <v>       0.00000000       0.00000000       0.03333333 </v>
    </varray>
   </crystal>
   <varray name="positions" >
    <v>       0.66536516       0.66626747       0.00018675 </v>
    <v>       1.00197799       0.33323785      -0.00016085 </v>
    <v>       0.66589620       0.33371191       0.00002497 </v>
    <v>       0.00138105       0.00128050      -0.00015287 </v>
    <v>       0.33216531       0.33366270       0.00003545 </v>
    <v>       0.33335476       0.66524225       0.00011458 </v>
    <v>       0.00073944       0.66741694       0.00005150 </v>
    <v>       0.33173752       0.00015364      -0.00003521 </v>
    <v>       0.66729163      -0.00103559      -0.00009379 </v>
    <v>       0.10846905       0.22454716       0.95192486 </v>
    <v>       0.22270685       0.11059775       0.04926428 </v>
    <v>       0.10821458       0.55123092       0.95192581 </v>
    <v>       0.21772096       0.44222374       0.04809844 </v>
    <v>       0.11149913       0.88849026       0.95065281 </v>
    <v>       0.22186270       0.77815062       0.04929325 </v>
    <v>       0.44831678       0.22328545       0.95195733 </v>
    <v>       0.55712272       0.11462213       0.04806675 </v>
    <v>       0.44881352       0.55759595       0.95193471 </v>
    <v>       0.55998904       0.44645138       0.04688826 </v>
    <v>       0.44479561       0.88969668       0.95082089 </v>
    <v>       0.55836699       0.77611014       0.04808914 </v>
    <v>       0.77926333       0.22563240       0.95313072 </v>
    <v>       0.88998422       0.11505095       0.04804094 </v>
    <v>       0.77419617       0.55393402       0.95313976 </v>
    <v>       0.88728123       0.44090871       0.04682896 </v>
    <v>       0.77509458       0.88484910       0.95193919 </v>
    <v>       0.88460795       0.77489943       0.04803324 </v>
   </varray>
  </structure>
  <varray name="forces" >
   <v>      -0.22151583      -0.15794520       0.04081914 </v>
   <v>       0.33999981       0.19086596      -0.03014313 </v>
   <v>      -0.13831648      -0.08055041       0.01612701 </v>
   <v>       0.20975802       0.35237828       0.03608278 </v>
   <v>      -0.22316308      -0.23255874      -0.00419551 </v>
   <v>       0.13643932      -0.05027439      -0.04385191 </v>
   <v>      -0.00789322       0.45027150       0.09916406 </v>
   <v>      -0.32045040      -0.32018684      -0.00170812 </v>
   <v>       0.22595963      -0.16146973      -0.08620369 </v>
   <v>      -0.08084612       0.01069937      -0.21398904 </v>
   <v>       0.12680625       0.00887743       0.13734929 </v>
   <v>      -0.10535266      -0.07499851       0.02855951 </v>
   <v>      -0.03449202      -0.07898121       0.15494351 </v>
   <v>       0.10107245       0.00081243      -0.15411096 </v>
   <v>      -0.10115884       0.00450887       0.03289669 </v>
   <v>       0.06236026      -0.04562287       0.04375213 </v>
   <v>       0.06294075      -0.06871380      -0.17033718 </v>
   <v>       0.04549961       0.06676782      -0.04660717 </v>
   <v>      -0.00879790       0.04478749      -0.03817246 </v>
   <v>      -0.07295022       0.10255896       0.11255537 </v>
   <v>       0.00780634       0.09932389       0.11281302 </v>
   <v>       0.07027514      -0.06631129       0.18840435 </v>
   <v>      -0.09469968      -0.04693976      -0.06363388 </v>
   <v>       0.05429175       0.07968705       0.15483977 </v>
   <v>      -0.05193096       0.07910825      -0.22905764 </v>
   <v>      -0.09784752      -0.05325804       0.03141475 </v>
   <v>       0.11620560      -0.05283651      -0.10771070 </v>
  </varray>
  <varray name="stress" >
   <v>     -20.00293559       0.00172868       0.04142659 </v>
   <v>       0.00172864     -19.59710846      -0.03195303 </v>
   <v>       0.04142669      -0.03195302      -1.80546120 </v>
  </varray>
  <energy>
   <i name="e_fr_energy">   -188.66763065 </i>
   <i name="e_wo_entrp">   -188.52784840 </i>
   <i name="e_0_energy">     -0.27956450 </i>
  </energy>
  <time name="totalsc">  402.25  403.32</time>
 </calculation>
 <calculation>
  <scstep>
   <time name="dav">   23.76   23.82</time>
   <time name="total">   24.30   24.36</time>
   <energy>
    <i name="alphaZ">     82.34564699 </i>
    <i name="ewald">  41302.74346123 </i>
    <i name="hartreedc"> -47301.71249319 </i>
    <i name="XCdc">   -233.85012348 </i>
    <i name="pawpsdc">   3950.51625438 </i>
    <i name="pawaedc">  -3365.02954097 </i>
    <i name="eentropy">     -0.23301265 </i>
    <i name="bandstr">  -1386.80715072 </i>
    <i name="atom">   6761.44252427 </i>
    <i name="e_fr_energy">   -190.58443414 </i>
    <i name="e_wo_entrp">   -190.35142149 </i>
    <i name="e_0_energy">   -190.46792781 </i>
   </energy>
  </scstep>
  <scstep>
   <time name="dav">   27.55   27.61</time>
   <time name="total">   28.07   28.15</time>
   <energy>
    <i name="e_fr_energy">   -190.56461442 </i>
    <i name="e_wo_entrp">   -190.33663670 </i>
    <i name="e_0_energy">   -190.45062556 </i>
   </energy>
  </scstep>
  <scstep>
   <time name="dav">   30.09   30.16</time>
   <time name="total">   30.62   30.70</time>
   <energy>
    <i name="e_fr_energy">   -190.05973022 </i>
    <i name="e_wo_entrp">   -189.81110338 </i>
    <i name="e_0_energy">   -189.93541680 </i>
   </energy>
  </scstep>
  <scstep>
   <time name="dav">   30.96   31.03</time>
   <time name="total">   31.49   31.58</time>
   <energy>
    <i name="e_fr_energy">   -189.85401461 </i>
    <i name="e_wo_entrp">   -189.62531034 </i>
    <i name="e_0_energy">   -189.73966247 </i>
   </energy>
  </scstep>
  <scstep>
   <time name="dav">   27.52   27.59</time>
   <time name="total">   28.06   28.13</time>
   <energy>
    <i name="e_fr_energy">   -189.78797519 </i>
    <i name="e_wo_entrp">   -189.54572523 </i>
    <i name="e_0_energy">   -189.66685021 </i>
   </energy>
  </scstep>
  <scstep>
   <time name="dav">   30.89   30.97</time>
   <time name="total">   31.43   31.51</time>
   <energy>
    <i name="e_fr_energy">   -189.75817377 </i>
    <i name="e_wo_entrp">   -189.52568888 </i>
    <i name="e_0_energy">   -189.64193133 </i>
   </energy>
  </scstep>
  <scstep>
   <time name="dav">   30.60   30.68</time>
   <time name="total">   31.14   31.22</time>
   <energy>
    <i name="e_fr_energy">   -189.75033195 </i>
    <i name="e_wo_entrp">   -189.51547925 </i>
    <i name="e_0_energy">   -189.63290560 </i>
   </energy>
  </scstep>
  <scstep>
   <time name="dav">   27.74   27.80</time>
   <time name="total">   28.27   28.35</time>
   <energy>
    <i name="e_fr_energy">   -189.75033714 </i>
    <i name="e_wo_entrp">   -189.51581349 </i>
    <i name="e_0_energy">   -189.63307531 </i>
   </energy>
  </scstep>
  <scstep>
   <time name="dav">   26.49   26.55</time>
   <time name="total">   27.02   27.09</time>
   <energy>
    <i name="e_fr_energy">   -189.75094743 </i>
    <i name="e_wo_entrp">   -189.51616084 </i>
    <i name="e_0_energy">   -189.63355413 </i>
   </energy>
  </scstep>
  <scstep>
   <time name="dav">   26.61   26.67</time>
   <time name="total">   27.14   27.22</time>
   <energy>
    <i name="e_fr_energy">   -189.75074611 </i>
    <i name="e_wo_entrp">   -189.51586241 </i>
    <i name="e_0_energy">   -189.63330426 </i>
   </energy>
  </scstep>
  <scstep>
   <time name="dav">   22.89   22.95</time>
   <time name="total">   23.43   23.49</time>
   <energy>
    <i name="e_fr_energy">   -189.75045478 </i>
    <i name="e_wo_entrp">   -189.51562932 </i>
    <i name="e_0_energy">   -189.63304205 </i>
   </energy>
  </scstep>
  <scstep>
   <time name="dav">   18.80   18.84</time>
   <time name="total">   18.83   18.88</time>
   <energy>
    <i name="alphaZ">     82.34564699 </i>
    <i name="ewald">  41302.74346123 </i>
    <i name="hartreedc"> -47274.99254548 </i>
    <i name="XCdc">   -235.24526403 </i>
    <i name="pawpsdc">   4038.48509554 </i>
    <i name="pawaedc">  -3454.18850034 </i>
    <i name="eentropy">     -0.23480713 </i>
    <i name="bandstr">  -1410.10608224 </i>
    <i name="atom">   6761.44252427 </i>
    <i name="e_fr_energy">   -189.75047119 </i>
    <i name="e_wo_entrp">   -189.51566406 </i>
    <i name="e_0_energy">   -189.63306763 </i>
   </energy>
  </scstep>
  <structure>
   <crystal>
    <varray name="basis" >
     <v>       8.66802389       5.00184210       0.00000000 </v>
     <v>      -8.66547141       4.99744954       0.00000000 </v>
     <v>       0.00000000       0.00000000      30.00000000 </v>
    </varray>
    <i name="volume">   2599.83995235 </i>
    <varray name="rec_basis" >
     <v>       0.05766643       0.09999236       0.00000000 </v>
     <v>      -0.05771712       0.10002182       0.00000000 </v>
     <v>       0.00000000       0.00000000       0.03333333 </v>
    </varray>
   </crystal>
   <varray name="positions" >
    <v>       0.66489190       0.66621745       0.00020978 </v>
    <v>       1.00261896       0.33322917      -0.00017785 </v>
    <v>       0.66563063       0.33371064       0.00003407 </v>
    <v>       0.00216524       0.00166399      -0.00013252 </v>
    <v>       0.33156684       0.33349060       0.00003309 </v>
    <v>       0.33340178       0.66502850       0.00008985 </v>
    <v>       0.00147794       0.66817074       0.00010744 </v>
    <v>       0.33090094      -0.00007069      -0.00003617 </v>
    <v>       0.66723992      -0.00151921      -0.00014242 </v>
    <v>       0.10840956       0.22464217       0.95180416 </v>
    <v>       0.22284267       0.11049124       0.04934175 </v>
    <v>       0.10798969       0.55120733       0.95194192 </v>
    <v>       0.21755715       0.44212581       0.04818584 </v>
    <v>       0.11159701       0.88839499       0.95056588 </v>
    <v>       0.22177355       0.77825480       0.04931181 </v>
    <v>       0.44830075       0.22315022       0.95198201 </v>
    <v>       0.55706898       0.11444808       0.04797067 </v>
    <v>       0.44896761       0.55766311       0.95190842 </v>
    <v>       0.56005485       0.44653402       0.04686673 </v>
    <v>       0.44489587       0.88993639       0.95088438 </v>
    <v>       0.55853901       0.77626730       0.04815277 </v>
    <v>       0.77922058       0.22545532       0.95323700 </v>
    <v>       0.88981599       0.11506368       0.04800505 </v>
    <v>       0.77438006       0.55401419       0.95322710 </v>
    <v>       0.88736270       0.44108946       0.04669976 </v>
    <v>       0.77491288       0.88485437       0.95195691 </v>
    <v>       0.88463140       0.77470077       0.04797248 </v>
   </varray>
  </structure>
  <varray name="forces" >
   <v>      -0.26663148      -0.14357323       0.01241579 </v>
   <v>       0.34325632       0.17923780      -0.00387900 </v>
   <v>      -0.11509010      -0.11094432       0.01099227 </v>
   <v>       0.27477134       0.36824558       0.05010012 </v>
   <v>      -0.19445852      -0.27780111      -0.01153694 </v>
   <v>       0.09698781       0.00028238      -0.05307589 </v>
   <v>      -0.02166445       0.53897184       0.08355075 </v>
   <v>      -0.31714506      -0.37591403      -0.00023629 </v>
   <v>       0.19857041      -0.20533980      -0.06625808 </v>
   <v>      -0.14685616       0.01334203      -0.72475208 </v>
   <v>       0.03860047       0.02150283       0.70110549 </v>
   <v>       0.00499217      -0.13328011      -0.46831311 </v>
   <v>      -0.07404846      -0.14332561       0.65207799 </v>
   <v>       0.02101980      -0.00482882      -0.73988055 </v>
   <v>      -0.01567654       0.01892037       0.59844718 </v>
   <v>       0.04968076       0.08379879      -0.44625756 </v>
   <v>      -0.00450298       0.04657663       0.31464525 </v>
   <v>       0.09331109       0.12390947      -0.53171486 </v>
   <v>       0.02082298       0.09522235       0.40709832 </v>
   <v>      -0.04529843       0.03987204      -0.42498855 </v>
   <v>       0.11682022       0.02851424       0.62902017 </v>
   <v>      -0.01000938       0.06885888      -0.25921677 </v>
   <v>      -0.08948717       0.07802078       0.42102761 </v>
   <v>      -0.02061935      -0.04256502      -0.28464328 </v>
   <v>       0.02896810      -0.05312805       0.21144429 </v>
   <v>       0.04522613      -0.10740271      -0.45949768 </v>
   <v>      -0.01153952      -0.10717319       0.38232541 </v>
  </varray>
  <varray name="stress" >
   <v>     -10.17271107      -0.02542493       0.01107366 </v>
   <v>      -0.02542504      -9.86376730      -0.05175801 </v>
   <v>       0.01107361      -0.05175808       6.50508640 </v>
  </varray>
  <energy>
   <i name="e_fr_energy">   -189.75047119 </i>
   <i name="e_wo_entrp">   -189.63306763 </i>
   <i name="e_0_energy">     -0.23480713 </i>
  </energy>
  <time name="totalsc">  371.50  372.49</time>
 </calculation>
 <calculation>
  <scstep>
   <time name="dav">   21.58   21.63</time>
   <time name="total">   22.10   22.15</time>
   <energy>
    <i name="alphaZ">     85.80614060 </i>
    <i name="ewald">  42825.14545557 </i>
    <i name="hartreedc"> -48841.76067941 </i>
    <i name="XCdc">   -232.97377523 </i>
    <i name="pawpsdc">   4038.63390929 </i>
    <i name="pawaedc">  -3454.33513765 </i>
    <i name="eentropy">     -0.19146400 </i>
    <i name="bandstr">  -1373.05433038 </i>
    <i name="atom">   6761.44252427 </i>
    <i name="e_fr_energy">   -191.28735693 </i>
    <i name="e_wo_entrp">   -191.09589294 </i>
    <i name="e_0_energy">   -191.19162493 </i>
   </energy>
  </scstep>
  <scstep>
   <time name="dav">   32.59   32.67</time>
   <time name="total">   33.10   33.19</time>
   <energy>
    <i name="e_fr_energy">   -191.17933847 </i>
    <i name="e_wo_entrp">   -190.98071336 </i>
    <i name="e_0_energy">   -191.08002591 </i>
   </energy>
  </scstep>
  <scstep>
   <time name="dav">   28.85   28.92</time>
   <time name="total">   29.37   29.45</time>
   <energy>
    <i name="e_fr_energy">   -191.22779836 </i>
    <i name="e_wo_entrp">   -191.01648334 </i>
    <i name="e_0_energy">   -191.12214085 </i>
   </energy>
  </scstep>
  <scstep>
   <time name="dav">   30.64   30.72</time>
   <time name="total">   31.16   31.24</time>
   <energy>
    <i name="e_fr_energy">   -190.90419026 </i>
    <i name="e_wo_entrp">   -190.69446424 </i>
    <i name="e_0_energy">   -190.79932725 </i>
   </energy>
  </scstep>
  <scstep>
   <time name="dav">   27.84   27.91</time>
   <time name="total">   28.36   28.43</time>
   <energy>
    <i name="e_fr_energy">   -190.89088378 </i>
    <i name="e_wo_entrp">   -190.70515945 </i>
    <i name="e_0_energy">   -190.79802161 </i>
   </energy>
  </scstep>
  <scstep>
   <time name="dav">   28.02   28.09</time>
   <time name="total">   28.54   28.62</time>
   <energy>
    <i name="e_fr_energy">   -190.70865302 </i>
    <i name="e_wo_entrp">   -190.51097201 </i>
    <i name="e_0_energy">   -190.60981251 </i>
   </energy>
  </scstep>
  <scstep>
   <time name="dav">   28.19   28.25</time>
   <time name="total">   28.70   28.78</time>
   <energy>
    <i name="e_fr_energy">   -190.70703956 </i>
    <i name="e_wo_entrp">   -190.51050115 </i>
    <i name="e_0_energy">   -190.60877035 </i>
   </energy>
  </scstep>
  <scstep>
   <time name="dav">   25.80   25.86</time>
   <time name="total">   26.31   26.39</time>
   <energy>
    <i name="e_fr_energy">   -190.70365212 </i>
    <i name="e_wo_entrp">   -190.50652750 </i>
    <i name="e_0_energy">   -190.60508981 </i>
   </energy>
  </scstep>
  <scstep>
   <time name="dav">   30.31   30.38</time>
   <time name="total">   30.83   30.91</time>
   <energy>
    <i name="e_fr_energy">   -190.70427001 </i>
    <i name="e_wo_entrp">   -190.50718724 </i>
    <i name="e_0_energy">   -190.60572863 </i>
   </energy>
  </scstep>
  <scstep>
   <time name="dav">   27.23   27.29</time>
   <time name="total">   27.74   27.82</time>
   <energy>
    <i name="e_fr_energy">   -190.70399002 </i>
    <i name="e_wo_entrp">   -190.50691518 </i>
    <i name="e_0_energy">   -190.60545260 </i>
   </energy>
  </scstep>
  <scstep>
   <time name="dav">   25.98   26.04</time>
   <time name="total">   26.49   26.56</time>
   <energy>
    <i name="e_fr_energy">   -190.70384985 </i>
    <i name="e_wo_entrp">   -190.50678270 </i>
    <i name="e_0_energy">   -190.60531627 </i>
   </energy>
  </scstep>
  <scstep>
   <time name="dav">   20.10   20.15</time>
   <time name="total">   20.13   20.19</time>
   <energy>
    <i name="alphaZ">     85.80614060 </i>
    <i name="ewald">  42825.14545557 </i>
    <i name="hartreedc"> -48813.28396710 </i>
    <i name="XCdc">   -234.30507290 </i>
    <i name="pawpsdc">   4062.82159125 </i>
    <i name="pawaedc">  -3478.68879461 </i>
    <i name="eentropy">     -0.19714753 </i>
    <i name="bandstr">  -1399.44458710 </i>
    <i name="atom">   6761.44252427 </i>
    <i name="e_fr_energy">   -190.70385754 </i>
    <i name="e_wo_entrp">   -190.50671000 </i>
    <i name="e_0_energy">   -190.60528377 </i>
   </energy>
  </scstep>
  <structure>
   <crystal>
    <varray name="basis" >
     <v>       8.48664838       4.90113195       0.00000000 </v>
     <v>      -8.48551394       4.89919267       0.00000000 </v>
     <v>       0.00000000       0.00000000      30.00000000 </v>
    </varray>
    <i name="volume">   2494.99046838 </i>
    <varray name="rec_basis" >
     <v>       0.05890835       0.10203062       0.00000000 </v>
     <v>      -0.05893167       0.10204426       0.00000000 </v>
     <v>       0.00000000       0.00000000       0.03333333 </v>
    </varray>
   </crystal>
   <varray name="positions" >
    <v>       0.66300386       0.66638262       0.00021134 </v>
    <v>       1.00495299       0.33307749      -0.00016358 </v>
    <v>       0.66447965       0.33332308       0.00005243 </v>
    <v>       0.00559114       0.00292120      -0.00001710 </v>
    <v>       0.32905740       0.33230117       0.00000302 </v>
    <v>       0.33382259       0.66486295      -0.00002765 </v>
    <v>       0.00497053       0.67186028       0.00026684 </v>
    <v>       0.32727311      -0.00142048      -0.00003541 </v>
    <v>       0.66652359      -0.00358995      -0.00026241 </v>
    <v>       0.10787517       0.22535713       0.94987324 </v>
    <v>       0.22302105       0.11064467       0.05126876 </v>
    <v>       0.10718775       0.55005194       0.95055269 </v>
    <v>       0.21617696       0.44139327       0.04995502 </v>
    <v>       0.11151357       0.88838995       0.94854008 </v>
    <v>       0.22199400       0.77834272       0.05102820 </v>
    <v>       0.44930806       0.22383577       0.95064419 </v>
    <v>       0.55753433       0.11513993       0.04903226 </v>
    <v>       0.45028979       0.55817489       0.95039816 </v>
    <v>       0.56089345       0.44713747       0.04808569 </v>
    <v>       0.44486530       0.89015322       0.94955018 </v>
    <v>       0.55911867       0.77569076       0.04989048 </v>
    <v>       0.77983646       0.22637439       0.95232163 </v>
    <v>       0.89029993       0.11617853       0.04928620 </v>
    <v>       0.77362737       0.55362541       0.95226609 </v>
    <v>       0.88692172       0.44020677       0.04751037 </v>
    <v>       0.77447512       0.88367885       0.95059096 </v>
    <v>       0.88360088       0.77412043       0.04917822 </v>
   </varray>
  </structure>
  <varray name="forces" >
   <v>      -0.30558009      -0.18856411      -0.04344057 </v>
   <v>       0.30474668       0.14003054       0.04933402 </v>
   <v>      -0.08683955      -0.10287287       0.00421465 </v>
   <v>       0.36659332       0.40497424       0.02370090 </v>
   <v>      -0.14835447      -0.28993595      -0.01569592 </v>
   <v>       0.08500237       0.04447322      -0.02900337 </v>
   <v>      -0.04771944       0.55999855       0.02395935 </v>
   <v>      -0.35161107      -0.41541259       0.00627175 </v>
   <v>       0.16795304      -0.21864616      -0.01856870 </v>
   <v>      -0.02906342       0.00180947      -0.55266701 </v>
   <v>      -0.02292659       0.05414102       0.54719572 </v>
   <v>       0.00482711      -0.03179260      -0.30279257 </v>
   <v>      -0.02613574      -0.04192562       0.44293488 </v>
   <v>      -0.03481184      -0.00006500      -0.60193949 </v>
   <v>       0.04555082       0.05303543       0.45591227 </v>
   <v>      -0.02925193      -0.01027426      -0.29542195 </v>
   <v>      -0.00841338      -0.03606355       0.17043133 </v>
   <v>       0.05050198      -0.00187443      -0.36854099 </v>
   <v>      -0.05391924      -0.01287795       0.32369915 </v>
   <v>      -0.04134372      -0.01210925      -0.26338375 </v>
   <v>       0.05170817      -0.03192174       0.47023901 </v>
   <v>       0.03006511       0.03054090      -0.18273681 </v>
   <v>       0.00798709       0.02771590       0.22384918 </v>
   <v>      -0.00480708       0.03632632      -0.14162272 </v>
   <v>       0.01342546       0.03999313       0.09464775 </v>
   <v>       0.08674430      -0.00034965      -0.26413460 </v>
   <v>      -0.02432787       0.00164701       0.24355848 </v>
  </varray>
  <varray name="stress" >
   <v>      -5.87113188       0.10232584      -0.04483727 </v>
   <v>       0.10232577      -5.84011082       0.04602235 </v>
   <v>      -0.04483742       0.04602230       4.50690779 </v>
  </varray>
  <energy>
   <i name="e_fr_energy">   -190.70385754 </i>
   <i name="e_wo_entrp">   -190.60528377 </i>
   <i name="e_0_energy">     -0.19714753 </i>
  </energy>
  <time name="totalsc">  374.45  375.45</time>
 </calculation>
 <calculation>
  <scstep>
   <time name="dav">   21.58   21.64</time>
   <time name="total">   22.09   22.15</time>
   <energy>
    <i name="alphaZ">     90.30350747 </i>
    <i name="ewald">  44721.46549787 </i>
    <i name="hartreedc"> -50766.59699202 </i>
    <i name="XCdc">   -231.74945846 </i>
    <i name="pawpsdc">   4062.79628746 </i>
    <i name="pawaedc">  -3478.65933876 </i>
    <i name="eentropy">     -0.17795216 </i>
    <i name="bandstr">  -1350.94838765 </i>
    <i name="atom">   6761.44252427 </i>
    <i name="e_fr_energy">   -192.12431197 </i>
    <i name="e_wo_entrp">   -191.94635982 </i>
    <i name="e_0_energy">   -192.03533589 </i>
   </energy>
  </scstep>
  <scstep>
   <time name="dav">   29.91   29.99</time>
   <time name="total">   30.42   30.50</time>
   <energy>
    <i name="e_fr_energy">   -191.96767512 </i>
    <i name="e_wo_entrp">   -191.76809564 </i>
    <i name="e_0_energy">   -191.86788538 </i>
   </energy>
  </scstep>
  <scstep>
   <time name="dav">   29.99   30.06</time>
   <time name="total">   30.50   30.58</time>
   <energy>
    <i name="e_fr_energy">   -192.42419680 </i>
    <i name="e_wo_entrp">   -192.23293567 </i>
    <i name="e_0_energy">   -192.32856623 </i>
   </energy>
  </scstep>
  <scstep>
   <time name="dav">   30.16   30.23</time>
   <time name="total">   30.66   30.74</time>
   <energy>
    <i name="e_fr_energy">   -191.54542589 </i>
    <i name="e_wo_entrp">   -191.36485156 </i>
    <i name="e_0_energy">   -191.45513873 </i>
   </energy>
  </scstep>
  <scstep>
   <time name="dav">   29.12   29.19</time>
   <time name="total">   29.63   29.71</time>
   <energy>
    <i name="e_fr_energy">   -191.51740394 </i>
    <i name="e_wo_entrp">   -191.31967663 </i>
    <i name="e_0_energy">   -191.41854029 </i>
   </energy>
  </scstep>
  <scstep>
   <time name="dav">   29.93   30.00</time>
   <time name="total">   30.43   30.51</time>
   <energy>
    <i name="e_fr_energy">   -191.37548088 </i>
    <i name="e_wo_entrp">   -191.19251520 </i>
    <i name="e_0_energy">   -191.28399804 </i>
   </energy>
  </scstep>
  <scstep>
   <time name="dav">   29.41   29.48</time>
   <time name="total">   29.91   29.99</time>
   <energy>
    <i name="e_fr_energy">   -191.35032091 </i>
    <i name="e_wo_entrp">   -191.16478347 </i>
    <i name="e_0_energy">   -191.25755219 </i>
   </energy>
  </scstep>
  <scstep>
   <time name="dav">   29.67   29.74</time>
   <time name="total">   30.18   30.26</time>
   <energy>
    <i name="e_fr_energy">   -191.34887165 </i>
    <i name="e_wo_entrp">   -191.16159399 </i>
    <i name="e_0_energy">   -191.25523282 </i>
   </energy>
  </scstep>
  <scstep>
   <time name="dav">   28.38   28.45</time>
   <time name="total">   28.89   28.96</time>
   <energy>
    <i name="e_fr_energy">   -191.34316915 </i>
    <i name="e_wo_entrp">   -191.15680676 </i>
    <i name="e_0_energy">   -191.24998795 </i>
   </energy>
  </scstep>
  <scstep>
   <time name="dav">   28.78   28.85</time>
   <time name="total">   29.28   29.36</time>
   <energy>
    <i name="e_fr_energy">   -191.34329159 </i>
    <i name="e_wo_entrp">   -191.15660443 </i>
    <i name="e_0_energy">   -191.24994801 </i>
   </energy>
  </scstep>
  <scstep>
   <time name="dav">   26.95   27.02</time>
   <time name="total">   27.46   27.53</time>
   <energy>
    <i name="e_fr_energy">   -191.34316444 </i>
    <i name="e_wo_entrp">   -191.15616849 </i>
    <i name="e_0_energy">   -191.24966647 </i>
   </energy>
  </scstep>
  <scstep>
   <time name="dav">   19.84   19.89</time>
   <time name="total">   19.87   19.93</time>
   <energy>
    <i name="alphaZ">     90.30350747 </i>
    <i name="ewald">  44721.46549787 </i>
    <i name="hartreedc"> -50731.40306690 </i>
    <i name="XCdc">   -233.34018970 </i>
    <i name="pawpsdc">   4084.90542589 </i>
    <i name="pawaedc">  -3500.84718165 </i>
    <i name="eentropy">     -0.18687306 </i>
    <i name="bandstr">  -1383.68276957 </i>
    <i name="atom">   6761.44252427 </i>
    <i name="e_fr_energy">   -191.34312538 </i>
    <i name="e_wo_entrp">   -191.15625232 </i>
    <i name="e_0_energy">   -191.24968885 </i>
   </energy>
  </scstep>
  <structure>
   <crystal>
    <varray name="basis" >
     <v>       8.27428917       4.78280136       0.00000000 </v>
     <v>      -8.26778337       4.77155996       0.00000000 </v>
     <v>       0.00000000       0.00000000      30.00000000 </v>
    </varray>
    <i name="volume">   2370.73297531 </i>
    <varray name="rec_basis" >
     <v>       0.06038082       0.10462313       0.00000000 </v>
     <v>      -0.06052307       0.10470546       0.00000000 </v>
     <v>       0.00000000       0.00000000       0.03333333 </v>
    </varray>
   </crystal>
   <varray name="positions" >
    <v>       0.65850671       0.66639036       0.00003556 </v>
    <v>       1.00899227       0.33261502       0.00003556 </v>
    <v>       0.66246787       0.33254482       0.00006816 </v>
    <v>       0.01333111       0.00530889       0.00010858 </v>
    <v>       0.32423586       0.32962034      -0.00006633 </v>
    <v>       0.33501526       0.66493673      -0.00016885 </v>
    <v>       0.01188022       0.67945835       0.00038167 </v>
    <v>       0.31945730      -0.00422325      -0.00001186 </v>
    <v>       0.66487202      -0.00764108      -0.00034425 </v>
    <v>       0.10748479       0.22584854       0.94699931 </v>
    <v>       0.22342474       0.11156307       0.05416428 </v>
    <v>       0.10666613       0.54907930       0.94871800 </v>
    <v>       0.21498010       0.44080607       0.05238688 </v>
    <v>       0.11115285       0.88869916       0.94540714 </v>
    <v>       0.22306052       0.77857579       0.05354613 </v>
    <v>       0.44957178       0.22441093       0.94885468 </v>
    <v>       0.55739504       0.11534747       0.05030205 </v>
    <v>       0.45114314       0.55804716       0.94830795 </v>
    <v>       0.56080250       0.44757761       0.04990815 </v>
    <v>       0.44435939       0.89015862       0.94783733 </v>
    <v>       0.55923684       0.77455493       0.05242568 </v>
    <v>       0.78072909       0.22718790       0.95107684 </v>
    <v>       0.89107787       0.11701586       0.05080316 </v>
    <v>       0.77340266       0.55375993       0.95116106 </v>
    <v>       0.88712040       0.43990108       0.04840999 </v>
    <v>       0.77495911       0.88249481       0.94890395 </v>
    <v>       0.88288886       0.77417604       0.05074910 </v>
   </varray>
  </structure>
  <varray name="forces" >
   <v>      -0.26502777      -0.32676548      -0.00860312 </v>
   <v>       0.18310140       0.07833114      -0.01150314 </v>
   <v>      -0.06230089      -0.06274574       0.00471611 </v>
   <v>       0.24072053       0.23371615      -0.05890344 </v>
   <v>      -0.00755281      -0.09621165       0.02547885 </v>
   <v>       0.06594676       0.09124024       0.03013272 </v>
   <v>      -0.03875105       0.32647872      -0.02118511 </v>
   <v>      -0.18792782      -0.16364847       0.08833290 </v>
   <v>       0.03959067      -0.20284874      -0.01720502 </v>
   <v>       0.07910177      -0.02611369      -0.14687747 </v>
   <v>      -0.01236180       0.09853901       0.23451404 </v>
   <v>      -0.02915363       0.07740432       0.00685801 </v>
   <v>       0.02689923       0.05222974       0.08595625 </v>
   <v>      -0.07617117       0.02435675      -0.34103425 </v>
   <v>       0.07224146       0.10523752       0.16848793 </v>
   <v>      -0.07705134      -0.15835477      -0.02426754 </v>
   <v>      -0.00983113      -0.17861854      -0.07684418 </v>
   <v>      -0.02676978      -0.14824925      -0.11110376 </v>
   <v>      -0.11378658      -0.09104649       0.03004939 </v>
   <v>      -0.10729388      -0.03821469       0.01435015 </v>
   <v>      -0.01491457      -0.07494357       0.15031606 </v>
   <v>       0.08333667      -0.03026835       0.07125114 </v>
   <v>       0.15725755      -0.05360547      -0.07503947 </v>
   <v>      -0.00376586       0.13099673       0.11776158 </v>
   <v>      -0.01407094       0.18030045      -0.13336948 </v>
   <v>       0.09452934       0.11924911       0.08872331 </v>
   <v>       0.00400564       0.13355503      -0.09099250 </v>
  </varray>
  <varray name="stress" >
   <v>      -0.22480857       0.22112818       0.17876283 </v>
   <v>       0.22112844       0.15946649       0.24779391 </v>
   <v>       0.17876290       0.24779407      -0.48566980 </v>
  </varray>
  <energy>
   <i name="e_fr_energy">   -191.34312538 </i>
   <i name="e_wo_entrp">   -191.24968885 </i>
   <i name="e_0_energy">     -0.18687306 </i>
  </energy>
  <time name="totalsc">  380.80  381.81</time>
 </calculation>
 <calculation>
  <scstep>
   <time name="dav">   21.58   21.63</time>
   <time name="total">   22.09   22.14</time>
   <energy>
    <i name="alphaZ">     90.35967643 </i>
    <i name="ewald">  44723.27237878 </i>
    <i name="hartreedc"> -50734.66445652 </i>
    <i name="XCdc">   -233.39737294 </i>
    <i name="pawpsdc">   4084.78690610 </i>
    <i name="pawaedc">  -3500.72414628 </i>
    <i name="eentropy">     -0.18971712 </i>
    <i name="bandstr">  -1382.28097073 </i>
    <i name="atom">   6761.44252427 </i>
    <i name="e_fr_energy">   -191.39517801 </i>
    <i name="e_wo_entrp">   -191.20546089 </i>
    <i name="e_0_energy">   -191.30031945 </i>
   </energy>
  </scstep>
  <scstep>
   <time name="dav">   30.59   30.66</time>
   <time name="total">   31.09   31.17</time>
   <energy>
    <i name="e_fr_energy">   -191.45617780 </i>
    <i name="e_wo_entrp">   -191.25392342 </i>
    <i name="e_0_energy">   -191.35505061 </i>
   </energy>
  </scstep>
  <scstep>
   <time name="dav">   29.31   29.38</time>
   <time name="total">   29.81   29.89</time>
   <energy>
    <i name="e_fr_energy">   -191.40637191 </i>
    <i name="e_wo_entrp">   -191.21621541 </i>
    <i name="e_0_energy">   -191.31129366 </i>
   </energy>
  </scstep>
  <scstep>
   <time name="dav">   28.38   28.45</time>
   <time name="total">   28.89   28.96</time>
   <energy>
    <i name="e_fr_energy">   -191.40660081 </i>
    <i name="e_wo_entrp">   -191.21492959 </i>
    <i name="e_0_energy">   -191.31076520 </i>
   </energy>
  </scstep>
  <scstep>
   <time name="dav">   28.38   28.45</time>
   <time name="total">   28.88   28.96</time>
   <energy>
    <i name="e_fr_energy">   -191.40285003 </i>
    <i name="e_wo_entrp">   -191.21133100 </i>
    <i name="e_0_energy">   -191.30709052 </i>
   </energy>
  </scstep>
  <scstep>
   <time name="dav">   28.39   28.46</time>
   <time name="total">   28.89   28.97</time>
   <energy>
    <i name="e_fr_energy">   -191.40286906 </i>
    <i name="e_wo_entrp">   -191.21104777 </i>
    <i name="e_0_energy">   -191.30695842 </i>
   </energy>
  </scstep>
  <scstep>
   <time name="dav">   28.89   28.96</time>
   <time name="total">   29.40   29.48</time>
   <energy>
    <i name="e_fr_energy">   -191.40289401 </i>
    <i name="e_wo_entrp">   -191.21128215 </i>
    <i name="e_0_energy">   -191.30708808 </i>
   </energy>
  </scstep>
  <scstep>
   <time name="dav">   25.33   25.39</time>
   <time name="total">   25.83   25.90</time>
   <energy>
    <i name="e_fr_energy">   -191.40233593 </i>
    <i name="e_wo_entrp">   -191.21067080 </i>
    <i name="e_0_energy">   -191.30650336 </i>
   </energy>
  </scstep>
  <scstep>
   <time name="dav">   17.34   17.38</time>
   <time name="total">   17.37   17.42</time>
   <energy>
    <i name="alphaZ">     90.35967643 </i>
    <i name="ewald">  44723.27237878 </i>
    <i name="hartreedc"> -50735.16831440 </i>
    <i name="XCdc">   -233.39461096 </i>
    <i name="pawpsdc">   4082.20261320 </i>
    <i name="pawaedc">  -3498.09724773 </i>
    <i name="eentropy">     -0.19166075 </i>
    <i name="bandstr">  -1381.82770830 </i>
    <i name="atom">   6761.44252427 </i>
    <i name="e_fr_energy">   -191.40234946 </i>
    <i name="e_wo_entrp">   -191.21068871 </i>
    <i name="e_0_energy">   -191.30651909 </i>
   </energy>
  </scstep>
  <structure>
   <crystal>
    <varray name="basis" >
     <v>       8.27029444       4.78882469       0.00000000 </v>
     <v>      -8.25800830       4.76756371       0.00000000 </v>
     <v>       0.00000000       0.00000000      30.00000000 </v>
    </varray>
    <i name="volume">   2369.25929134 </i>
    <varray name="rec_basis" >
     <v>       0.06036777       0.10456443       0.00000000 </v>
     <v>      -0.06063699       0.10472000       0.00000000 </v>
     <v>       0.00000000       0.00000000       0.03333333 </v>
    </varray>
   </crystal>
   <varray name="positions" >
    <v>       0.65596121       0.66549398       0.00001882 </v>
    <v>       1.01000375       0.33246578       0.00001952 </v>
    <v>       0.66192709       0.33239393       0.00007614 </v>
    <v>       0.01537165       0.00583301       0.00001369 </v>
    <v>       0.32364385       0.32910453      -0.00002544 </v>
    <v>       0.33570146       0.66521391      -0.00012151 </v>
    <v>       0.01355641       0.68137747       0.00034863 </v>
    <v>       0.31793488      -0.00455053       0.00013396 </v>
    <v>       0.66391595      -0.00886953      -0.00037384 </v>
    <v>       0.10757812       0.22548657       0.94670925 </v>
    <v>       0.22390218       0.11212408       0.05459942 </v>
    <v>       0.10697012       0.54954750       0.94869661 </v>
    <v>       0.21530815       0.44098481       0.05257016 </v>
    <v>       0.11104517       0.88905808       0.94479293 </v>
    <v>       0.22383650       0.77890668       0.05386692 </v>
    <v>       0.44853289       0.22383523       0.94878284 </v>
    <v>       0.55644381       0.11446150       0.05019962 </v>
    <v>       0.45031431       0.55736082       0.94808864 </v>
    <v>       0.55999538       0.44745534       0.04998921 </v>
    <v>       0.44383374       0.89028050       0.94782970 </v>
    <v>       0.55880802       0.77419163       0.05271640 </v>
    <v>       0.78083718       0.22680023       0.95117113 </v>
    <v>       0.89128494       0.11628577       0.05070762 </v>
    <v>       0.77405919       0.55444754       0.95133375 </v>
    <v>       0.88800963       0.44086473       0.04820844 </v>
    <v>       0.77586343       0.88280639       0.94901948 </v>
    <v>       0.88357546       0.77485451       0.05062782 </v>
   </varray>
  </structure>
  <varray name="forces" >
   <v>      -0.24326909      -0.35102075      -0.02065749 </v>
   <v>       0.18728974       0.07196557       0.00297032 </v>
   <v>      -0.06948382      -0.05699955      -0.02278100 </v>
   <v>       0.23549252       0.27549532      -0.01631606 </v>
   <v>      -0.00826091      -0.08699134       0.01364595 </v>
   <v>       0.07480794       0.09616700       0.01788840 </v>
   <v>      -0.02147457       0.36247643      -0.01126042 </v>
   <v>      -0.20324533      -0.18335962       0.02449943 </v>
   <v>       0.03025396      -0.22300892      -0.03134294 </v>
   <v>       0.05466725       0.00171270      -0.10158365 </v>
   <v>      -0.01806210       0.06680094       0.15888765 </v>
   <v>      -0.00933424       0.05941763       0.02797348 </v>
   <v>       0.00618692       0.02676623       0.04237257 </v>
   <v>      -0.02334173       0.05139226      -0.20716700 </v>
   <v>       0.04488072       0.06632497       0.09710447 </v>
   <v>      -0.03963783      -0.10175614       0.00937543 </v>
   <v>      -0.00498496      -0.11302792      -0.05648351 </v>
   <v>      -0.02614725      -0.10344415      -0.08391955 </v>
   <v>      -0.07642443      -0.05500413       0.02565757 </v>
   <v>      -0.08070196      -0.02212759       0.04051292 </v>
   <v>      -0.00956930      -0.05719493       0.12646812 </v>
   <v>       0.05990997      -0.02471612       0.11083581 </v>
   <v>       0.10553896      -0.04931342      -0.11931437 </v>
   <v>      -0.01328850       0.08618318       0.14522961 </v>
   <v>      -0.01090060       0.12666142      -0.16136087 </v>
   <v>       0.07430642       0.05814702       0.12751344 </v>
   <v>      -0.01520780       0.07845392      -0.13874832 </v>
  </varray>
  <varray name="stress" >
   <v>      -0.01873132       0.04117251       0.02746995 </v>
   <v>       0.04117262      -0.02722279       0.09135344 </v>
   <v>       0.02746997       0.09135347      -1.29200108 </v>
  </varray>
  <energy>
   <i name="e_fr_energy">   -191.40234946 </i>
   <i name="e_wo_entrp">   -191.30651909 </i>
   <i name="e_0_energy">     -0.19166075 </i>
  </energy>
  <time name="totalsc">  284.21  284.97</time>
 </calculation>
 <calculation>
  <scstep>
   <time name="dav">   21.63   21.68</time>
   <time name="total">   22.14   22.19</time>
   <energy>
    <i name="alphaZ">     90.38942755 </i>
    <i name="ewald">  44739.28546856 </i>
    <i name="hartreedc"> -50751.32743991 </i>
    <i name="XCdc">   -233.36758075 </i>
    <i name="pawpsdc">   4082.16576973 </i>
    <i name="pawaedc">  -3498.05957606 </i>
    <i name="eentropy">     -0.19189777 </i>
    <i name="bandstr">  -1381.80105310 </i>
    <i name="atom">   6761.44252427 </i>
    <i name="e_fr_energy">   -191.46435747 </i>
    <i name="e_wo_entrp">   -191.27245970 </i>
    <i name="e_0_energy">   -191.36840859 </i>
   </energy>
  </scstep>
  <scstep>
   <time name="dav">   31.83   31.91</time>
   <time name="total">   32.34   32.42</time>
   <energy>
    <i name="e_fr_energy">   -191.56114559 </i>
    <i name="e_wo_entrp">   -191.34434236 </i>
    <i name="e_0_energy">   -191.45274397 </i>
   </energy>
  </scstep>
  <scstep>
   <time name="dav">   29.72   29.79</time>
   <time name="total">   30.22   30.30</time>
   <energy>
    <i name="e_fr_energy">   -191.47739003 </i>
    <i name="e_wo_entrp">   -191.28430571 </i>
    <i name="e_0_energy">   -191.38084787 </i>
   </energy>
  </scstep>
  <scstep>
   <time name="dav">   28.76   28.83</time>
   <time name="total">   29.27   29.34</time>
   <energy>
    <i name="e_fr_energy">   -191.47690134 </i>
    <i name="e_wo_entrp">   -191.28199750 </i>
    <i name="e_0_energy">   -191.37944942 </i>
   </energy>
  </scstep>
  <scstep>
   <time name="dav">   28.86   28.93</time>
   <time name="total">   29.36   29.44</time>
   <energy>
    <i name="e_fr_energy">   -191.47113473 </i>
    <i name="e_wo_entrp">   -191.27600090 </i>
    <i name="e_0_energy">   -191.37356781 </i>
   </energy>
  </scstep>
  <scstep>
   <time name="dav">   28.35   28.42</time>
   <time name="total">   28.86   28.94</time>
   <energy>
    <i name="e_fr_energy">   -191.47125451 </i>
    <i name="e_wo_entrp">   -191.27552654 </i>
    <i name="e_0_energy">   -191.37339053 </i>
   </energy>
  </scstep>
  <scstep>
   <time name="dav">   28.06   28.13</time>
   <time name="total">   28.56   28.64</time>
   <energy>
    <i name="e_fr_energy">   -191.47069075 </i>
    <i name="e_wo_entrp">   -191.27519556 </i>
    <i name="e_0_energy">   -191.37294315 </i>
   </energy>
  </scstep>
  <scstep>
   <time name="dav">   25.23   25.29</time>
   <time name="total">   25.73   25.80</time>
   <energy>
    <i name="e_fr_energy">   -191.47010321 </i>
    <i name="e_wo_entrp">   -191.27449431 </i>
    <i name="e_0_energy">   -191.37229876 </i>
   </energy>
  </scstep>
  <scstep>
[...]
      <set comment="kpoint 31">
       <r>  -17.5158    1.0000 </r>
       <r>  -17.2161    1.0000 </r>
       <r>  -16.9254    1.0000 </r>
       <r>  -16.5584    1.0000 </r>
       <r>  -16.4998    1.0000 </r>
       <r>  -16.4545    1.0000 </r>
       <r>  -16.2643    1.0000 </r>
       <r>  -16.1734    1.0000 </r>
       <r>  -16.0733    1.0000 </r>
       <r>  -16.0128    1.0000 </r>
       <r>  -15.9299    1.0000 </r>
       <r>  -15.8836    1.0000 </r>
       <r>  -15.7961    1.0000 </r>
       <r>  -15.6188    1.0000 </r>
       <r>  -15.5947    1.0000 </r>
       <r>  -15.5431    1.0000 </r>
       <r>  -15.4695    1.0000 </r>
       <r>  -15.4330    1.0000 </r>
       <r>   -9.7242    1.0000 </r>
       <r>   -9.4516    1.0000 </r>
       <r>   -9.2843    1.0000 </r>
       <r>   -8.9792    1.0000 </r>
       <r>   -8.8160    1.0000 </r>
       <r>   -8.7943    1.0000 </r>
       <r>   -8.5491    1.0000 </r>
       <r>   -8.4790    1.0000 </r>
       <r>   -8.4086    1.0000 </r>
       <r>   -8.2926    1.0000 </r>
       <r>   -8.2238    1.0000 </r>
       <r>   -8.2043    1.0000 </r>
       <r>   -8.1517    1.0000 </r>
       <r>   -8.1101    1.0000 </r>
       <r>   -8.0057    1.0000 </r>
       <r>   -7.8473    1.0000 </r>
       <r>   -7.7562    1.0000 </r>
       <r>   -7.6425    1.0000 </r>
       <r>   -7.5901    1.0000 </r>
       <r>   -7.4565    1.0000 </r>
       <r>   -7.3404    1.0000 </r>
       <r>   -7.2396    1.0000 </r>
       <r>   -7.1521    1.0000 </r>
       <r>   -7.0465    1.0000 </r>
       <r>   -7.0021    1.0000 </r>
       <r>   -6.8944    1.0000 </r>
       <r>   -6.8203    1.0000 </r>
       <r>   -6.7556    1.0000 </r>
       <r>   -6.7226    1.0000 </r>
       <r>   -6.6290    1.0000 </r>
       <r>   -6.5489    1.0000 </r>
       <r>   -6.5207    1.0000 </r>
       <r>   -6.4703    1.0000 </r>
       <r>   -6.3554    1.0000 </r>
       <r>   -6.2677    1.0000 </r>
       <r>   -6.1482    1.0000 </r>
       <r>   -6.0980    1.0000 </r>
       <r>   -6.0157    1.0000 </r>
       <r>   -5.9419    1.0000 </r>
       <r>   -5.8805    1.0000 </r>
       <r>   -5.8239    1.0000 </r>
       <r>   -5.7829    1.0000 </r>
       <r>   -5.7122    1.0000 </r>
       <r>   -5.6023    1.0000 </r>
       <r>   -5.5714    1.0000 </r>
       <r>   -5.4884    1.0000 </r>
       <r>   -5.3726    1.0000 </r>
       <r>   -5.1442    1.0000 </r>
       <r>   -5.0497    1.0000 </r>
       <r>   -4.9138    1.0000 </r>
       <r>   -4.7906    1.0000 </r>
       <r>   -4.7368    1.0000 </r>
       <r>   -4.5244    1.0000 </r>
       <r>   -4.4404    1.0000 </r>
       <r>   -4.4001    1.0000 </r>
       <r>   -4.2305    1.0000 </r>
       <r>   -3.9474    1.0000 </r>
       <r>   -3.8829    1.0000 </r>
       <r>   -3.7855    0.9998 </r>
       <r>   -3.6360    0.9931 </r>
       <r>   -3.4921    0.9259 </r>
       <r>   -3.3276    0.6114 </r>
       <r>   -2.9809    0.0151 </r>
       <r>   -2.9448    0.0077 </r>
       <r>   -2.7817    0.0002 </r>
       <r>   -2.7080    0.0000 </r>
       <r>   -2.6346    0.0000 </r>
       <r>   -2.4928    0.0000 </r>
       <r>   -2.3133    0.0000 </r>
       <r>   -2.2146    0.0000 </r>
       <r>   -2.1266    0.0000 </r>
       <r>   -2.0002    0.0000 </r>
       <r>   -1.6419    0.0000 </r>
       <r>   -1.5521    0.0000 </r>
       <r>   -1.4267    0.0000 </r>
       <r>   -1.2757    0.0000 </r>
       <r>   -1.2294    0.0000 </r>
       <r>   -1.1696    0.0000 </r>
       <r>   -1.0750    0.0000 </r>
       <r>   -1.0097    0.0000 </r>
       <r>   -0.9405    0.0000 </r>
       <r>   -0.8728    0.0000 </r>
       <r>   -0.8194    0.0000 </r>
       <r>   -0.7809    0.0000 </r>
       <r>   -0.6213    0.0000 </r>
       <r>   -0.5175    0.0000 </r>
       <r>   -0.4510    0.0000 </r>
       <r>   -0.3248    0.0000 </r>
       <r>   -0.2234    0.0000 </r>
       <r>   -0.1492    0.0000 </r>
       <r>   -0.0532    0.0000 </r>
       <r>    0.0636    0.0000 </r>
       <r>    0.3087    0.0000 </r>
       <r>    0.5633    0.0000 </r>
       <r>    0.8448    0.0000 </r>
       <r>    0.9848    0.0000 </r>
       <r>    1.1577    0.0000 </r>
       <r>    1.2904    0.0000 </r>
       <r>    1.4579    0.0000 </r>
       <r>    2.1459    0.0000 </r>
       <r>    2.2943    0.0000 </r>
       <r>    2.4042    0.0000 </r>
      </set>
      <set comment="kpoint 32">
       <r>  -17.5182    1.0000 </r>
       <r>  -17.1416    1.0000 </r>
       <r>  -17.0540    1.0000 </r>
       <r>  -16.5542    1.0000 </r>
       <r>  -16.4632    1.0000 </r>
       <r>  -16.3244    1.0000 </r>
       <r>  -16.2894    1.0000 </r>
       <r>  -16.2153    1.0000 </r>
       <r>  -16.1376    1.0000 </r>
       <r>  -16.0110    1.0000 </r>
       <r>  -15.9280    1.0000 </r>
       <r>  -15.8853    1.0000 </r>
       <r>  -15.7888    1.0000 </r>
       <r>  -15.6353    1.0000 </r>
       <r>  -15.5960    1.0000 </r>
       <r>  -15.5264    1.0000 </r>
       <r>  -15.4772    1.0000 </r>
       <r>  -15.4151    1.0000 </r>
       <r>   -9.6736    1.0000 </r>
       <r>   -9.5722    1.0000 </r>
       <r>   -9.3493    1.0000 </r>
       <r>   -8.9573    1.0000 </r>
       <r>   -8.7256    1.0000 </r>
       <r>   -8.6244    1.0000 </r>
       <r>   -8.5427    1.0000 </r>
       <r>   -8.4571    1.0000 </r>
       <r>   -8.4145    1.0000 </r>
       <r>   -8.2926    1.0000 </r>
       <r>   -8.2831    1.0000 </r>
       <r>   -8.2549    1.0000 </r>
       <r>   -8.1952    1.0000 </r>
       <r>   -8.0746    1.0000 </r>
       <r>   -8.0542    1.0000 </r>
       <r>   -7.9430    1.0000 </r>
       <r>   -7.7817    1.0000 </r>
       <r>   -7.5692    1.0000 </r>
       <r>   -7.4980    1.0000 </r>
       <r>   -7.4372    1.0000 </r>
       <r>   -7.3355    1.0000 </r>
       <r>   -7.2877    1.0000 </r>
       <r>   -7.1507    1.0000 </r>
       <r>   -7.1255    1.0000 </r>
       <r>   -6.9938    1.0000 </r>
       <r>   -6.9120    1.0000 </r>
       <r>   -6.8200    1.0000 </r>
       <r>   -6.7628    1.0000 </r>
       <r>   -6.7011    1.0000 </r>
       <r>   -6.6094    1.0000 </r>
       <r>   -6.5394    1.0000 </r>
       <r>   -6.4788    1.0000 </r>
       <r>   -6.4306    1.0000 </r>
       <r>   -6.3863    1.0000 </r>
       <r>   -6.2710    1.0000 </r>
       <r>   -6.1532    1.0000 </r>
       <r>   -6.0874    1.0000 </r>
       <r>   -6.0434    1.0000 </r>
       <r>   -5.9702    1.0000 </r>
       <r>   -5.8869    1.0000 </r>
       <r>   -5.8303    1.0000 </r>
       <r>   -5.7468    1.0000 </r>
       <r>   -5.7127    1.0000 </r>
       <r>   -5.5732    1.0000 </r>
       <r>   -5.4851    1.0000 </r>
       <r>   -5.4161    1.0000 </r>
       <r>   -5.3537    1.0000 </r>
       <r>   -5.2670    1.0000 </r>
       <r>   -5.0797    1.0000 </r>
       <r>   -5.0145    1.0000 </r>
       <r>   -4.8578    1.0000 </r>
       <r>   -4.6957    1.0000 </r>
       <r>   -4.5473    1.0000 </r>
       <r>   -4.4065    1.0000 </r>
       <r>   -4.3755    1.0000 </r>
       <r>   -4.2428    1.0000 </r>
       <r>   -3.9253    1.0000 </r>
       <r>   -3.8563    1.0000 </r>
       <r>   -3.8088    0.9999 </r>
       <r>   -3.6703    0.9966 </r>
       <r>   -3.5065    0.9392 </r>
       <r>   -3.2818    0.4839 </r>
       <r>   -2.9619    0.0107 </r>
       <r>   -2.9106    0.0038 </r>
       <r>   -2.7750    0.0001 </r>
       <r>   -2.7602    0.0001 </r>
       <r>   -2.6061    0.0000 </r>
       <r>   -2.4847    0.0000 </r>
       <r>   -2.4087    0.0000 </r>
       <r>   -2.2012    0.0000 </r>
       <r>   -2.0663    0.0000 </r>
       <r>   -1.9755    0.0000 </r>
       <r>   -1.6770    0.0000 </r>
       <r>   -1.5664    0.0000 </r>
       <r>   -1.4374    0.0000 </r>
       <r>   -1.2809    0.0000 </r>
       <r>   -1.2318    0.0000 </r>
       <r>   -1.1777    0.0000 </r>
       <r>   -1.0801    0.0000 </r>
       <r>   -1.0282    0.0000 </r>
       <r>   -0.9242    0.0000 </r>
       <r>   -0.8616    0.0000 </r>
       <r>   -0.8444    0.0000 </r>
       <r>   -0.7671    0.0000 </r>
       <r>   -0.5972    0.0000 </r>
       <r>   -0.4958    0.0000 </r>
       <r>   -0.4105    0.0000 </r>
       <r>   -0.2915    0.0000 </r>
       <r>   -0.2010    0.0000 </r>
       <r>   -0.1537    0.0000 </r>
       <r>    0.0024    0.0000 </r>
       <r>    0.0684    0.0000 </r>
       <r>    0.3368    0.0000 </r>
       <r>    0.5845    0.0000 </r>
       <r>    0.7893    0.0000 </r>
       <r>    0.9771    0.0000 </r>
       <r>    1.1095    0.0000 </r>
       <r>    1.2578    0.0000 </r>
       <r>    1.3843    0.0000 </r>
       <r>    2.1148    0.0000 </r>
       <r>    2.2609    0.0000 </r>
       <r>    2.5760    0.0000 </r>
      </set>
      <set comment="kpoint 33">
       <r>  -17.4910    1.0000 </r>
       <r>  -17.2681    1.0000 </r>
       <r>  -16.9041    1.0000 </r>
       <r>  -16.5528    1.0000 </r>
       <r>  -16.4891    1.0000 </r>
       <r>  -16.4369    1.0000 </r>
       <r>  -16.2501    1.0000 </r>
       <r>  -16.2080    1.0000 </r>
       <r>  -16.1359    1.0000 </r>
       <r>  -15.9975    1.0000 </r>
       <r>  -15.9307    1.0000 </r>
       <r>  -15.8340    1.0000 </r>
       <r>  -15.7722    1.0000 </r>
       <r>  -15.6579    1.0000 </r>
       <r>  -15.6003    1.0000 </r>
       <r>  -15.5347    1.0000 </r>
       <r>  -15.4685    1.0000 </r>
       <r>  -15.4282    1.0000 </r>
       <r>   -9.7680    1.0000 </r>
       <r>   -9.4621    1.0000 </r>
       <r>   -9.2824    1.0000 </r>
       <r>   -8.9607    1.0000 </r>
       <r>   -8.8332    1.0000 </r>
       <r>   -8.6948    1.0000 </r>
       <r>   -8.6060    1.0000 </r>
       <r>   -8.5496    1.0000 </r>
       <r>   -8.3959    1.0000 </r>
       <r>   -8.3162    1.0000 </r>
       <r>   -8.2282    1.0000 </r>
       <r>   -8.1927    1.0000 </r>
       <r>   -8.1166    1.0000 </r>
       <r>   -8.0578    1.0000 </r>
       <r>   -7.9484    1.0000 </r>
       <r>   -7.9119    1.0000 </r>
       <r>   -7.7658    1.0000 </r>
       <r>   -7.6024    1.0000 </r>
       <r>   -7.5469    1.0000 </r>
       <r>   -7.4424    1.0000 </r>
       <r>   -7.3646    1.0000 </r>
       <r>   -7.2980    1.0000 </r>
       <r>   -7.1323    1.0000 </r>
       <r>   -7.0604    1.0000 </r>
       <r>   -6.9650    1.0000 </r>
       <r>   -6.8979    1.0000 </r>
       <r>   -6.8663    1.0000 </r>
       <r>   -6.7527    1.0000 </r>
       <r>   -6.6606    1.0000 </r>
       <r>   -6.6165    1.0000 </r>
       <r>   -6.5482    1.0000 </r>
       <r>   -6.4931    1.0000 </r>
       <r>   -6.4348    1.0000 </r>
       <r>   -6.3124    1.0000 </r>
       <r>   -6.2445    1.0000 </r>
       <r>   -6.1673    1.0000 </r>
       <r>   -6.1004    1.0000 </r>
       <r>   -6.0354    1.0000 </r>
       <r>   -5.9878    1.0000 </r>
       <r>   -5.9365    1.0000 </r>
       <r>   -5.8899    1.0000 </r>
       <r>   -5.8506    1.0000 </r>
       <r>   -5.7171    1.0000 </r>
       <r>   -5.6984    1.0000 </r>
       <r>   -5.4897    1.0000 </r>
       <r>   -5.4417    1.0000 </r>
       <r>   -5.3470    1.0000 </r>
       <r>   -5.1217    1.0000 </r>
       <r>   -5.0725    1.0000 </r>
       <r>   -4.9824    1.0000 </r>
       <r>   -4.7753    1.0000 </r>
       <r>   -4.7034    1.0000 </r>
       <r>   -4.6063    1.0000 </r>
       <r>   -4.4220    1.0000 </r>
       <r>   -4.3076    1.0000 </r>
       <r>   -4.1985    1.0000 </r>
       <r>   -3.9329    1.0000 </r>
       <r>   -3.8938    1.0000 </r>
       <r>   -3.7963    0.9998 </r>
       <r>   -3.7011    0.9983 </r>
       <r>   -3.5711    0.9775 </r>
       <r>   -3.2755    0.4660 </r>
       <r>   -2.9377    0.0067 </r>
       <r>   -2.8895    0.0024 </r>
       <r>   -2.8073    0.0003 </r>
       <r>   -2.7274    0.0000 </r>
       <r>   -2.5880    0.0000 </r>
       <r>   -2.4989    0.0000 </r>
       <r>   -2.4780    0.0000 </r>
       <r>   -2.1875    0.0000 </r>
       <r>   -2.0153    0.0000 </r>
       <r>   -1.9105    0.0000 </r>
       <r>   -1.7132    0.0000 </r>
       <r>   -1.5917    0.0000 </r>
       <r>   -1.4268    0.0000 </r>
       <r>   -1.3119    0.0000 </r>
       <r>   -1.2321    0.0000 </r>
       <r>   -1.1782    0.0000 </r>
       <r>   -1.1134    0.0000 </r>
       <r>   -1.0209    0.0000 </r>
       <r>   -0.9317    0.0000 </r>
       <r>   -0.8493    0.0000 </r>
       <r>   -0.8127    0.0000 </r>
       <r>   -0.7525    0.0000 </r>
       <r>   -0.5784    0.0000 </r>
       <r>   -0.5294    0.0000 </r>
       <r>   -0.4393    0.0000 </r>
       <r>   -0.2622    0.0000 </r>
       <r>   -0.2319    0.0000 </r>
       <r>   -0.1383    0.0000 </r>
       <r>    0.0214    0.0000 </r>
       <r>    0.1865    0.0000 </r>
       <r>    0.3885    0.0000 </r>
       <r>    0.6328    0.0000 </r>
       <r>    0.6930    0.0000 </r>
       <r>    0.9744    0.0000 </r>
       <r>    1.0843    0.0000 </r>
       <r>    1.2568    0.0000 </r>
       <r>    1.3243    0.0000 </r>
       <r>    2.1469    0.0000 </r>
       <r>    2.2897    0.0000 </r>
       <r>    2.4057    0.0000 </r>
      </set>
      <set comment="kpoint 34">
       <r>  -17.4566    1.0000 </r>
       <r>  -17.3427    1.0000 </r>
       <r>  -16.7584    1.0000 </r>
       <r>  -16.6277    1.0000 </r>
       <r>  -16.5453    1.0000 </r>
       <r>  -16.4636    1.0000 </r>
       <r>  -16.2391    1.0000 </r>
       <r>  -16.2001    1.0000 </r>
       <r>  -16.1257    1.0000 </r>
       <r>  -15.9921    1.0000 </r>
       <r>  -15.9324    1.0000 </r>
       <r>  -15.7927    1.0000 </r>
       <r>  -15.7489    1.0000 </r>
       <r>  -15.6636    1.0000 </r>
       <r>  -15.6305    1.0000 </r>
       <r>  -15.5346    1.0000 </r>
       <r>  -15.4599    1.0000 </r>
       <r>  -15.4459    1.0000 </r>
       <r>   -9.8093    1.0000 </r>
       <r>   -9.3729    1.0000 </r>
       <r>   -9.1934    1.0000 </r>
       <r>   -9.0098    1.0000 </r>
       <r>   -8.9440    1.0000 </r>
       <r>   -8.7335    1.0000 </r>
       <r>   -8.6387    1.0000 </r>
       <r>   -8.6123    1.0000 </r>
       <r>   -8.3849    1.0000 </r>
       <r>   -8.3490    1.0000 </r>
       <r>   -8.1881    1.0000 </r>
       <r>   -8.1771    1.0000 </r>
       <r>   -8.0780    1.0000 </r>
       <r>   -8.0225    1.0000 </r>
       <r>   -7.8781    1.0000 </r>
       <r>   -7.7927    1.0000 </r>
       <r>   -7.7318    1.0000 </r>
       <r>   -7.6766    1.0000 </r>
       <r>   -7.5976    1.0000 </r>
       <r>   -7.5027    1.0000 </r>
       <r>   -7.4120    1.0000 </r>
       <r>   -7.2704    1.0000 </r>
       <r>   -7.0934    1.0000 </r>
       <r>   -7.0633    1.0000 </r>
       <r>   -6.9154    1.0000 </r>
       <r>   -6.8877    1.0000 </r>
       <r>   -6.7871    1.0000 </r>
       <r>   -6.7476    1.0000 </r>
       <r>   -6.6613    1.0000 </r>
       <r>   -6.6063    1.0000 </r>
       <r>   -6.5746    1.0000 </r>
       <r>   -6.5488    1.0000 </r>
       <r>   -6.4163    1.0000 </r>
       <r>   -6.3203    1.0000 </r>
       <r>   -6.2772    1.0000 </r>
       <r>   -6.1760    1.0000 </r>
       <r>   -6.1438    1.0000 </r>
       <r>   -6.0257    1.0000 </r>
       <r>   -5.9870    1.0000 </r>
       <r>   -5.9292    1.0000 </r>
       <r>   -5.8995    1.0000 </r>
       <r>   -5.8307    1.0000 </r>
       <r>   -5.8001    1.0000 </r>
       <r>   -5.7059    1.0000 </r>
       <r>   -5.5218    1.0000 </r>
       <r>   -5.4896    1.0000 </r>
       <r>   -5.4118    1.0000 </r>
       <r>   -5.0320    1.0000 </r>
       <r>   -4.9984    1.0000 </r>
       <r>   -4.8806    1.0000 </r>
       <r>   -4.7788    1.0000 </r>
       <r>   -4.7384    1.0000 </r>
       <r>   -4.6166    1.0000 </r>
       <r>   -4.4627    1.0000 </r>
       <r>   -4.2133    1.0000 </r>
       <r>   -4.1679    1.0000 </r>
       <r>   -3.9692    1.0000 </r>
       <r>   -3.9245    1.0000 </r>
       <r>   -3.8168    0.9999 </r>
       <r>   -3.6751    0.9969 </r>
       <r>   -3.6290    0.9921 </r>
       <r>   -3.2771    0.4707 </r>
       <r>   -2.9266    0.0053 </r>
       <r>   -2.8829    0.0021 </r>
       <r>   -2.8264    0.0006 </r>
       <r>   -2.6953    0.0000 </r>
       <r>   -2.5979    0.0000 </r>
       <r>   -2.5129    0.0000 </r>
       <r>   -2.4871    0.0000 </r>
       <r>   -2.1818    0.0000 </r>
       <r>   -1.9984    0.0000 </r>
       <r>   -1.8698    0.0000 </r>
       <r>   -1.7246    0.0000 </r>
       <r>   -1.6069    0.0000 </r>
       <r>   -1.4117    0.0000 </r>
       <r>   -1.3380    0.0000 </r>
       <r>   -1.2289    0.0000 </r>
       <r>   -1.1838    0.0000 </r>
       <r>   -1.1320    0.0000 </r>
       <r>   -1.0017    0.0000 </r>
       <r>   -0.9535    0.0000 </r>
       <r>   -0.8290    0.0000 </r>
       <r>   -0.7822    0.0000 </r>
       <r>   -0.7619    0.0000 </r>
       <r>   -0.5900    0.0000 </r>
       <r>   -0.5149    0.0000 </r>
       <r>   -0.4883    0.0000 </r>
       <r>   -0.2734    0.0000 </r>
       <r>   -0.2236    0.0000 </r>
       <r>   -0.1268    0.0000 </r>
       <r>    0.0085    0.0000 </r>
       <r>    0.2544    0.0000 </r>
       <r>    0.4346    0.0000 </r>
       <r>    0.6308    0.0000 </r>
       <r>    0.6691    0.0000 </r>
       <r>    0.9473    0.0000 </r>
       <r>    1.0981    0.0000 </r>
       <r>    1.2630    0.0000 </r>
       <r>    1.3032    0.0000 </r>
       <r>    2.2345    0.0000 </r>
       <r>    2.2525    0.0000 </r>
       <r>    2.3675    0.0000 </r>
      </set>
     </set>
    </set>
   </array>
  </eigenvalues>
  <separator name="orbital magnetization" >
   <v name="MAGDIPOLOUT">      0.00000000      0.00000000      0.00000000</v>
  </separator>
 </calculation>
 <structure name="finalpos" >
  <crystal>
   <varray name="basis" >
    <v>       8.35421133       4.84623288       0.00000000 </v>
    <v>      -8.32371337       4.79354061       0.00000000 </v>
    <v>       0.00000000       0.00000000      30.00000000 </v>
   </varray>
   <i name="volume">   2411.54713906 </i>
   <varray name="rec_basis" >
    <v>       0.05963235       0.10354821       0.00000000 </v>
    <v>      -0.06028785       0.10392761       0.00000000 </v>
    <v>       0.00000000       0.00000000       0.03333333 </v>
   </varray>
  </crystal>
  <varray name="positions" >
   <v>       0.63232835       0.65228325       0.00032539 </v>
   <v>       1.01061423       0.31815610      -0.00035025 </v>
   <v>       0.67073242       0.35689831       0.00031325 </v>
   <v>       0.02939125       0.01602411      -0.00050492 </v>
   <v>       0.32101845       0.32500075       0.00009976 </v>
   <v>       0.34842337       0.66884560      -0.00051533 </v>
   <v>       0.02729380       0.69597220      -0.00018692 </v>
   <v>       0.30861665      -0.00205432       0.00146556 </v>
   <v>       0.65302275      -0.03017878      -0.00020156 </v>
   <v>       0.10940890       0.22505954       0.94494496 </v>
   <v>       0.22612484       0.11685218       0.05675514 </v>
   <v>       0.10667380       0.55048819       0.95065630 </v>
   <v>       0.21415432       0.44094962       0.05188437 </v>
   <v>       0.11544628       0.89656888       0.94293818 </v>
   <v>       0.22923355       0.78183182       0.05388256 </v>
   <v>       0.44843573       0.22265019       0.95007046 </v>
   <v>       0.55799614       0.11533542       0.04678284 </v>
   <v>       0.44279673       0.55191551       0.94628001 </v>
   <v>       0.55514862       0.44601574       0.05157842 </v>
   <v>       0.44123343       0.89206364       0.94920665 </v>
   <v>       0.55424750       0.76753987       0.05547001 </v>
   <v>       0.77706528       0.22089321       0.95478382 </v>
   <v>       0.89068235       0.10998967       0.04994098 </v>
   <v>       0.77490509       0.56126821       0.95160564 </v>
   <v>       0.89479577       0.44597534       0.04530076 </v>
   <v>       0.77697492       0.87665652       0.95133854 </v>
   <v>       0.88144993       0.77521369       0.04613528 </v>
  </varray>
 </structure>
</modeling>
