unknown system                          
           1
     8.855987    5.108047    0.000000
    -8.853398    5.103594    0.000000
     0.000000    0.000000   30.000000
   V    Mo   W    S 
   3   3   3  18
Direct configuration=     1
   0.66666669  0.66666669  0.00000000
   1.00000000  0.33333334  0.00000000
   0.66666669  0.33333334  0.00000000
   0.00000000  0.00000000  0.00000000
   0.33333334  0.33333334  0.00000000
   0.33333334  0.66666669  0.00000000
   0.00000000  0.66666669  0.00000000
   0.33333334  0.00000000  0.00000000
   0.66666669  0.00000000  0.00000000
   0.11068511  0.22244981  0.95539999
   0.22244981  0.11068511  0.04460000
   0.11068511  0.55578315  0.95539999
   0.22244981  0.44401845  0.04460000
   0.11068511  0.88911647  0.95539999
   0.22244981  0.77735180  0.04460000
   0.44401845  0.22244981  0.95539999
   0.55578315  0.11068511  0.04460000
   0.44401845  0.55578315  0.95539999
   0.55578315  0.44401845  0.04460000
   0.44401845  0.88911647  0.95539999
   0.55578315  0.77735180  0.04460000
   0.77735180  0.22244981  0.95539999
   0.88911647  0.11068511  0.04460000
   0.77735180  0.55578315  0.95539999
   0.88911647  0.44401845  0.04460000
   0.77735180  0.88911647  0.95539999
   0.88911647  0.77735180  0.04460000
unknown system                          
           1
     8.668024    5.001842    0.000000
    -8.665471    4.997450    0.000000
     0.000000    0.000000   30.000000
   V    Mo   W    S 
   3   3   3  18
Direct configuration=     2
   0.66536516  0.66626747  0.00018675
   1.00197799  0.33323785 -0.00016085
   0.66589620  0.33371191  0.00002497
   0.00138105  0.00128050 -0.00015287
   0.33216531  0.33366270  0.00003545
   0.33335476  0.66524225  0.00011458
   0.00073944  0.66741694  0.00005150
   0.33173752  0.00015364 -0.00003521
   0.66729163 -0.00103559 -0.00009379
   0.10846905  0.22454716  0.95192486
   0.22270685  0.11059775  0.04926428
   0.10821458  0.55123092  0.95192581
   0.21772096  0.44222374  0.04809844
   0.11149913  0.88849026  0.95065281
   0.22186270  0.77815062  0.04929325
   0.44831678  0.22328545  0.95195733
   0.55712272  0.11462213  0.04806675
   0.44881352  0.55759595  0.95193471
   0.55998904  0.44645138  0.04688826
   0.44479561  0.88969668  0.95082089
   0.55836699  0.77611014  0.04808914
   0.77926333  0.22563240  0.95313072
   0.88998422  0.11505095  0.04804094
   0.77419617  0.55393402  0.95313976
   0.88728123  0.44090871  0.04682896
   0.77509458  0.88484910  0.95193919
   0.88460795  0.77489943  0.04803324
unknown system                          
           1
     8.486648    4.901132    0.000000
    -8.485514    4.899193    0.000000
     0.000000    0.000000   30.000000
   V    Mo   W    S 
   3   3   3  18
Direct configuration=     3
   0.66489190  0.66621745  0.00020978
   1.00261896  0.33322917 -0.00017785
   0.66563063  0.33371064  0.00003407
   0.00216524  0.00166399 -0.00013252
   0.33156684  0.33349060  0.00003309
   0.33340178  0.66502850  0.00008985
   0.00147794  0.66817074  0.00010744
   0.33090094 -0.00007069 -0.00003617
   0.66723992 -0.00151921 -0.00014242
   0.10840956  0.22464217  0.95180416
   0.22284267  0.11049124  0.04934175
   0.10798969  0.55120733  0.95194192
   0.21755715  0.44212581  0.04818584
   0.11159701  0.88839499  0.95056588
   0.22177355  0.77825480  0.04931181
   0.44830075  0.22315022  0.95198201
   0.55706898  0.11444808  0.04797067
   0.44896761  0.55766311  0.95190842
   0.56005485  0.44653402  0.04686673
   0.44489587  0.88993639  0.95088438
   0.55853901  0.77626730  0.04815277
   0.77922058  0.22545532  0.95323700
   0.88981599  0.11506368  0.04800505
   0.77438006  0.55401419  0.95322710
   0.88736270  0.44108946  0.04669976
   0.77491288  0.88485437  0.95195691
   0.88463140  0.77470077  0.04797248
unknown system                          
           1
     8.274289    4.782801    0.000000
    -8.267783    4.771560    0.000000
     0.000000    0.000000   30.000000
   V    Mo   W    S 
   3   3   3  18
Direct configuration=     4
   0.66300386  0.66638262  0.00021134
   1.00495299  0.33307749 -0.00016358
   0.66447965  0.33332308  0.00005243
   0.00559114  0.00292120 -0.00001710
   0.32905740  0.33230117  0.00000302
   0.33382259  0.66486295 -0.00002765
   0.00497053  0.67186028  0.00026684
   0.32727311 -0.00142048 -0.00003541
   0.66652359 -0.00358995 -0.00026241
   0.10787517  0.22535713  0.94987324
   0.22302105  0.11064467  0.05126876
   0.10718775  0.55005194  0.95055269
   0.21617696  0.44139327  0.04995502
   0.11151357  0.88838995  0.94854008
   0.22199400  0.77834272  0.05102820
   0.44930806  0.22383577  0.95064419
   0.55753433  0.11513993  0.04903226
   0.45028979  0.55817489  0.95039816
   0.56089345  0.44713747  0.04808569
   0.44486530  0.89015322  0.94955018
   0.55911867  0.77569076  0.04989048
   0.77983646  0.22637439  0.95232163
   0.89029993  0.11617853  0.04928620
   0.77362737  0.55362541  0.95226609
   0.88692172  0.44020677  0.04751037
   0.77447512  0.88367885  0.95059096
   0.88360088  0.77412043  0.04917822
unknown system                          
           1
     8.270294    4.788825    0.000000
    -8.258008    4.767564    0.000000
     0.000000    0.000000   30.000000
   V    Mo   W    S 
   3   3   3  18
Direct configuration=     5
   0.65850671  0.66639036  0.00003556
   1.00899227  0.33261502  0.00003556
   0.66246787  0.33254482  0.00006816
   0.01333111  0.00530889  0.00010858
   0.32423586  0.32962034 -0.00006633
   0.33501526  0.66493673 -0.00016885
   0.01188022  0.67945835  0.00038167
   0.31945730 -0.00422325 -0.00001186
   0.66487202 -0.00764108 -0.00034425
   0.10748479  0.22584854  0.94699931
   0.22342474  0.11156307  0.05416428
   0.10666613  0.54907930  0.94871800
   0.21498010  0.44080607  0.05238688
   0.11115285  0.88869916  0.94540714
   0.22306052  0.77857579  0.05354613
   0.44957178  0.22441093  0.94885468
   0.55739504  0.11534747  0.05030205
   0.45114314  0.55804716  0.94830795
   0.56080250  0.44757761  0.04990815
   0.44435939  0.89015862  0.94783733
   0.55923684  0.77455493  0.05242568
   0.78072909  0.22718790  0.95107684
   0.89107787  0.11701586  0.05080316
   0.77340266  0.55375993  0.95116106
   0.88712040  0.43990108  0.04840999
   0.77495911  0.88249481  0.94890395
   0.88288886  0.77417604  0.05074910
unknown system                          
           1
     8.269811    4.789339    0.000000
    -8.255960    4.765372    0.000000
     0.000000    0.000000   30.000000
   V    Mo   W    S 
   3   3   3  18
Direct configuration=     6
   0.65596121  0.66549398  0.00001882
   1.01000375  0.33246578  0.00001952
   0.66192709  0.33239393  0.00007614
   0.01537165  0.00583301  0.00001369
   0.32364385  0.32910453 -0.00002544
   0.33570146  0.66521391 -0.00012151
   0.01355641  0.68137747  0.00034863
   0.31793488 -0.00455053  0.00013396
   0.66391595 -0.00886953 -0.00037384
   0.10757812  0.22548657  0.94670925
   0.22390218  0.11212408  0.05459942
   0.10697012  0.54954750  0.94869661
   0.21530815  0.44098481  0.05257016
   0.11104517  0.88905808  0.94479293
   0.22383650  0.77890668  0.05386692
   0.44853289  0.22383523  0.94878284
   0.55644381  0.11446150  0.05019962
   0.45031431  0.55736082  0.94808864
   0.55999538  0.44745534  0.04998921
   0.44383374  0.89028050  0.94782970
   0.55880802  0.77419163  0.05271640
   0.78083718  0.22680023  0.95117113
   0.89128494  0.11628577  0.05070762
   0.77405919  0.55444754  0.95133375
   0.88800963  0.44086473  0.04820844
   0.77586343  0.88280639  0.94901948
   0.88357546  0.77485451  0.05062782
unknown system                          
           1
     8.275649    4.796120    0.000000
    -8.258488    4.766422    0.000000
     0.000000    0.000000   30.000000
   V    Mo   W    S 
   3   3   3  18
Direct configuration=     7
   0.65234671  0.66395760 -0.00003003
   1.01134105  0.33219670  0.00002725
   0.66120665  0.33226645  0.00002350
   0.01841683  0.00686166 -0.00002417
   0.32294795  0.32848834  0.00000615
   0.33672579  0.66560161 -0.00008045
   0.01614920  0.68416017  0.00032289
   0.31569828 -0.00504549  0.00019202
   0.66240580 -0.01065052 -0.00044712
   0.10781812  0.22526895  0.94645538
   0.22431741  0.11269576  0.05498748
   0.10736217  0.55001659  0.94875027
   0.21552384  0.44115130  0.05268382
   0.11131772  0.88953514  0.94429034
   0.22451865  0.77920379  0.05410903
   0.44762183  0.22326139  0.94879327
   0.55559421  0.11365557  0.05007603
   0.44945191  0.55671272  0.94788024
   0.55926942  0.44737894  0.05005992
   0.44332737  0.89046013  0.94791300
   0.55834975  0.77380594  0.05302625
   0.78091515  0.22637078  0.95142094
   0.89137610  0.11548200  0.05043984
   0.77463195  0.55513594  0.95166448
   0.88889137  0.44183663  0.04783904
   0.77660710  0.88291137  0.94930556
   0.88408212  0.77549498  0.05031498
unknown system                          
           1
     8.281253    4.803927    0.000000
    -8.259019    4.765447    0.000000
     0.000000    0.000000   30.000000
   V    Mo   W    S 
   3   3   3  18
Direct configuration=     8
   0.65030636  0.66295342 -0.00003940
   1.01210729  0.33206614  0.00003168
   0.66075304  0.33219995  0.00000400
   0.01995113  0.00751556 -0.00006261
   0.32273257  0.32829739  0.00003541
   0.33730210  0.66578691 -0.00006637
   0.01749194  0.68547073  0.00031050
   0.31487405 -0.00513150  0.00028236
   0.66140308 -0.01169850 -0.00047696
   0.10792466  0.22519508  0.94631666
   0.22461474  0.11301375  0.05519583
   0.10748664  0.55019059  0.94877457
   0.21559317  0.44122157  0.05274708
   0.11141742  0.88977354  0.94401233
   0.22489785  0.77939783  0.05423192
   0.44728303  0.22302947  0.94877375
   0.55530117  0.11338298  0.05001882
   0.44901647  0.55642014  0.94774037
   0.55902594  0.44736672  0.05011830
   0.44303835  0.89053741  0.94792700
   0.55815612  0.77362147  0.05319996
   0.78092471  0.22617433  0.95157082
   0.89141342  0.11512929  0.05028707
   0.77482835  0.55544214  0.95184786
   0.88927965  0.44226098  0.04761764
   0.77688672  0.88285488  0.94948754
   0.88420448  0.77574222  0.05011378
unknown system                          
           1
     8.282377    4.804223    0.000000
    -8.260621    4.766568    0.000000
     0.000000    0.000000   30.000000
   V    Mo   W    S 
   3   3   3  18
Direct configuration=     9
   0.64688053  0.66107136 -0.00003597
   1.01357078  0.33188940  0.00003618
   0.65976004  0.33206095 -0.00005236
   0.02242341  0.00876657 -0.00013323
   0.32257334  0.32813329  0.00007778
   0.33827517  0.66605466 -0.00006034
   0.01972837  0.68748057  0.00027838
   0.31391379 -0.00506572  0.00040565
   0.65935604 -0.01362111 -0.00054647
   0.10816049  0.22515606  0.94614271
   0.22512635  0.11355687  0.05546777
   0.10761861  0.55043620  0.94885343
   0.21568242  0.44133614  0.05281219
   0.11170649  0.89021411  0.94369743
   0.22546541  0.77970281  0.05436857
   0.44687527  0.22271407  0.94877534
   0.55501879  0.11310928  0.04993160
   0.44829396  0.55598474  0.94752639
   0.55872238  0.44734662  0.05022050
   0.44258076  0.89063439  0.94797514
   0.55783069  0.77334364  0.05344486
   0.78086111  0.22580265  0.95189956
   0.89138664  0.11458405  0.04996174
   0.77509499  0.55592900  0.95221261
   0.88982653  0.44288430  0.04718030
   0.77719476  0.88265148  0.94989324
   0.88428733  0.77605805  0.04966692
unknown system                          
           1
     8.284258    4.805080    0.000000
    -8.262684    4.767741    0.000000
     0.000000    0.000000   30.000000
   V    Mo   W    S 
   3   3   3  18
Direct configuration=    10
   0.64734087  0.66129374 -0.00003107
   1.01341799  0.33192995  0.00003544
   0.65983088  0.33206323 -0.00004430
   0.02207079  0.00862064 -0.00012491
   0.32263332  0.32818168  0.00007499
   0.33813548  0.66600720 -0.00006185
   0.01942762  0.68717275  0.00028249
   0.31414340 -0.00502425  0.00039905
   0.65955371 -0.01339200 -0.00053485
   0.10813381  0.22517463  0.94616347
   0.22507118  0.11349295  0.05542917
   0.10758549  0.55038686  0.94883939
   0.21567017  0.44132202  0.05280555
   0.11167360  0.89016370  0.94374129
   0.22539522  0.77966571  0.05434905
   0.44695436  0.22277390  0.94876564
   0.55509269  0.11318039  0.04995207
   0.44838322  0.55604300  0.94754772
   0.55877647  0.44734677  0.05021600
   0.44262910  0.89060705  0.94795668
   0.55787123  0.77337782  0.05341546
   0.78086399  0.22585261  0.95186250
   0.89138437  0.11466718  0.04999972
   0.77504828  0.55586301  0.95216604
   0.88973887  0.44278317  0.04723090
   0.77714189  0.88266007  0.94984677
   0.88424643  0.77600069  0.04971747
unknown system                          
           1
     8.291640    4.809695    0.000000
    -8.269458    4.771307    0.000000
     0.000000    0.000000   30.000000
   V    Mo   W    S 
   3   3   3  18
Direct configuration=    11
   0.64724968  0.66122717 -0.00002899
   1.01356583  0.33195306  0.00003578
   0.65972562  0.33202222 -0.00004723
   0.02215573  0.00872170 -0.00012599
   0.32261653  0.32820859  0.00007427
   0.33813201  0.66598922 -0.00006433
   0.01951805  0.68719875  0.00028283
   0.31419498 -0.00499965  0.00039878
   0.65939533 -0.01349084 -0.00054077
   0.10815279  0.22519532  0.94616843
   0.22508938  0.11350988  0.05542441
   0.10757778  0.55037702  0.94884761
   0.21566215  0.44131465  0.05279848
   0.11171303  0.89019358  0.94375605
   0.22540777  0.77968158  0.05434133
   0.44694128  0.22276908  0.94876700
   0.55510015  0.11318882  0.04995983
   0.44835674  0.55602905  0.94754401
   0.55876287  0.44733570  0.05022467
   0.44260256  0.89059268  0.94795688
   0.55785094  0.77336579  0.05341954
   0.78086921  0.22582960  0.95188788
   0.89137396  0.11466798  0.04997104
   0.77506445  0.55589888  0.95218454
   0.88976176  0.44279237  0.04720357
   0.77713428  0.88264392  0.94987736
   0.88423960  0.77599834  0.04968295
unknown system                          
           1
     8.289804    4.811138    0.000000
    -8.264778    4.767826    0.000000
     0.000000    0.000000   30.000000
   V    Mo   W    S 
   3   3   3  18
Direct configuration=    12
   0.64622573  0.66059033 -0.00001890
   1.01429572  0.33197040  0.00003749
   0.65917692  0.33188498 -0.00006916
   0.02292381  0.00927755 -0.00014552
   0.32257631  0.32824133  0.00008352
   0.33834087  0.66599252 -0.00006855
   0.02027164  0.68771979  0.00027438
   0.31416157 -0.00487308  0.00042989
   0.65847683 -0.01420353 -0.00057017
   0.10826383  0.22525095  0.94612943
   0.22526282  0.11369700  0.05548752
   0.10758245  0.55039991  0.94887890
   0.21566254  0.44132757  0.05280448
   0.11189042  0.89038559  0.94370866
   0.22558072  0.77978687  0.05436344
   0.44683905  0.22269977  0.94875847
   0.55507825  0.11317543  0.04996883
   0.44810282  0.55587957  0.94746920
   0.55866126  0.44729682  0.05028435
   0.44241855  0.89057427  0.94795446
   0.55771508  0.77325895  0.05350015
   0.78086467  0.22569309  0.95202792
   0.89134537  0.11454183  0.04982637
   0.77515723  0.55610045  0.95231434
   0.88993281  0.44295056  0.04703066
   0.77719426  0.88253564  0.95004747
   0.88421290  0.77605988  0.04949226
unknown system                          
           1
     8.291823    4.814057    0.000000
    -8.264631    4.766997    0.000000
     0.000000    0.000000   30.000000
   V    Mo   W    S 
   3   3   3  18
Direct configuration=    13
   0.64476168  0.65975033 -0.00000024
   1.01504484  0.33196466  0.00003806
   0.65851033  0.33174885 -0.00009776
   0.02401964  0.00977524 -0.00017135
   0.32260191  0.32816989  0.00011410
   0.33877538  0.66612805 -0.00006709
   0.02128240  0.68861252  0.00025616
   0.31388575 -0.00476082  0.00050280
   0.65736097 -0.01512275 -0.00059309
   0.10838665  0.22523838  0.94602614
   0.22550422  0.11395644  0.05559002
   0.10761197  0.55049261  0.94888760
   0.21575831  0.44141606  0.05286273
   0.11202973  0.89059804  0.94358142
   0.22584374  0.77991511  0.05442723
   0.44669969  0.22260974  0.94873026
   0.55505513  0.11312180  0.04995447
   0.44777745  0.55569278  0.94736838
   0.55852960  0.44728541  0.05034734
   0.44219501  0.89055465  0.94793978
   0.55754812  0.77313581  0.05360527
   0.78078830  0.22549647  0.95219233
   0.89128682  0.11429422  0.04967780
   0.77527879  0.55630252  0.95248242
   0.89012465  0.44319183  0.04682320
   0.77732591  0.88245414  0.95023526
   0.88422745  0.77619247  0.04928666
unknown system                          
           1
     8.286992    4.809754    0.000000
    -8.261675    4.765939    0.000000
     0.000000    0.000000   30.000000
   V    Mo   W    S 
   3   3   3  18
Direct configuration=    14
   0.64334682  0.65884169  0.00002348
   1.01613305  0.33207750  0.00003571
   0.65745332  0.33145423 -0.00012821
   0.02511806  0.01042985 -0.00020733
   0.32266772  0.32817988  0.00013556
   0.33907932  0.66615959 -0.00007860
   0.02238439  0.68941789  0.00023584
   0.31395634 -0.00448388  0.00057049
   0.65586771 -0.01617398 -0.00062674
   0.10855508  0.22528773  0.94593236
   0.22578695  0.11425138  0.05568978
   0.10760238  0.55052906  0.94890053
   0.21583842  0.44148681  0.05291671
   0.11227284  0.89088518  0.94349174
   0.22612945  0.78006510  0.05448137
   0.44659266  0.22255668  0.94868441
   0.55512062  0.11316194  0.04998159
   0.44740208  0.55547757  0.94725842
   0.55838822  0.44722372  0.05044438
   0.44190452  0.89046609  0.94789891
   0.55733564  0.77298319  0.05372585
   0.78071454  0.22527752  0.95241402
   0.89121016  0.11407566  0.04947169
   0.77541305  0.55654091  0.95268401
   0.89030914  0.44340193  0.04655413
   0.77743172  0.88234206  0.95048440
   0.88420025  0.77629915  0.04902541
unknown system                          
           1
     8.287417    4.809200    0.000000
    -8.263499    4.767802    0.000000
     0.000000    0.000000   30.000000
   V    Mo   W    S 
   3   3   3  18
Direct configuration=    15
   0.64481466  0.65984713 -0.00002185
   1.01446490  0.33172503  0.00004492
   0.65931065  0.33208258 -0.00010649
   0.02381771  0.00961731 -0.00016260
   0.32254855  0.32813988  0.00010440
   0.33891709  0.66624946 -0.00006368
   0.02100857  0.68853401  0.00026393
   0.31347038 -0.00499877  0.00048425
   0.65805128 -0.01486249 -0.00060193
   0.10831975  0.22518543  0.94605214
   0.22543890  0.11390738  0.05559342
   0.10766859  0.55056449  0.94891714
   0.21570721  0.44140763  0.05283323
   0.11187349  0.89048436  0.94356250
   0.22577464  0.77986576  0.05442294
   0.44668058  0.22255535  0.94880170
   0.55490431  0.11300290  0.04987313
   0.44783581  0.55573098  0.94738536
   0.55855842  0.44733412  0.05028934
   0.44234155  0.89069962  0.94801727
   0.55762436  0.77319209  0.05358568
   0.78080738  0.22554697  0.95209983
   0.89134123  0.11430239  0.04976820
   0.77521621  0.55624691  0.95242566
   0.89014636  0.44321655  0.04692879
   0.77730955  0.88243853  0.95015053
   0.88426232  0.77619887  0.04935208
unknown system                          
           1
     8.287872    4.811951    0.000000
    -8.261120    4.765648    0.000000
     0.000000    0.000000   30.000000
   V    Mo   W    S 
   3   3   3  18
Direct configuration=    16
   0.64605620  0.66070483 -0.00005594
   1.01242006  0.33108374  0.00005703
   0.66181098  0.33308706 -0.00008816
   0.02249563  0.00887446 -0.00011924
   0.32240367  0.32809435  0.00007945
   0.33893138  0.66637777 -0.00003658
   0.01954997  0.68766087  0.00029043
   0.31266296 -0.00560205  0.00041509
   0.66063338 -0.01352289 -0.00056113
   0.10805571  0.22508918  0.94617725
   0.22509773  0.11359031  0.05551484
   0.10776410  0.55063020  0.94897098
   0.21553196  0.44133682  0.05272272
   0.11138914  0.89007209  0.94359983
   0.22542935  0.77964957  0.05437214
   0.44676549  0.22250777  0.94897279
   0.55459932  0.11279066  0.04968665
   0.44821693  0.55595697  0.94748540
   0.55873932  0.44746822  0.05010007
   0.44279895  0.89105300  0.94817009
   0.55794505  0.77339260  0.05345101
   0.78093818  0.22584229  0.95173745
   0.89153152  0.11451851  0.05011033
   0.77495460  0.55597172  0.95214165
   0.89004141  0.44306383  0.04735067
   0.77720700  0.88243628  0.94978383
   0.88424446  0.77608627  0.04967123
unknown system                          
           1
     8.295707    4.818222    0.000000
    -8.266882    4.768331    0.000000
     0.000000    0.000000   30.000000
   V    Mo   W    S 
   3   3   3  18
Direct configuration=    17
   0.64487188  0.65990705 -0.00002907
   1.01192726  0.33028100  0.00003861
   0.66323504  0.33409779 -0.00010764
   0.02299771  0.00933414 -0.00016031
   0.32215127  0.32801284  0.00008083
   0.33949319  0.66657659 -0.00005559
   0.02000315  0.68819160  0.00027546
   0.31164274 -0.00586996  0.00046826
   0.66096826 -0.01394831 -0.00056250
   0.10810872  0.22515684  0.94615754
   0.22528186  0.11384542  0.05561518
   0.10782223  0.55076514  0.94912145
   0.21547661  0.44139327  0.05267307
   0.11132240  0.89021054  0.94350655
   0.22557565  0.77970011  0.05438306
   0.44666288  0.22231210  0.94912460
   0.55444360  0.11262648  0.04944933
   0.44775620  0.55569608  0.94737106
   0.55860636  0.44740514  0.05008190
   0.44275426  0.89132610  0.94831292
   0.55789213  0.77334782  0.05353927
   0.78097483  0.22569113  0.95177437
   0.89161001  0.11434720  0.05009421
   0.77494526  0.55618839  0.95219943
   0.89032248  0.44332324  0.04729858
   0.77725632  0.88218316  0.94988280
   0.88411214  0.77611356  0.04946657
unknown system                          
           1
     8.311437    4.837079    0.000000
    -8.272004    4.768824    0.000000
     0.000000    0.000000   30.000000
   V    Mo   W    S 
   3   3   3  18
Direct configuration=    18
   0.64328899  0.65884599  0.00001485
   1.01293117  0.33020853  0.00003095
   0.66252162  0.33417387 -0.00013794
   0.02412890  0.01010696 -0.00019224
   0.32220405  0.32805203  0.00010368
   0.33991738  0.66664937 -0.00006326
   0.02116244  0.68900886  0.00024666
   0.31168032 -0.00559350  0.00054526
   0.65940693 -0.01516854 -0.00057511
   0.10830236  0.22525098  0.94601396
   0.22557285  0.11419305  0.05574097
   0.10778237  0.55079013  0.94912425
   0.21555722  0.44148415  0.05273751
   0.11159770  0.89057417  0.94338846
   0.22589233  0.77984582  0.05445585
   0.44658028  0.22225286  0.94908775
   0.55454106  0.11269846  0.04945878
   0.44729721  0.55542077  0.94722995
   0.55840414  0.44728547  0.05021301
   0.44243247  0.89127009  0.94826209
   0.55762844  0.77313613  0.05368944
   0.78090452  0.22543208  0.95198269
   0.89152976  0.11409633  0.04991749
   0.77507711  0.55650011  0.95236736
   0.89055683  0.44355161  0.04704998
   0.77734963  0.88196842  0.95012684
   0.88396637  0.77618025  0.04918068
unknown system                          
           1
     8.312885    4.836034    0.000000
    -8.276068    4.772300    0.000000
     0.000000    0.000000   30.000000
   V    Mo   W    S 
   3   3   3  18
Direct configuration=    19
   0.63567971  0.65358489  0.00022197
   1.01425177  0.32739229 -0.00001165
   0.66561008  0.33837083 -0.00033323
   0.02869207  0.01375505 -0.00035668
   0.32140776  0.32779137  0.00015568
   0.34280395  0.66759292 -0.00012446
   0.02556791  0.69270420  0.00013396
   0.30876953 -0.00574110  0.00089029
   0.65583790 -0.02009057 -0.00062459
   0.10900285  0.22570876  0.94551523
   0.22669522  0.11579479  0.05628467
   0.10773589  0.55122140  0.94952259
   0.21552170  0.44186310  0.05272748
   0.11224945  0.89213358  0.94289232
   0.22708896  0.78032902  0.05464719
   0.44621684  0.22160199  0.94952430
   0.55443770  0.11255350  0.04877974
   0.44480807  0.55396912  0.94657021
   0.55730757  0.44661586  0.05056909
   0.44158287  0.89194588  0.94856648
   0.55657376  0.77226893  0.05433843
   0.78070605  0.22414701  0.95260726
   0.89148852  0.11288783  0.04948846
   0.77536071  0.55811238  0.95283647
   0.89215425  0.44489637  0.04635208
   0.77759124  0.88044356  0.95104657
   0.88307212  0.77636149  0.04778004
unknown system                          
           1
     8.316039    4.839349    0.000000
    -8.277496    4.772628    0.000000
     0.000000    0.000000   30.000000
   V    Mo   W    S 
   3   3   3  18
Direct configuration=    20
   0.63765575  0.65489815  0.00020849
   1.01483252  0.32844783 -0.00000672
   0.66424768  0.33754789 -0.00030999
   0.02757021  0.01291126 -0.00037587
   0.32171256  0.32781892  0.00013987
   0.34193106  0.66717102 -0.00015498
   0.02470808  0.69184064  0.00013794
   0.31031840 -0.00525568  0.00086766
   0.65538503 -0.01956219 -0.00060425
   0.10891239  0.22559480  0.94558689
   0.22653073  0.11549669  0.05616658
   0.10761903  0.55100634  0.94938640
   0.21555296  0.44176480  0.05278396
   0.11234236  0.89205288  0.94303352
   0.22694236  0.78029113  0.05463249
   0.44639595  0.22182099  0.94937374
   0.55470106  0.11285224  0.04902352
   0.44532520  0.55426115  0.94673969
   0.55745884  0.44666530  0.05056662
   0.44155004  0.89153479  0.94835402
   0.55664841  0.77223675  0.05424182
   0.78062926  0.22428660  0.95261981
   0.89143064  0.11310082  0.04947418
   0.77528339  0.55791746  0.95275532
   0.89185370  0.44452556  0.04640294
   0.77753249  0.88072404  0.95098070
   0.88314434  0.77626429  0.04797557
unknown system                          
           1
     8.316005    4.838615    0.000000
    -8.277874    4.772613    0.000000
     0.000000    0.000000   30.000000
   V    Mo   W    S 
   3   3   3  18
Direct configuration=    21
   0.63614425  0.65383319  0.00027841
   1.01571616  0.32815793 -0.00001857
   0.66452692  0.33868807 -0.00036623
   0.02866839  0.01374241 -0.00042338
   0.32162581  0.32771161  0.00015622
   0.34244141  0.66728247 -0.00018041
   0.02578350  0.69264251  0.00011175
   0.31012466 -0.00508753  0.00096585
   0.65368842 -0.02105627 -0.00059844
   0.10910652  0.22567513  0.94545638
   0.22676535  0.11582769  0.05625267
   0.10751283  0.55101385  0.94943799
   0.21559106  0.44183313  0.05280696
   0.11269349  0.89256409  0.94297302
   0.22722691  0.78041101  0.05465972
   0.44639854  0.22174181  0.94944175
   0.55488579  0.11302538  0.04893689
   0.44481398  0.55393765  0.94662876
   0.55717260  0.44646044  0.05068360
   0.44121038  0.89146414  0.94832115
   0.55628293  0.77187554  0.05439774
   0.78048005  0.22387368  0.95287088
   0.89132619  0.11278358  0.04929123
   0.77534767  0.55838866  0.95285584
   0.89223891  0.44477185  0.04618676
   0.77755961  0.88038831  0.95127058
   0.88288212  0.77626412  0.04760277
unknown system                          
           1
     8.319581    4.842649    0.000000
    -8.279573    4.773395    0.000000
     0.000000    0.000000   30.000000
   V    Mo   W    S 
   3   3   3  18
Direct configuration=    22
   0.63598783  0.65373028  0.00030540
   1.01659216  0.32855903 -0.00002464
   0.66390330  0.33892093 -0.00038841
   0.02904799  0.01392807 -0.00043965
   0.32172834  0.32766517  0.00016459
   0.34235979  0.66719389 -0.00019268
   0.02612307  0.69278632  0.00010865
   0.31054479 -0.00487741  0.00099386
   0.65239988 -0.02169276 -0.00058645
   0.10918979  0.22567274  0.94541646
   0.22680257  0.11585378  0.05624310
   0.10740249  0.55092858  0.94940332
   0.21566528  0.44181816  0.05284397
   0.11297440  0.89277405  0.94300614
   0.22728542  0.78043403  0.05464903
   0.44647121  0.22180098  0.94940053
   0.55514616  0.11324227  0.04900945
   0.44477676  0.55387898  0.94663609
   0.55710991  0.44639055  0.05075238
   0.44098403  0.89119580  0.94820941
   0.55607847  0.77166003  0.05444304
   0.78035129  0.22367147  0.95304603
   0.89118968  0.11268125  0.04914285
   0.77540120  0.55857542  0.95288744
   0.89232421  0.44477762  0.04606449
   0.77754369  0.88040065  0.95141810
   0.88283076  0.77624458  0.04748741
unknown system                          
           1
     8.321958    4.845560    0.000000
    -8.281457    4.775436    0.000000
     0.000000    0.000000   30.000000
   V    Mo   W    S 
   3   3   3  18
Direct configuration=    23
   0.63599279  0.65323561  0.00026075
   1.01321367  0.32640128  0.00001561
   0.66743188  0.33927426 -0.00035169
   0.02796578  0.01378963 -0.00035961
   0.32123853  0.32767183  0.00014103
   0.34288309  0.66758690 -0.00014955
   0.02537680  0.69264977  0.00014040
   0.30858750 -0.00560774  0.00093092
   0.65684414 -0.01989012 -0.00066277
   0.10893321  0.22578414  0.94549526
   0.22666412  0.11598585  0.05627623
   0.10771666  0.55133207  0.94964437
   0.21525246  0.44193515  0.05263306
   0.11215400  0.89240831  0.94292773
   0.22713249  0.78038821  0.05462470
   0.44640386  0.22160003  0.94975204
   0.55434798  0.11269477  0.04854451
   0.44447751  0.55384944  0.94654481
   0.55711566  0.44633743  0.05050261
   0.44184381  0.89233338  0.94871628
   0.55662511  0.77229992  0.05433583
   0.78068017  0.22425412  0.95253187
   0.89172602  0.11291086  0.04966583
   0.77511163  0.55798950  0.95283253
   0.89217205  0.44486894  0.04638856
   0.77751407  0.87993116  0.95101177
   0.88280947  0.77619974  0.04760682
unknown system                          
           1
     8.321963    4.845918    0.000000
    -8.281312    4.775532    0.000000
     0.000000    0.000000   30.000000
   V    Mo   W    S 
   3   3   3  18
Direct configuration=    24
   0.63575049  0.65297277  0.00027313
   1.01175407  0.32523356  0.00000446
   0.66957582  0.34007431 -0.00032135
   0.02754757  0.01390778 -0.00037309
   0.32085185  0.32768618  0.00010770
   0.34330491  0.66774648 -0.00014878
   0.02512506  0.69261723  0.00010924
   0.30778858 -0.00589291  0.00093965
   0.65854849 -0.01946941 -0.00064219
   0.10879883  0.22583245  0.94554401
   0.22654061  0.11603602  0.05628438
   0.10777015  0.55145598  0.94977657
   0.21506222  0.44197934  0.05251893
   0.11190061  0.89243979  0.94293615
   0.22712286  0.78042250  0.05461324
   0.44640285  0.22153152  0.94994501
   0.55411301  0.11255030  0.04829759
   0.44439950  0.55385317  0.94657477
   0.55700852  0.44623807  0.05039616
   0.44213052  0.89275764  0.94891673