   27   27  100    1
  0.9710400E+02  0.1002848E-08  0.1002848E-08  0.3000000E-08  0.5000000E-15
  1.000000000000000E-004
  CAR 
 unknown system                          
    159     34    120
 
  0.0000000E+00  0.0000000E+00  0.0000000E+00  0.1562500E-01
    1      -17.798585   1.000000
    2      -16.740948   1.000000
    3      -16.644824   1.000000
    4      -16.558351   1.000000
    5      -16.477714   1.000000
    6      -16.447329   1.000000
    7      -16.426039   1.000000
    8      -16.316492   1.000000
    9      -16.217677   1.000000
   10      -16.159503   1.000000
   11      -16.065199   1.000000
   12      -15.933164   1.000000
   13      -15.893411   1.000000
   14      -15.665867   1.000000
   15      -15.621973   1.000000
   16      -15.461130   1.000000
   17      -15.419882   1.000000
   18      -15.223560   1.000000
   19       -9.318809   1.000000
   20       -9.048105   1.000000
   21       -8.970102   1.000000
   22       -8.876194   1.000000
   23       -8.811214   1.000000
   24       -8.730767   1.000000
   25       -8.627244   1.000000
   26       -8.555239   1.000000
   27       -8.507876   1.000000
   28       -8.418547   1.000000
   29       -8.354821   1.000000
   30       -8.295264   1.000000
   31       -8.245845   1.000000
   32       -8.099948   1.000000
   33       -8.077002   1.000000
   34       -7.992293   1.000000
   35       -7.853009   1.000000
   36       -7.764708   1.000000
   37       -7.717280   1.000000
   38       -7.515211   1.000000
   39       -7.504490   1.000000
   40       -7.422435   1.000000
   41       -7.282101   1.000000
   42       -7.186568   1.000000
   43       -7.140422   1.000000
   44       -6.990522   1.000000
   45       -6.841381   1.000000
   46       -6.768712   1.000000
   47       -6.657285   1.000000
   48       -6.643939   1.000000
   49       -6.563446   1.000000
   50       -6.509499   1.000000
   51       -6.473313   1.000000
   52       -6.345736   1.000000
   53       -6.317366   1.000000
   54       -6.285636   1.000000
   55       -6.223953   1.000000
   56       -6.180036   1.000000
   57       -6.105441   1.000000
   58       -5.922465   1.000000
   59       -5.805765   1.000000
   60       -5.618121   1.000000
   61       -5.373620   1.000000
   62       -5.359019   1.000000
   63       -5.312119   1.000000
   64       -5.188707   1.000000
   65       -5.078966   1.000000
   66       -4.953235   1.000000
   67       -4.882860   1.000000
   68       -4.839392   1.000000
   69       -4.805586   1.000000
   70       -4.772893   1.000000
   71       -4.683755   1.000000
   72       -4.637964   1.000000
   73       -4.512626   1.000000
   74       -4.299310   1.000000
   75       -4.275501   1.000000
   76       -4.091351   1.000000
   77       -3.706123   0.997329
   78       -3.640890   0.989946
   79       -3.465238   0.860437
   80       -3.427711   0.793016
   81       -3.192792   0.199279
   82       -2.989396   0.011232
   83       -2.817266   0.000233
   84       -2.726939   0.000017
   85       -2.593824   0.000000
   86       -2.543765   0.000000
   87       -2.330556   0.000000
   88       -2.237820   0.000000
   89       -2.207073   0.000000
   90       -2.091718   0.000000
   91       -1.964298   0.000000
   92       -1.447825   0.000000
   93       -1.310487   0.000000
   94       -1.254443   0.000000
   95       -1.133619   0.000000
   96       -1.015473   0.000000
   97       -0.958694   0.000000
   98       -0.886145   0.000000
   99       -0.779610   0.000000
  100       -0.634544   0.000000
  101       -0.592084   0.000000
  102       -0.567838   0.000000
  103       -0.508762   0.000000
  104       -0.336177   0.000000
  105       -0.186996   0.000000
  106       -0.090665   0.000000
  107       -0.070331   0.000000
  108       -0.025444   0.000000
  109        0.136273   0.000000
  110        0.281660   0.000000
  111        0.374058   0.000000
  112        0.541223   0.000000
  113        0.680830   0.000000
  114        0.711105   0.000000
  115        0.807466   0.000000
  116        1.030038   0.000000
  117        1.195005   0.000000
  118        1.636596   0.000000
  119        1.835403   0.000000
  120        2.153925   0.000000
 
  0.1250000E+00  0.2775558E-16  0.0000000E+00  0.3125000E-01
    1      -17.774779   1.000000
    2      -16.794492   1.000000
    3      -16.680460   1.000000
    4      -16.631581   1.000000
    5      -16.515867   1.000000
    6      -16.406498   1.000000
    7      -16.363960   1.000000
    8      -16.286611   1.000000
    9      -16.221269   1.000000
   10      -16.164825   1.000000
   11      -15.995573   1.000000
   12      -15.921239   1.000000
   13      -15.876331   1.000000
   14      -15.671302   1.000000
   15      -15.635643   1.000000
   16      -15.470985   1.000000
   17      -15.424083   1.000000
   18      -15.226149   1.000000
   19       -9.328188   1.000000
   20       -9.133159   1.000000
   21       -9.022389   1.000000
   22       -8.943077   1.000000
   23       -8.875778   1.000000
   24       -8.763652   1.000000
   25       -8.645706   1.000000
   26       -8.612539   1.000000
   27       -8.489417   1.000000
   28       -8.406792   1.000000
   29       -8.374845   1.000000
   30       -8.203491   1.000000
   31       -8.117522   1.000000
   32       -8.019694   1.000000
   33       -7.976539   1.000000
   34       -7.937951   1.000000
   35       -7.807982   1.000000
   36       -7.701062   1.000000
   37       -7.676838   1.000000
   38       -7.553067   1.000000
   39       -7.532938   1.000000
   40       -7.479709   1.000000
   41       -7.252640   1.000000
   42       -7.168362   1.000000
   43       -7.110641   1.000000
   44       -7.064483   1.000000
   45       -6.892275   1.000000
   46       -6.768069   1.000000
   47       -6.684534   1.000000
   48       -6.604252   1.000000
   49       -6.552210   1.000000
   50       -6.505450   1.000000
   51       -6.425433   1.000000
   52       -6.394032   1.000000
   53       -6.329985   1.000000
   54       -6.286632   1.000000
   55       -6.245914   1.000000
   56       -6.202761   1.000000
   57       -6.006063   1.000000
   58       -5.935810   1.000000
   59       -5.753449   1.000000
   60       -5.629826   1.000000
   61       -5.472558   1.000000
   62       -5.393513   1.000000
   63       -5.320376   1.000000
   64       -5.239788   1.000000
   65       -5.153023   1.000000
   66       -4.976992   1.000000
   67       -4.921497   1.000000
   68       -4.859352   1.000000
   69       -4.789942   1.000000
   70       -4.749299   1.000000
   71       -4.664883   1.000000
   72       -4.561172   1.000000
   73       -4.456007   1.000000
   74       -4.252009   1.000000
   75       -4.224201   1.000000
   76       -4.091694   1.000000
   77       -3.813482   0.999804
   78       -3.717096   0.997903
   79       -3.501662   0.909851
   80       -3.378976   0.681651
   81       -3.143413   0.116364
   82       -2.962528   0.006710
   83       -2.770297   0.000064
   84       -2.715310   0.000012
   85       -2.599495   0.000000
   86       -2.532326   0.000000
   87       -2.308599   0.000000
   88       -2.224229   0.000000
   89       -2.197141   0.000000
   90       -2.080003   0.000000
   91       -1.961308   0.000000
   92       -1.452098   0.000000
   93       -1.328802   0.000000
   94       -1.257212   0.000000
   95       -1.132154   0.000000
   96       -1.034719   0.000000
   97       -0.952601   0.000000
   98       -0.888986   0.000000
   99       -0.801723   0.000000
  100       -0.706080   0.000000
  101       -0.639389   0.000000
  102       -0.613856   0.000000
  103       -0.551640   0.000000
  104       -0.406072   0.000000
  105       -0.233117   0.000000
  106       -0.114861   0.000000
  107       -0.062135   0.000000
  108       -0.000669   0.000000
  109        0.066979   0.000000
  110        0.225646   0.000000
  111        0.380475   0.000000
  112        0.537853   0.000000
  113        0.674635   0.000000
  114        0.815282   0.000000
  115        0.866157   0.000000
  116        1.068897   0.000000
  117        1.192383   0.000000
  118        1.678513   0.000000
  119        1.875689   0.000000
  120        2.188422   0.000000
 
  0.2500000E+00  0.5551115E-16  0.0000000E+00  0.3125000E-01
    1      -17.705385   1.000000
    2      -16.975168   1.000000
    3      -16.712384   1.000000
    4      -16.675229   1.000000
    5      -16.576577   1.000000
    6      -16.360230   1.000000
    7      -16.324373   1.000000
    8      -16.260103   1.000000
    9      -16.181244   1.000000
   10      -16.128780   1.000000
   11      -15.929248   1.000000
   12      -15.888434   1.000000
   13      -15.797497   1.000000
   14      -15.703560   1.000000
   15      -15.654579   1.000000
   16      -15.499963   1.000000
   17      -15.431373   1.000000
   18      -15.233185   1.000000
   19       -9.472796   1.000000
   20       -9.202260   1.000000
   21       -9.116321   1.000000
   22       -9.055033   1.000000
   23       -8.999156   1.000000
   24       -8.830308   1.000000
   25       -8.611446   1.000000
   26       -8.559657   1.000000
   27       -8.486764   1.000000
   28       -8.354789   1.000000
   29       -8.288570   1.000000
   30       -8.166920   1.000000
   31       -8.104925   1.000000
   32       -8.018651   1.000000
   33       -7.856945   1.000000
   34       -7.762866   1.000000
   35       -7.714819   1.000000
   36       -7.661079   1.000000
   37       -7.597326   1.000000
   38       -7.520390   1.000000
   39       -7.481252   1.000000
   40       -7.453260   1.000000
   41       -7.253352   1.000000
   42       -7.156753   1.000000
   43       -7.116565   1.000000
   44       -7.053988   1.000000
   45       -6.940124   1.000000
   46       -6.730120   1.000000
   47       -6.684277   1.000000
   48       -6.648583   1.000000
   49       -6.538711   1.000000
   50       -6.503577   1.000000
   51       -6.433120   1.000000
   52       -6.403651   1.000000
   53       -6.336342   1.000000
   54       -6.284089   1.000000
   55       -6.179659   1.000000
   56       -6.168799   1.000000
   57       -5.989858   1.000000
   58       -5.876015   1.000000
   59       -5.741031   1.000000
   60       -5.691387   1.000000
   61       -5.623632   1.000000
   62       -5.570143   1.000000
   63       -5.462550   1.000000
   64       -5.334128   1.000000
   65       -5.220242   1.000000
   66       -5.029746   1.000000
   67       -4.918022   1.000000
   68       -4.817008   1.000000
   69       -4.797584   1.000000
   70       -4.644108   1.000000
   71       -4.579171   1.000000
   72       -4.484352   1.000000
   73       -4.404535   1.000000
   74       -4.277756   1.000000
   75       -4.184393   1.000000
   76       -4.041916   1.000000
   77       -3.935913   0.999995
   78       -3.865022   0.999954
   79       -3.510563   0.919658
   80       -3.309201   0.491598
   81       -3.084607   0.053788
   82       -2.906574   0.002065
   83       -2.700419   0.000008
   84       -2.655861   0.000002
   85       -2.597891   0.000000
   86       -2.517650   0.000000
   87       -2.281828   0.000000
   88       -2.180644   0.000000
   89       -2.147403   0.000000
   90       -2.050771   0.000000
   91       -1.933827   0.000000
   92       -1.463343   0.000000
   93       -1.387278   0.000000
   94       -1.277270   0.000000
   95       -1.142249   0.000000
   96       -1.088173   0.000000
   97       -0.972320   0.000000
   98       -0.933659   0.000000
   99       -0.860841   0.000000
  100       -0.807211   0.000000
  101       -0.743587   0.000000
  102       -0.684213   0.000000
  103       -0.607298   0.000000
  104       -0.552662   0.000000
  105       -0.303083   0.000000
  106       -0.232022   0.000000
  107       -0.142433   0.000000
  108       -0.013915   0.000000
  109        0.039410   0.000000
  110        0.126264   0.000000
  111        0.415150   0.000000
  112        0.498485   0.000000
  113        0.725719   0.000000
  114        0.877148   0.000000
  115        1.053503   0.000000
  116        1.122006   0.000000
  117        1.245806   0.000000
  118        1.796391   0.000000
  119        1.989312   0.000000
  120        2.290616   0.000000
 
  0.3750000E+00  0.0000000E+00  0.0000000E+00  0.3125000E-01
    1      -17.600315   1.000000
    2      -17.171230   1.000000
    3      -16.751745   1.000000
    4      -16.668777   1.000000
    5      -16.621295   1.000000
    6      -16.346063   1.000000
    7      -16.328787   1.000000
    8      -16.253434   1.000000
    9      -16.093675   1.000000
   10      -16.062431   1.000000
   11      -15.918622   1.000000
   12      -15.862685   1.000000
   13      -15.760333   1.000000
   14      -15.703466   1.000000
   15      -15.655501   1.000000
   16      -15.537619   1.000000
   17      -15.435256   1.000000
   18      -15.241223   1.000000
   19       -9.655756   1.000000
   20       -9.225992   1.000000
   21       -9.203215   1.000000
   22       -9.111665   1.000000
   23       -9.053917   1.000000
   24       -8.879388   1.000000
   25       -8.519465   1.000000
   26       -8.481974   1.000000
   27       -8.454991   1.000000
   28       -8.282998   1.000000
   29       -8.220322   1.000000
   30       -8.175641   1.000000
   31       -8.127295   1.000000
   32       -8.097638   1.000000
   33       -7.927206   1.000000
   34       -7.815636   1.000000
   35       -7.723806   1.000000
   36       -7.572551   1.000000
   37       -7.528143   1.000000
   38       -7.441938   1.000000
   39       -7.392468   1.000000
   40       -7.281092   1.000000
   41       -7.218471   1.000000
   42       -7.163373   1.000000
   43       -7.091605   1.000000
   44       -6.981929   1.000000
   45       -6.880659   1.000000
   46       -6.738538   1.000000
   47       -6.678897   1.000000
   48       -6.579122   1.000000
   49       -6.533320   1.000000
   50       -6.475964   1.000000
   51       -6.414728   1.000000
   52       -6.371063   1.000000
   53       -6.341326   1.000000
   54       -6.252831   1.000000
   55       -6.156635   1.000000
   56       -6.086529   1.000000
   57       -6.014569   1.000000
   58       -5.895454   1.000000
   59       -5.882237   1.000000
   60       -5.825918   1.000000
   61       -5.739803   1.000000
   62       -5.662998   1.000000
   63       -5.619763   1.000000
   64       -5.408999   1.000000
   65       -5.253640   1.000000
   66       -4.967593   1.000000
   67       -4.914346   1.000000
   68       -4.820781   1.000000
   69       -4.781773   1.000000
   70       -4.696310   1.000000
   71       -4.564741   1.000000
   72       -4.506825   1.000000
   73       -4.389955   1.000000
   74       -4.220031   1.000000
   75       -4.144183   1.000000
   76       -4.090480   1.000000
   77       -3.963607   0.999998
   78       -3.832692   0.999884
   79       -3.504368   0.912922
   80       -3.261796   0.360821
   81       -3.047797   0.030779
   82       -2.861488   0.000719
   83       -2.667618   0.000003
   84       -2.645833   0.000001
   85       -2.520424   0.000000
   86       -2.497518   0.000000
   87       -2.269999   0.000000
   88       -2.134759   0.000000
   89       -2.083410   0.000000
   90       -1.985995   0.000000
   91       -1.881422   0.000000
   92       -1.517512   0.000000
   93       -1.446268   0.000000
   94       -1.322801   0.000000
   95       -1.219965   0.000000
   96       -1.126638   0.000000
   97       -1.025396   0.000000
   98       -0.982387   0.000000
   99       -0.933776   0.000000
  100       -0.859071   0.000000
  101       -0.805939   0.000000
  102       -0.737458   0.000000
  103       -0.687104   0.000000
  104       -0.587382   0.000000
  105       -0.424755   0.000000
  106       -0.354919   0.000000
  107       -0.187418   0.000000
  108       -0.048321   0.000000
  109       -0.010780   0.000000
  110        0.073306   0.000000
  111        0.403946   0.000000
  112        0.490582   0.000000
  113        0.782116   0.000000
  114        0.930612   0.000000
  115        1.111775   0.000000
  116        1.209004   0.000000
  117        1.349803   0.000000
  118        1.973395   0.000000
  119        2.158905   0.000000
  120        2.444672   0.000000
 
  0.5000000E+00  0.1110223E-15  0.0000000E+00  0.1562500E-01
    1      -17.520940   1.000000
    2      -17.283278   1.000000
    3      -16.766158   1.000000
    4      -16.659580   1.000000
    5      -16.641592   1.000000
    6      -16.348136   1.000000
    7      -16.329779   1.000000
    8      -16.252755   1.000000
    9      -16.039108   1.000000
   10      -16.027032   1.000000
   11      -15.929599   1.000000
   12      -15.860285   1.000000
   13      -15.780132   1.000000
   14      -15.695076   1.000000
   15      -15.626241   1.000000
   16      -15.562185   1.000000
   17      -15.435316   1.000000
   18      -15.244812   1.000000
   19       -9.725690   1.000000
   20       -9.249161   1.000000
   21       -9.234541   1.000000
   22       -9.137070   1.000000
   23       -9.047388   1.000000
   24       -8.889513   1.000000
   25       -8.491752   1.000000
   26       -8.439976   1.000000
   27       -8.412782   1.000000
   28       -8.247032   1.000000
   29       -8.227487   1.000000
   30       -8.165618   1.000000
   31       -8.139626   1.000000
   32       -8.111220   1.000000
   33       -7.973433   1.000000
   34       -7.896107   1.000000
   35       -7.765742   1.000000
   36       -7.545328   1.000000
   37       -7.519268   1.000000
   38       -7.398156   1.000000
   39       -7.339997   1.000000
   40       -7.265631   1.000000
   41       -7.143149   1.000000
   42       -7.101919   1.000000
   43       -7.042309   1.000000
   44       -6.982710   1.000000
   45       -6.895667   1.000000
   46       -6.747421   1.000000
   47       -6.605858   1.000000
   48       -6.568077   1.000000
   49       -6.548851   1.000000
   50       -6.475783   1.000000
   51       -6.398663   1.000000
   52       -6.321643   1.000000
   53       -6.242288   1.000000
   54       -6.223949   1.000000
   55       -6.185659   1.000000
   56       -6.107100   1.000000
   57       -6.071238   1.000000
   58       -6.018095   1.000000
   59       -5.898933   1.000000
   60       -5.862124   1.000000
   61       -5.732410   1.000000
   62       -5.695335   1.000000
   63       -5.623483   1.000000
   64       -5.452295   1.000000
   65       -5.236423   1.000000
   66       -5.138618   1.000000
   67       -4.895504   1.000000
   68       -4.833303   1.000000
   69       -4.774917   1.000000
   70       -4.714880   1.000000
   71       -4.543243   1.000000
   72       -4.484210   1.000000
   73       -4.355717   1.000000
   74       -4.204371   1.000000
   75       -4.164440   1.000000
   76       -4.114035   1.000000
   77       -3.930339   0.999994
   78       -3.807320   0.999768
   79       -3.499373   0.907192
   80       -3.245519   0.318691
   81       -3.034482   0.024787
   82       -2.845411   0.000482
   83       -2.656518   0.000002
   84       -2.649313   0.000001
   85       -2.518740   0.000000
   86       -2.447529   0.000000
   87       -2.264207   0.000000
   88       -2.118307   0.000000
   89       -2.059280   0.000000
   90       -1.924081   0.000000
   91       -1.858750   0.000000
   92       -1.590713   0.000000
   93       -1.443100   0.000000
   94       -1.352356   0.000000
   95       -1.267035   0.000000
   96       -1.136945   0.000000
   97       -1.047813   0.000000
   98       -1.020298   0.000000
   99       -0.967090   0.000000
  100       -0.886127   0.000000
  101       -0.784793   0.000000
  102       -0.777633   0.000000
  103       -0.709345   0.000000
  104       -0.586862   0.000000
  105       -0.490463   0.000000
  106       -0.405401   0.000000
  107       -0.189185   0.000000
  108       -0.063829   0.000000
  109       -0.048440   0.000000
  110        0.061860   0.000000
  111        0.382480   0.000000
  112        0.502934   0.000000
  113        0.801670   0.000000
  114        0.952044   0.000000
  115        1.113740   0.000000
  116        1.254747   0.000000
  117        1.396115   0.000000
  118        2.164658   0.000000
  119        2.236320   0.000000
  120        2.360802   0.000000
 
  0.0000000E+00  0.1250000E+00  0.0000000E+00  0.3125000E-01
    1      -17.773251   1.000000
    2      -16.789918   1.000000
    3      -16.721821   1.000000
    4      -16.576743   1.000000
    5      -16.508632   1.000000
    6      -16.411670   1.000000
    7      -16.369346   1.000000
    8      -16.324730   1.000000
    9      -16.259381   1.000000
   10      -16.105006   1.000000
   11      -15.991685   1.000000
   12      -15.929971   1.000000
   13      -15.881991   1.000000
   14      -15.661161   1.000000
   15      -15.626657   1.000000
   16      -15.469471   1.000000
   17      -15.426367   1.000000
   18      -15.232388   1.000000
   19       -9.313564   1.000000
   20       -9.195522   1.000000
   21       -9.042506   1.000000
   22       -9.022558   1.000000
   23       -8.761517   1.000000
   24       -8.685199   1.000000
   25       -8.641600   1.000000
   26       -8.574779   1.000000
   27       -8.458810   1.000000
   28       -8.444760   1.000000
   29       -8.390465   1.000000
   30       -8.231794   1.000000
   31       -8.153398   1.000000
   32       -8.090804   1.000000
   33       -7.983512   1.000000
   34       -7.877653   1.000000
   35       -7.828405   1.000000
   36       -7.722494   1.000000
   37       -7.679392   1.000000
   38       -7.571628   1.000000
   39       -7.454050   1.000000
   40       -7.370302   1.000000
   41       -7.320901   1.000000
   42       -7.226578   1.000000
   43       -7.145010   1.000000
   44       -7.005523   1.000000
   45       -6.849517   1.000000
   46       -6.793995   1.000000
   47       -6.741153   1.000000
   48       -6.626278   1.000000
   49       -6.544687   1.000000
   50       -6.510998   1.000000
   51       -6.451247   1.000000
   52       -6.367744   1.000000
   53       -6.320733   1.000000
   54       -6.268935   1.000000
   55       -6.238823   1.000000
   56       -6.185710   1.000000
   57       -6.000624   1.000000
   58       -5.936300   1.000000
   59       -5.780100   1.000000
   60       -5.576771   1.000000
   61       -5.445375   1.000000
   62       -5.366173   1.000000
   63       -5.309355   1.000000
   64       -5.248013   1.000000
   65       -5.195131   1.000000
   66       -5.042146   1.000000
   67       -4.954561   1.000000
   68       -4.887075   1.000000
   69       -4.790807   1.000000
   70       -4.698367   1.000000
   71       -4.639388   1.000000
   72       -4.541385   1.000000
   73       -4.456024   1.000000
   74       -4.266433   1.000000
   75       -4.232785   1.000000
   76       -4.044419   1.000000
   77       -3.810768   0.999789
   78       -3.757985   0.999190
   79       -3.463850   0.858245
   80       -3.403897   0.741683
   81       -3.153200   0.130473
   82       -2.975448   0.008632
   83       -2.799329   0.000144
   84       -2.712175   0.000011
   85       -2.600171   0.000000
   86       -2.523696   0.000000
   87       -2.318307   0.000000
   88       -2.237183   0.000000
   89       -2.185580   0.000000
   90       -2.098639   0.000000
   91       -1.940471   0.000000
   92       -1.445272   0.000000
   93       -1.304196   0.000000
   94       -1.256846   0.000000
   95       -1.122163   0.000000
   96       -1.016411   0.000000
   97       -0.949651   0.000000
   98       -0.905999   0.000000
   99       -0.832604   0.000000
  100       -0.672888   0.000000
  101       -0.636115   0.000000
  102       -0.601446   0.000000
  103       -0.553383   0.000000
  104       -0.335743   0.000000
  105       -0.275447   0.000000
  106       -0.190583   0.000000
  107       -0.098689   0.000000
  108        0.011337   0.000000
  109        0.121317   0.000000
  110        0.267312   0.000000
  111        0.359020   0.000000
  112        0.573153   0.000000
  113        0.683445   0.000000
  114        0.759004   0.000000
  115        0.885967   0.000000
  116        1.043292   0.000000
  117        1.192729   0.000000
  118        1.682086   0.000000
  119        1.873951   0.000000
  120        2.189359   0.000000
 
  0.1250000E+00  0.1250000E+00  0.0000000E+00  0.3125000E-01
    1      -17.726288   1.000000
    2      -16.896571   1.000000
    3      -16.786899   1.000000
    4      -16.655317   1.000000
    5      -16.454044   1.000000
    6      -16.412314   1.000000
    7      -16.315409   1.000000
    8      -16.309187   1.000000
    9      -16.244973   1.000000
   10      -16.084789   1.000000
   11      -15.957872   1.000000
   12      -15.888704   1.000000
   13      -15.833524   1.000000
   14      -15.679494   1.000000
   15      -15.641298   1.000000
   16      -15.490202   1.000000
   17      -15.428063   1.000000
   18      -15.237905   1.000000
   19       -9.366594   1.000000
   20       -9.327456   1.000000
   21       -9.141505   1.000000
   22       -9.077200   1.000000
   23       -8.817179   1.000000
   24       -8.701723   1.000000
   25       -8.628584   1.000000
   26       -8.597946   1.000000
   27       -8.431286   1.000000
   28       -8.384280   1.000000
   29       -8.351805   1.000000
   30       -8.234253   1.000000
   31       -8.105663   1.000000
   32       -8.011607   1.000000
   33       -7.936384   1.000000
   34       -7.807192   1.000000
   35       -7.718526   1.000000
   36       -7.691905   1.000000
   37       -7.623400   1.000000
   38       -7.544463   1.000000
   39       -7.476307   1.000000
   40       -7.339456   1.000000
   41       -7.295240   1.000000
   42       -7.186747   1.000000
   43       -7.098054   1.000000
   44       -7.045372   1.000000
   45       -6.897884   1.000000
   46       -6.802157   1.000000
   47       -6.745878   1.000000
   48       -6.663658   1.000000
   49       -6.526092   1.000000
   50       -6.504687   1.000000
   51       -6.449312   1.000000
   52       -6.362159   1.000000
   53       -6.346372   1.000000
   54       -6.305959   1.000000
   55       -6.214509   1.000000
   56       -6.130440   1.000000
   57       -5.994821   1.000000
   58       -5.878639   1.000000
   59       -5.767446   1.000000
   60       -5.658937   1.000000
   61       -5.537105   1.000000
   62       -5.479295   1.000000
   63       -5.415188   1.000000
   64       -5.250564   1.000000
   65       -5.219113   1.000000
   66       -5.056776   1.000000
   67       -5.022894   1.000000
   68       -4.904638   1.000000
   69       -4.717332   1.000000
   70       -4.653987   1.000000
   71       -4.598489   1.000000
   72       -4.500458   1.000000
   73       -4.398412   1.000000
   74       -4.208780   1.000000
   75       -4.190547   1.000000
   76       -4.099285   1.000000
   77       -3.917714   0.999991
   78       -3.822721   0.999847
   79       -3.474086   0.873865
   80       -3.365910   0.648002
   81       -3.114103   0.080665
   82       -2.925975   0.003158
   83       -2.736583   0.000023
   84       -2.686200   0.000005
   85       -2.599269   0.000000
   86       -2.513087   0.000000
   87       -2.304160   0.000000
   88       -2.210906   0.000000
   89       -2.160747   0.000000
   90       -2.069104   0.000000
   91       -1.905420   0.000000
   92       -1.464477   0.000000
   93       -1.334157   0.000000
   94       -1.265047   0.000000
   95       -1.141393   0.000000
   96       -1.055471   0.000000
   97       -0.959295   0.000000
   98       -0.927097   0.000000
   99       -0.868616   0.000000
  100       -0.761803   0.000000
  101       -0.724854   0.000000
  102       -0.669894   0.000000
  103       -0.604143   0.000000
  104       -0.449349   0.000000
  105       -0.318626   0.000000
  106       -0.210790   0.000000
  107       -0.119732   0.000000
  108       -0.031056   0.000000
  109        0.056073   0.000000
  110        0.214141   0.000000
  111        0.366370   0.000000
  112        0.574274   0.000000
  113        0.726773   0.000000
  114        0.902530   0.000000
  115        0.927394   0.000000
  116        1.097529   0.000000
  117        1.190590   0.000000
  118        1.762746   0.000000
  119        1.951395   0.000000
  120        2.258065   0.000000
 
  0.2500000E+00  0.1250000E+00  0.0000000E+00  0.3125000E-01
    1      -17.637175   1.000000
    2      -17.069704   1.000000
    3      -16.875073   1.000000
    4      -16.661270   1.000000
    5      -16.473347   1.000000
    6      -16.368942   1.000000
    7      -16.322621   1.000000
    8      -16.240365   1.000000
    9      -16.207190   1.000000
   10      -16.046783   1.000000
   11      -15.944876   1.000000
   12      -15.867836   1.000000
   13      -15.759956   1.000000
   14      -15.698041   1.000000
   15      -15.647481   1.000000
   16      -15.520374   1.000000
   17      -15.433852   1.000000
   18      -15.243043   1.000000
   19       -9.558243   1.000000
   20       -9.407681   1.000000
   21       -9.240944   1.000000
   22       -9.088037   1.000000
   23       -8.881700   1.000000
   24       -8.723568   1.000000
   25       -8.552200   1.000000
   26       -8.510443   1.000000
   27       -8.429965   1.000000
   28       -8.316466   1.000000
   29       -8.294270   1.000000
   30       -8.215967   1.000000
   31       -8.118636   1.000000
   32       -8.062963   1.000000
   33       -7.937618   1.000000
   34       -7.824838   1.000000
   35       -7.755604   1.000000
   36       -7.629589   1.000000
   37       -7.515850   1.000000
   38       -7.491037   1.000000
   39       -7.377830   1.000000
   40       -7.324025   1.000000
   41       -7.196002   1.000000
   42       -7.116412   1.000000
   43       -7.082964   1.000000
   44       -6.996773   1.000000
   45       -6.867808   1.000000
   46       -6.783105   1.000000
   47       -6.715200   1.000000