       N       E                     dE             d eps       ncg     rms          rms(c)
DAV:   1     0.112358201911E+04    0.11236E+04   -0.35869E+04  8160   0.577E+02
DAV:   2    -0.222360224591E+01   -0.11258E+04   -0.10832E+04 11000   0.173E+02
DAV:   3    -0.199751892758E+03   -0.19753E+03   -0.18935E+03 10920   0.821E+01
DAV:   4    -0.209050962546E+03   -0.92991E+01   -0.89830E+01 11960   0.262E+01
DAV:   5    -0.209401986120E+03   -0.35102E+00   -0.35006E+00 11480   0.382E+00    0.278E+01
DAV:   6    -0.241497244675E+03   -0.32095E+02   -0.11412E+02 12480   0.600E+01    0.607E+01
DAV:   7    -0.196126614932E+03    0.45371E+02   -0.18047E+02 13280   0.151E+02    0.198E+01
DAV:   8    -0.189338523899E+03    0.67881E+01   -0.18383E+01 12080   0.126E+01    0.122E+01
DAV:   9    -0.188072951680E+03    0.12656E+01   -0.30446E+00 13240   0.616E+00    0.886E+00
DAV:  10    -0.186953335329E+03    0.11196E+01   -0.15865E+00 13520   0.719E+00    0.207E+00
DAV:  11    -0.187074883117E+03   -0.12155E+00   -0.61077E-01 13600   0.349E+00    0.440E+00
DAV:  12    -0.186954115742E+03    0.12077E+00   -0.65298E-01 12880   0.431E+00    0.293E+00
DAV:  13    -0.186877005756E+03    0.77110E-01   -0.19550E-01 12760   0.233E+00    0.134E+00
DAV:  14    -0.186856408368E+03    0.20597E-01   -0.77813E-02 12240   0.131E+00    0.921E-01
DAV:  15    -0.186853086285E+03    0.33221E-02   -0.25258E-02 12480   0.803E-01    0.727E-01
DAV:  16    -0.186848596418E+03    0.44899E-02   -0.10712E-02 13040   0.449E-01    0.299E-01
DAV:  17    -0.186847447034E+03    0.11494E-02   -0.55403E-03 12720   0.336E-01    0.237E-01
DAV:  18    -0.186846842645E+03    0.60439E-03   -0.18030E-03 12520   0.201E-01    0.779E-02
DAV:  19    -0.186847020135E+03   -0.17749E-03   -0.55173E-04  8760   0.655E-02    0.787E-02
DAV:  20    -0.186847714365E+03   -0.69423E-03   -0.72238E-04  9280   0.836E-02    0.576E-02
DAV:  21    -0.186848705079E+03   -0.99071E-03   -0.26315E-04  8120   0.491E-02    0.322E-02
DAV:  22    -0.186849482967E+03   -0.77789E-03   -0.11530E-04  6760   0.367E-02    0.245E-02
DAV:  23    -0.186850563607E+03   -0.10806E-02   -0.96217E-05  7480   0.236E-02    0.103E-02
DAV:  24    -0.186851188200E+03   -0.62459E-03   -0.24841E-05  6320   0.152E-02    0.664E-03
DAV:  25    -0.186851570938E+03   -0.38274E-03   -0.15371E-05  5920   0.113E-02    0.252E-03
DAV:  26    -0.186851773739E+03   -0.20280E-03   -0.74718E-06  6880   0.622E-03    0.142E-03
DAV:  27    -0.186851857880E+03   -0.84141E-04   -0.36890E-06  6880   0.430E-03
   1 F= -.18685186E+03 E0= -.18667875E+03  d E =-.186852E+03
       N       E                     dE             d eps       ncg     rms          rms(c)
DAV:   1    -0.187531951442E+03   -0.68018E+00   -0.27385E+02  8160   0.351E+01    0.466E+00
DAV:   2    -0.189600930701E+03   -0.20690E+01   -0.20308E+01 12200   0.156E+01    0.104E+01
DAV:   3    -0.189338540022E+03    0.26239E+00   -0.49718E+00 12440   0.127E+01    0.623E+00
DAV:   4    -0.188803521579E+03    0.53502E+00   -0.63390E-01 12520   0.444E+00    0.240E+00
DAV:   5    -0.188904921275E+03   -0.10140E+00   -0.49055E-01 11200   0.389E+00    0.540E+00
DAV:   6    -0.188771036207E+03    0.13389E+00   -0.76923E-01 12680   0.407E+00    0.237E+00
DAV:   7    -0.188729926985E+03    0.41109E-01   -0.23645E-01 11840   0.208E+00    0.206E+00
DAV:   8    -0.188721062873E+03    0.88641E-02   -0.16123E-01 12160   0.214E+00    0.202E+00
DAV:   9    -0.188690134038E+03    0.30929E-01   -0.73358E-02 12600   0.126E+00    0.595E-01
DAV:  10    -0.188687531664E+03    0.26024E-02   -0.72093E-03 10800   0.292E-01    0.309E-01
DAV:  11    -0.188686765431E+03    0.76623E-03   -0.27879E-03 13160   0.227E-01    0.117E-01
DAV:  12    -0.188686753205E+03    0.12227E-04   -0.10672E-03 11840   0.103E-01    0.905E-02
DAV:  13    -0.188686780921E+03   -0.27716E-04   -0.33006E-04  8560   0.608E-02
   2 F= -.18868678E+03 E0= -.18854476E+03  d E =-.183492E+01
       N       E                     dE             d eps       ncg     rms          rms(c)
DAV:   1    -0.190621411800E+03   -0.19347E+01   -0.31436E+01  8960   0.143E+01    0.444E+00
DAV:   2    -0.190552121482E+03    0.69290E-01   -0.27786E+00 11560   0.913E+00    0.722E+00
DAV:   3    -0.190117717827E+03    0.43440E+00   -0.15137E+00 12280   0.841E+00    0.435E+00
DAV:   4    -0.189889707961E+03    0.22801E+00   -0.71846E-01 12680   0.435E+00    0.247E+00
DAV:   5    -0.189867050958E+03    0.22657E-01   -0.37218E-01 12240   0.306E+00    0.288E+00
DAV:   6    -0.189792311412E+03    0.74740E-01   -0.15813E-01 12560   0.245E+00    0.707E-01
DAV:   7    -0.189787449688E+03    0.48617E-02   -0.15029E-02 11640   0.600E-01    0.421E-01
DAV:   8    -0.189787203628E+03    0.24606E-03   -0.66642E-03 12720   0.481E-01    0.358E-01
DAV:   9    -0.189786247200E+03    0.95643E-03   -0.23407E-03 11400   0.247E-01    0.121E-01
DAV:  10    -0.189786681007E+03   -0.43381E-03   -0.96727E-04 10480   0.107E-01    0.127E-01
DAV:  11    -0.189786382077E+03    0.29893E-03   -0.49269E-04  9040   0.775E-02    0.203E-02
DAV:  12    -0.189786402390E+03   -0.20313E-04   -0.65941E-05  6920   0.265E-02
   3 F= -.18978640E+03 E0= -.18966599E+03  d E =-.109962E+01
       N       E                     dE             d eps       ncg     rms          rms(c)
DAV:   1    -0.191399402660E+03   -0.16130E+01   -0.80894E+01  8160   0.205E+01    0.463E+00
DAV:   2    -0.191136379261E+03    0.26302E+00   -0.53839E+00 13280   0.676E+00    0.378E+00
DAV:   3    -0.191450198811E+03   -0.31382E+00   -0.15350E+00 12120   0.863E+00    0.810E+00
DAV:   4    -0.191004638690E+03    0.44556E+00   -0.21473E+00 11240   0.930E+00    0.370E+00
DAV:   5    -0.190994856978E+03    0.97817E-02   -0.73544E-01 11920   0.542E+00    0.368E+00
DAV:   6    -0.190814909907E+03    0.17995E+00   -0.23387E-01 12120   0.326E+00    0.724E-01
DAV:   7    -0.190814750772E+03    0.15913E-03   -0.36652E-02 12440   0.840E-01    0.659E-01
DAV:   8    -0.190812954241E+03    0.17965E-02   -0.18236E-02 11760   0.854E-01    0.619E-01
DAV:   9    -0.190809309540E+03    0.36447E-02   -0.65083E-03 11440   0.519E-01    0.179E-01
DAV:  10    -0.190809608740E+03   -0.29920E-03   -0.16326E-03 11160   0.153E-01    0.124E-01
DAV:  11    -0.190809391425E+03    0.21732E-03   -0.66821E-04 10600   0.100E-01    0.433E-02
DAV:  12    -0.190809399096E+03   -0.76709E-05   -0.96922E-05  7240   0.345E-02
   4 F= -.19080940E+03 E0= -.19070614E+03  d E =-.102300E+01
       N       E                     dE             d eps       ncg     rms          rms(c)
DAV:   1    -0.192260019471E+03   -0.14506E+01   -0.18550E+02  8160   0.303E+01    0.591E+00
DAV:   2    -0.192011211394E+03    0.24881E+00   -0.10212E+01 11080   0.790E+00    0.409E+00
DAV:   3    -0.192461126693E+03   -0.44992E+00   -0.32340E+00 12080   0.113E+01    0.737E+00
DAV:   4    -0.191700934723E+03    0.76019E+00   -0.11258E+00 12240   0.841E+00    0.287E+00
DAV:   5    -0.191751048012E+03   -0.50113E-01   -0.61250E-01 11880   0.554E+00    0.487E+00
DAV:   6    -0.191549215237E+03    0.20183E+00   -0.59776E-01 12200   0.499E+00    0.109E+00
DAV:   7    -0.191542085604E+03    0.71296E-02   -0.59555E-02 11840   0.124E+00    0.759E-01
DAV:   8    -0.191539296986E+03    0.27886E-02   -0.29971E-02 12280   0.107E+00    0.694E-01
DAV:   9    -0.191534647411E+03    0.46496E-02   -0.10987E-02 11520   0.635E-01    0.175E-01
DAV:  10    -0.191534655429E+03   -0.80181E-05   -0.25233E-03 11440   0.164E-01    0.811E-02
DAV:  11    -0.191534674924E+03   -0.19495E-04   -0.40275E-04  9040   0.878E-02
   5 F= -.19153467E+03 E0= -.19143695E+03  d E =-.725276E+00
       N       E                     dE             d eps       ncg     rms          rms(c)
DAV:   1    -0.191602886076E+03   -0.68231E-01   -0.58680E+00  8160   0.513E+00    0.781E-01
DAV:   2    -0.191701079127E+03   -0.98193E-01   -0.36998E-01 12720   0.361E+00    0.283E+00
DAV:   3    -0.191615894856E+03    0.85184E-01   -0.14797E-01 12440   0.286E+00    0.425E-01
DAV:   4    -0.191620077404E+03   -0.41825E-02   -0.21313E-02 11600   0.897E-01    0.838E-01
DAV:   5    -0.191613464988E+03    0.66124E-02   -0.14792E-02 11640   0.777E-01    0.208E-01
DAV:   6    -0.191614801176E+03   -0.13362E-02   -0.57046E-03 11520   0.417E-01    0.419E-01
DAV:   7    -0.191613290792E+03    0.15104E-02   -0.50153E-03 11320   0.443E-01    0.163E-01
DAV:   8    -0.191612981207E+03    0.30959E-03   -0.73165E-04  9640   0.138E-01    0.378E-02
DAV:   9    -0.191612994963E+03   -0.13756E-04   -0.10701E-04  6280   0.382E-02
   6 F= -.19161299E+03 E0= -.19151309E+03  d E =-.783200E-01
       N       E                     dE             d eps       ncg     rms          rms(c)
DAV:   1    -0.191681603254E+03   -0.68622E-01   -0.65592E+00  8160   0.539E+00    0.704E-01
DAV:   2    -0.191750864395E+03   -0.69261E-01   -0.25414E-01 13360   0.278E+00    0.241E+00
DAV:   3    -0.191689554045E+03    0.61310E-01   -0.12066E-01 12440   0.253E+00    0.510E-01
DAV:   4    -0.191692920355E+03   -0.33663E-02   -0.22962E-02 11520   0.903E-01    0.802E-01
DAV:   5    -0.191686747227E+03    0.61731E-02   -0.14051E-02 11680   0.741E-01    0.194E-01
DAV:   6    -0.191687077783E+03   -0.33056E-03   -0.31323E-03 11560   0.278E-01    0.252E-01
DAV:   7    -0.191686910999E+03    0.16678E-03   -0.35641E-03 11400   0.380E-01    0.238E-01
DAV:   8    -0.191686365099E+03    0.54590E-03   -0.12611E-03 10040   0.212E-01    0.463E-02
DAV:   9    -0.191686349324E+03    0.15775E-04   -0.10738E-04  6000   0.431E-02
   7 F= -.19168635E+03 E0= -.19158577E+03  d E =-.733544E-01
       N       E                     dE             d eps       ncg     rms          rms(c)
DAV:   1    -0.191727320873E+03   -0.40956E-01   -0.18556E+00  8160   0.292E+00    0.410E-01
DAV:   2    -0.191749721876E+03   -0.22401E-01   -0.88582E-02 13240   0.174E+00    0.141E+00
DAV:   3    -0.191729551917E+03    0.20170E-01   -0.38061E-02 12280   0.140E+00    0.294E-01
DAV:   4    -0.191731126597E+03   -0.15747E-02   -0.94019E-03 11400   0.586E-01    0.509E-01
DAV:   5    -0.191728502331E+03    0.26243E-02   -0.53986E-03 11280   0.459E-01    0.101E-01
DAV:   6    -0.191728575677E+03   -0.73346E-04   -0.10877E-03 10120   0.122E-01    0.937E-02
DAV:   7    -0.191728472329E+03    0.10335E-03   -0.56285E-04  9800   0.133E-01    0.937E-02
DAV:   8    -0.191728394798E+03    0.77531E-04   -0.22108E-04  6360   0.101E-01
   8 F= -.19172839E+03 E0= -.19162792E+03  d E =-.420455E-01
       N       E                     dE             d eps       ncg     rms          rms(c)
DAV:   1    -0.191785112268E+03   -0.56640E-01   -0.34182E+00  8160   0.397E+00    0.506E-01
DAV:   2    -0.191814795307E+03   -0.29683E-01   -0.13732E-01 13400   0.198E+00    0.163E+00
DAV:   3    -0.191790066025E+03    0.24729E-01   -0.56193E-02 12400   0.164E+00    0.431E-01
DAV:   4    -0.191792076245E+03   -0.20102E-02   -0.15110E-02 11280   0.776E-01    0.626E-01
DAV:   5    -0.191787854020E+03    0.42222E-02   -0.77684E-03 11160   0.593E-01    0.130E-01
DAV:   6    -0.191787939790E+03   -0.85770E-04   -0.17233E-03 11000   0.159E-01    0.118E-01
DAV:   7    -0.191787794559E+03    0.14523E-03   -0.85659E-04 11560   0.174E-01    0.123E-01
DAV:   8    -0.191787655854E+03    0.13870E-03   -0.35395E-04  7840   0.124E-01    0.345E-02
DAV:   9    -0.191787649293E+03    0.65614E-05   -0.45509E-05  6040   0.341E-02
   9 F= -.19178765E+03 E0= -.19168859E+03  d E =-.592545E-01
       N       E                     dE             d eps       ncg     rms          rms(c)
DAV:   1    -0.191775523446E+03    0.12132E-01   -0.12855E-01  8160   0.776E-01    0.945E-02
DAV:   2    -0.191776131421E+03   -0.60797E-03   -0.44012E-03 12680   0.288E-01    0.235E-01
DAV:   3    -0.191775649774E+03    0.48165E-03   -0.15339E-03 10240   0.252E-01    0.900E-02
DAV:   4    -0.191775673954E+03   -0.24180E-04   -0.42480E-04  8000   0.130E-01
  10 F= -.19177567E+03 E0= -.19167571E+03  d E =0.119753E-01
       N       E                     dE             d eps       ncg     rms          rms(c)
DAV:   1    -0.191760520035E+03    0.15130E-01   -0.29051E-01  8160   0.117E+00    0.156E-01
DAV:   2    -0.191760912364E+03   -0.39233E-03   -0.82743E-03 11520   0.331E-01    0.203E-01
DAV:   3    -0.191760880440E+03    0.31924E-04   -0.25934E-03 11800   0.344E-01    0.209E-01
DAV:   4    -0.191760553356E+03    0.32708E-03   -0.15402E-03 10280   0.235E-01    0.144E-01
DAV:   5    -0.191760515445E+03    0.37910E-04   -0.98452E-04  9200   0.207E-01
  11 F= -.19176052E+03 E0= -.19165936E+03  d E =0.151585E-01
       N       E                     dE             d eps       ncg     rms          rms(c)
DAV:   1    -0.191704374011E+03    0.56179E-01   -0.94011E+00  8160   0.670E+00    0.825E-01
DAV:   2    -0.191733802500E+03   -0.29428E-01   -0.28657E-01 12280   0.207E+00    0.172E+00
DAV:   3    -0.191716361002E+03    0.17441E-01   -0.12745E-01 11960   0.202E+00    0.947E-01
DAV:   4    -0.191715595286E+03    0.76572E-03   -0.43834E-02 12200   0.125E+00    0.968E-01
DAV:   5    -0.191705978395E+03    0.96169E-02   -0.22644E-02 10960   0.108E+00    0.345E-01
DAV:   6    -0.191704824718E+03    0.11537E-02   -0.59158E-03 11840   0.353E-01    0.140E-01
DAV:   7    -0.191704640768E+03    0.18395E-03   -0.14941E-03 12960   0.204E-01    0.157E-01
DAV:   8    -0.191704441603E+03    0.19917E-03   -0.75749E-04  8920   0.173E-01    0.733E-02
DAV:   9    -0.191704388928E+03    0.52675E-04   -0.14942E-04  6120   0.694E-02
  12 F= -.19170439E+03 E0= -.19160030E+03  d E =0.561265E-01
       N       E                     dE             d eps       ncg     rms          rms(c)
DAV:   1    -0.191789237358E+03   -0.84796E-01   -0.11822E+01  8160   0.742E+00    0.906E-01
DAV:   2    -0.191848908872E+03   -0.59672E-01   -0.39366E-01 12360   0.252E+00    0.255E+00
DAV:   3    -0.191804798841E+03    0.44110E-01   -0.21406E-01 12040   0.263E+00    0.983E-01
DAV:   4    -0.191802705157E+03    0.20937E-02   -0.37441E-02 11480   0.116E+00    0.905E-01
DAV:   5    -0.191793690949E+03    0.90142E-02   -0.18757E-02 11600   0.105E+00    0.368E-01
DAV:   6    -0.191792695641E+03    0.99531E-03   -0.72076E-03 12200   0.409E-01    0.227E-01
DAV:   7    -0.191793020230E+03   -0.32459E-03   -0.51963E-03 12080   0.443E-01    0.349E-01
DAV:   8    -0.191791892450E+03    0.11278E-02   -0.26202E-03 10160   0.333E-01    0.714E-02
DAV:   9    -0.191791844149E+03    0.48301E-04   -0.18814E-04  5840   0.649E-02
  13 F= -.19179184E+03 E0= -.19169050E+03  d E =-.874552E-01
       N       E                     dE             d eps       ncg     rms          rms(c)
DAV:   1    -0.191803305802E+03   -0.11413E-01   -0.84100E-01  8160   0.199E+00    0.281E-01
DAV:   2    -0.191810756916E+03   -0.74511E-02   -0.33944E-02 12360   0.103E+00    0.830E-01
DAV:   3    -0.191803786039E+03    0.69709E-02   -0.14724E-02 11880   0.857E-01    0.210E-01
DAV:   4    -0.191804781585E+03   -0.99555E-03   -0.54994E-03 11360   0.430E-01    0.399E-01
DAV:   5    -0.191803247674E+03    0.15339E-02   -0.38073E-03 10600   0.371E-01    0.923E-02
DAV:   6    -0.191803243655E+03    0.40184E-05   -0.67083E-04  9800   0.103E-01
  14 F= -.19180324E+03 E0= -.19170101E+03  d E =-.113995E-01
       N       E                     dE             d eps       ncg     rms          rms(c)
DAV:   1    -0.191836748274E+03   -0.33501E-01   -0.23486E+00  8160   0.330E+00    0.398E-01
DAV:   2    -0.191850863943E+03   -0.14116E-01   -0.85053E-02 12400   0.130E+00    0.111E+00
DAV:   3    -0.191840426917E+03    0.10437E-01   -0.35025E-02 12120   0.116E+00    0.386E-01
DAV:   4    -0.191841560335E+03   -0.11334E-02   -0.11057E-02 11360   0.635E-01    0.513E-01
DAV:   5    -0.191838701990E+03    0.28583E-02   -0.59282E-03 11000   0.512E-01    0.121E-01
DAV:   6    -0.191838827761E+03   -0.12577E-03   -0.14574E-03 10440   0.166E-01    0.131E-01
DAV:   7    -0.191838750560E+03    0.77201E-04   -0.11327E-03 10560   0.212E-01    0.145E-01
DAV:   8    -0.191838536971E+03    0.21359E-03   -0.39990E-04  7640   0.129E-01    0.215E-02
DAV:   9    -0.191838541050E+03   -0.40790E-05   -0.32471E-05  5880   0.224E-02
  15 F= -.19183854E+03 E0= -.19173658E+03  d E =-.352974E-01
       N       E                     dE             d eps       ncg     rms          rms(c)
DAV:   1    -0.191877007346E+03   -0.38470E-01   -0.21947E+00  8160   0.319E+00    0.390E-01
DAV:   2    -0.191891656091E+03   -0.14649E-01   -0.86771E-02 12320   0.135E+00    0.115E+00
DAV:   3    -0.191880453909E+03    0.11202E-01   -0.35216E-02 12400   0.116E+00    0.354E-01
DAV:   4    -0.191881385742E+03   -0.93183E-03   -0.94159E-03 11480   0.603E-01    0.473E-01
DAV:   5    -0.191878946552E+03    0.24392E-02   -0.52268E-03 10480   0.500E-01    0.137E-01
DAV:   6    -0.191879373909E+03   -0.42736E-03   -0.21079E-03 11600   0.267E-01    0.244E-01
DAV:   7    -0.191878887704E+03    0.48621E-03   -0.18369E-03  9920   0.289E-01    0.114E-01
DAV:   8    -0.191878729177E+03    0.15853E-03   -0.32489E-04  7200   0.998E-02    0.210E-02
DAV:   9    -0.191878726210E+03    0.29663E-05   -0.43900E-05  7480   0.240E-02
  16 F= -.19187873E+03 E0= -.19177793E+03  d E =-.401852E-01
       N       E                     dE             d eps       ncg     rms          rms(c)
DAV:   1    -0.191949575804E+03   -0.70847E-01   -0.76115E+00  8160   0.600E+00    0.768E-01
DAV:   2    -0.192017037626E+03   -0.67462E-01   -0.33860E-01 11680   0.264E+00    0.278E+00
DAV:   3    -0.191960785065E+03    0.56253E-01   -0.17738E-01 12360   0.246E+00    0.617E-01
DAV:   4    -0.191961731992E+03   -0.94693E-03   -0.18396E-02 11400   0.913E-01    0.798E-01
DAV:   5    -0.191955679935E+03    0.60521E-02   -0.17194E-02 12200   0.930E-01    0.319E-01
DAV:   6    -0.191956574406E+03   -0.89447E-03   -0.66296E-03 11080   0.535E-01    0.408E-01
DAV:   7    -0.191954933750E+03    0.16407E-02   -0.41092E-03 10640   0.510E-01    0.183E-01
DAV:   8    -0.191954454324E+03    0.47943E-03   -0.88216E-04 10160   0.191E-01    0.395E-02
DAV:   9    -0.191954439788E+03    0.14536E-04   -0.12347E-04  7280   0.431E-02
  17 F= -.19195444E+03 E0= -.19185685E+03  d E =-.757136E-01
       N       E                     dE             d eps       ncg     rms          rms(c)
DAV:   1    -0.192034457618E+03   -0.80003E-01   -0.11519E+01  8160   0.737E+00    0.922E-01
DAV:   2    -0.192119391347E+03   -0.84934E-01   -0.47703E-01 12080   0.308E+00    0.296E+00
DAV:   3    -0.192054951284E+03    0.64440E-01   -0.20605E-01 12360   0.285E+00    0.823E-01
DAV:   4    -0.192055280594E+03   -0.32931E-03   -0.27272E-02 11400   0.124E+00    0.936E-01
DAV:   5    -0.192045400111E+03    0.98805E-02   -0.21135E-02 12200   0.114E+00    0.338E-01
DAV:   6    -0.192046385402E+03   -0.98529E-03   -0.82044E-03 11960   0.605E-01    0.463E-01
DAV:   7    -0.192044898840E+03    0.14866E-02   -0.67952E-03 11960   0.652E-01    0.293E-01
DAV:   8    -0.192043790441E+03    0.11084E-02   -0.19124E-03 10560   0.299E-01    0.528E-02
DAV:   9    -0.192043767086E+03    0.23356E-04   -0.23383E-04  8000   0.578E-02
  18 F= -.19204377E+03 E0= -.19194928E+03  d E =-.893273E-01
       N       E                     dE             d eps       ncg     rms          rms(c)
DAV:   1    -0.192059045848E+03   -0.15255E-01   -0.24383E+00  8160   0.331E+00    0.363E-01
DAV:   2    -0.192069707100E+03   -0.10661E-01   -0.89429E-02 12200   0.121E+00    0.703E-01
DAV:   3    -0.192064814957E+03    0.48921E-02   -0.16755E-02 11880   0.961E-01    0.356E-01
DAV:   4    -0.192064247228E+03    0.56773E-03   -0.52731E-03 12120   0.480E-01    0.319E-01
DAV:   5    -0.192063614315E+03    0.63291E-03   -0.29840E-03 11240   0.399E-01    0.215E-01
DAV:   6    -0.192063329808E+03    0.28451E-03   -0.15895E-03 10640   0.257E-01    0.135E-01
DAV:   7    -0.192063565285E+03   -0.23548E-03   -0.15433E-03 10800   0.279E-01    0.200E-01
DAV:   8    -0.192063129494E+03    0.43579E-03   -0.70208E-04  8840   0.194E-01    0.278E-02
DAV:   9    -0.192063131260E+03   -0.17660E-05   -0.51581E-05  5760   0.301E-02
  19 F= -.19206313E+03 E0= -.19196872E+03  d E =-.193642E-01
       N       E                     dE             d eps       ncg     rms          rms(c)
DAV:   1    -0.192084193420E+03   -0.21064E-01   -0.15401E+00  8160   0.273E+00    0.362E-01
DAV:   2    -0.192093913095E+03   -0.97197E-02   -0.47732E-02 12360   0.109E+00    0.107E+00
DAV:   3    -0.192084541033E+03    0.93721E-02   -0.23584E-02 12480   0.104E+00    0.293E-01
DAV:   4    -0.192084504503E+03    0.36530E-04   -0.34749E-03 11400   0.396E-01    0.323E-01
DAV:   5    -0.192083691457E+03    0.81305E-03   -0.36374E-03 12240   0.482E-01    0.213E-01
DAV:   6    -0.192083294993E+03    0.39646E-03   -0.13771E-03  9720   0.241E-01    0.955E-02
DAV:   7    -0.192083247720E+03    0.47273E-04   -0.47926E-04  9240   0.164E-01
  20 F= -.19208325E+03 E0= -.19198916E+03  d E =-.201165E-01
       N       E                     dE             d eps       ncg     rms          rms(c)
DAV:   1    -0.192115332800E+03   -0.32038E-01   -0.26767E+00  8160   0.352E+00    0.440E-01
DAV:   2    -0.192129321672E+03   -0.13989E-01   -0.10225E-01 11520   0.131E+00    0.105E+00
DAV:   3    -0.192120575619E+03    0.87461E-02   -0.31459E-02 12360   0.124E+00    0.451E-01
DAV:   4    -0.192119890552E+03    0.68507E-03   -0.60819E-03 11680   0.556E-01    0.396E-01
DAV:   5    -0.192118103583E+03    0.17870E-02   -0.35925E-03 12480   0.502E-01    0.154E-01
DAV:   6    -0.192118032373E+03    0.71211E-04   -0.13227E-03 12000   0.198E-01    0.100E-01
DAV:   7    -0.192117882703E+03    0.14967E-03   -0.60556E-04 10400   0.134E-01    0.759E-02
DAV:   8    -0.192117830944E+03    0.51758E-04   -0.15390E-04  6960   0.104E-01
  21 F= -.19211783E+03 E0= -.19202460E+03  d E =-.345832E-01
       N       E                     dE             d eps       ncg     rms          rms(c)
DAV:   1    -0.192149171288E+03   -0.31289E-01   -0.45247E+00  8160   0.452E+00    0.498E-01
DAV:   2    -0.192167797546E+03   -0.18626E-01   -0.16209E-01 11480   0.153E+00    0.982E-01
DAV:   3    -0.192160472717E+03    0.73248E-02   -0.35402E-02 12360   0.139E+00    0.577E-01
DAV:   4    -0.192158754461E+03    0.17183E-02   -0.87082E-03 11400   0.691E-01    0.440E-01
DAV:   5    -0.192156879867E+03    0.18746E-02   -0.42360E-03 12080   0.551E-01    0.204E-01
DAV:   6    -0.192156684225E+03    0.19564E-03   -0.19500E-03 12680   0.252E-01    0.120E-01
DAV:   7    -0.192156610422E+03    0.73803E-04   -0.10133E-03 10120   0.197E-01    0.129E-01
DAV:   8    -0.192156432853E+03    0.17757E-03   -0.36393E-04  8880   0.156E-01    0.383E-02
DAV:   9    -0.192156421538E+03    0.11316E-04   -0.55349E-05  5840   0.439E-02
  22 F= -.19215642E+03 E0= -.19206399E+03  d E =-.385906E-01
       N       E                     dE             d eps       ncg     rms          rms(c)
DAV:   1    -0.192156509923E+03   -0.77070E-04   -0.12439E-01  8160   0.780E-01    0.124E-01
DAV:   2    -0.192156754789E+03   -0.24487E-03   -0.52226E-03 11560   0.310E-01    0.177E-01
DAV:   3    -0.192156510920E+03    0.24387E-03   -0.12716E-03 10320   0.287E-01    0.114E-01
DAV:   4    -0.192156347965E+03    0.16295E-03   -0.49923E-04  8480   0.161E-01    0.761E-02
DAV:   5    -0.192156377637E+03   -0.29672E-04   -0.36414E-04  7720   0.142E-01
  23 F= -.19215638E+03 E0= -.19206325E+03  d E =0.439007E-04
       N       E                     dE             d eps       ncg     rms          rms(c)
DAV:   1    -0.192179907781E+03   -0.23560E-01   -0.15203E+00  8160   0.267E+00    0.333E-01
DAV:   2    -0.192182908292E+03   -0.30005E-02   -0.48469E-02 11920   0.676E-01    0.419E-01
DAV:   3    -0.192183651902E+03   -0.74361E-03   -0.11122E-02 12360   0.798E-01    0.517E-01
DAV:   4    -0.192180911015E+03    0.27409E-02   -0.42007E-03 12360   0.479E-01    0.153E-01
DAV:   5    -0.192180972764E+03   -0.61748E-04   -0.16647E-03 10680   0.295E-01    0.195E-01
DAV:   6    -0.192180687965E+03    0.28480E-03   -0.11570E-03 10640   0.282E-01    0.105E-01
DAV:   7    -0.192180551272E+03    0.13669E-03   -0.40551E-04  8960   0.140E-01    0.584E-02
DAV:   8    -0.192180520389E+03    0.30883E-04   -0.10134E-04  6160   0.863E-02
  24 F= -.19218052E+03 E0= -.19208808E+03  d E =-.241428E-01
       N       E                     dE             d eps       ncg     rms          rms(c)
DAV:   1    -0.192198342319E+03   -0.17791E-01   -0.98442E-01  8160   0.212E+00    0.250E-01
DAV:   2    -0.192201733650E+03   -0.33913E-02   -0.34351E-02 11440   0.744E-01    0.410E-01
DAV:   3    -0.192200397690E+03    0.13360E-02   -0.63782E-03 12440   0.641E-01    0.252E-01
DAV:   4    -0.192200089471E+03    0.30822E-03   -0.20367E-03 11360   0.345E-01    0.227E-01
DAV:   5    -0.192199716469E+03    0.37300E-03   -0.11596E-03 10120   0.282E-01    0.123E-01
DAV:   6    -0.192199615876E+03    0.10059E-03   -0.53769E-04 10160   0.132E-01    0.508E-02
DAV:   7    -0.192199573957E+03    0.41919E-04   -0.15031E-04  6720   0.651E-02
  25 F= -.19219957E+03 E0= -.19210765E+03  d E =-.190536E-01
       N       E                     dE             d eps       ncg     rms          rms(c)
DAV:   1    -0.192212784523E+03   -0.13169E-01   -0.37994E-01  8160   0.133E+00    0.165E-01
DAV:   2    -0.192213486067E+03   -0.70154E-03   -0.10324E-02 11040   0.335E-01    0.214E-01
DAV:   3    -0.192213512190E+03   -0.26123E-04   -0.21527E-03 12360   0.379E-01    0.229E-01
DAV:   4    -0.192213075767E+03    0.43642E-03   -0.95297E-04 10000   0.239E-01    0.111E-01
DAV:   5    -0.192213021418E+03    0.54349E-04   -0.48968E-04  8520   0.191E-01
  26 F= -.19221302E+03 E0= -.19212147E+03  d E =-.134475E-01
       N       E                     dE             d eps       ncg     rms          rms(c)
DAV:   1    -0.192190815134E+03    0.22261E-01   -0.11615E+00  8160   0.233E+00    0.297E-01
DAV:   2    -0.192195819187E+03   -0.50041E-02   -0.33056E-02 11440   0.817E-01    0.693E-01
DAV:   3    -0.192191892569E+03    0.39266E-02   -0.11345E-02 12000   0.803E-01    0.282E-01
DAV:   4    -0.192191420938E+03    0.47163E-03   -0.22586E-03 11200   0.307E-01    0.198E-01
DAV:   5    -0.192191267704E+03    0.15323E-03   -0.19044E-03 10720   0.355E-01    0.197E-01
DAV:   6    -0.192190942343E+03    0.32536E-03   -0.10084E-03 10160   0.244E-01    0.799E-02
DAV:   7    -0.192190836733E+03    0.10561E-03   -0.22636E-04  7280   0.819E-02    0.258E-02
DAV:   8    -0.192190834590E+03    0.21429E-05   -0.48383E-05  8000   0.524E-02
  27 F= -.19219083E+03 E0= -.19209847E+03  d E =0.221868E-01
       N       E                     dE             d eps       ncg     rms          rms(c)
DAV:   1    -0.192169287481E+03    0.21549E-01   -0.24967E+00  8160   0.342E+00    0.431E-01
DAV:   2    -0.192175927083E+03   -0.66396E-02   -0.64057E-02 11560   0.100E+00    0.826E-01
DAV:   3    -0.192171929670E+03    0.39974E-02   -0.22187E-02 12320   0.105E+00    0.480E-01
DAV:   4    -0.192169535383E+03    0.23943E-02   -0.41898E-03 11440   0.402E-01    0.159E-01
DAV:   5    -0.192169770558E+03   -0.23517E-03   -0.29874E-03 11520   0.326E-01    0.240E-01
DAV:   6    -0.192169424005E+03    0.34655E-03   -0.20058E-03 10520   0.381E-01    0.175E-01
DAV:   7    -0.192169021660E+03    0.40235E-03   -0.59552E-04  9200   0.178E-01    0.313E-02
DAV:   8    -0.192169020762E+03    0.89766E-06   -0.68446E-05  6440   0.467E-02
  28 F= -.19216902E+03 E0= -.19207579E+03  d E =0.218138E-01
       N       E                     dE             d eps       ncg     rms          rms(c)
DAV:   1    -0.192169676977E+03   -0.65532E-03   -0.12354E+00  8160   0.240E+00    0.292E-01
DAV:   2    -0.192173346963E+03   -0.36700E-02   -0.36124E-02 12160   0.773E-01    0.487E-01
DAV:   3    -0.192171478449E+03    0.18685E-02   -0.93423E-03 12520   0.730E-01    0.307E-01
DAV:   4    -0.192171353660E+03    0.12479E-03   -0.35053E-03 11560   0.418E-01    0.308E-01
DAV:   5    -0.192170521615E+03    0.83205E-03   -0.22197E-03 10280   0.368E-01    0.143E-01
DAV:   6    -0.192170394663E+03    0.12695E-03   -0.90554E-04 10520   0.170E-01    0.731E-02
DAV:   7    -0.192170349531E+03    0.45132E-04   -0.33998E-04  7920   0.122E-01
  29 F= -.19217035E+03 E0= -.19207725E+03  d E =-.132877E-02
       N       E                     dE             d eps       ncg     rms          rms(c)
DAV:   1    -0.192179803454E+03   -0.94088E-02   -0.67471E-01  8160   0.179E+00    0.228E-01
DAV:   2    -0.192181670631E+03   -0.18672E-02   -0.26103E-02 11560   0.543E-01    0.335E-01
DAV:   3    -0.192181582678E+03    0.87954E-04   -0.57815E-03 12320   0.549E-01    0.326E-01
DAV:   4    -0.192180450633E+03    0.11320E-02   -0.19998E-03 10320   0.307E-01    0.101E-01
DAV:   5    -0.192180484516E+03   -0.33884E-04   -0.82184E-04  9960   0.200E-01
  30 F= -.19218048E+03 E0= -.19208692E+03  d E =-.101350E-01
       N       E                     dE             d eps       ncg     rms          rms(c)
DAV:   1    -0.192189173152E+03   -0.87225E-02   -0.65894E-01  8160   0.174E+00    0.221E-01
DAV:   2    -0.192191802337E+03   -0.26292E-02   -0.23227E-02 12320   0.598E-01    0.436E-01
DAV:   3    -0.192190267500E+03    0.15348E-02   -0.56547E-03 12440   0.579E-01    0.225E-01
DAV:   4    -0.192189996007E+03    0.27149E-03   -0.15479E-03 10240   0.267E-01    0.180E-01
DAV:   5    -0.192189779725E+03    0.21628E-03   -0.11933E-03 11360   0.269E-01    0.129E-01
DAV:   6    -0.192189685367E+03    0.94358E-04   -0.52876E-04  9000   0.148E-01
  31 F= -.19218969E+03 E0= -.19209599E+03  d E =-.920085E-02
       N       E                     dE             d eps       ncg     rms          rms(c)
DAV:   1    -0.192196437773E+03   -0.66580E-02   -0.41221E-01  8160   0.138E+00    0.159E-01
DAV:   2    -0.192197463493E+03   -0.10257E-02   -0.14660E-02 10600   0.416E-01    0.179E-01
DAV:   3    -0.192197532800E+03   -0.69307E-04   -0.20351E-03 12040   0.360E-01    0.198E-01
DAV:   4    -0.192197101013E+03    0.43179E-03   -0.92347E-04 10240   0.238E-01    0.892E-02
DAV:   5    -0.192197187596E+03   -0.86583E-04   -0.46302E-04  8840   0.171E-01
  32 F= -.19219719E+03 E0= -.19210441E+03  d E =-.750223E-02
       N       E                     dE             d eps       ncg     rms          rms(c)
DAV:   1    -0.192203258204E+03   -0.61572E-02   -0.30089E-01  8160   0.119E+00    0.142E-01
DAV:   2    -0.192204099261E+03   -0.84106E-03   -0.97824E-03 12200   0.344E-01    0.207E-01
DAV:   3    -0.192203899243E+03    0.20002E-03   -0.18926E-03 12200   0.348E-01    0.166E-01
DAV:   4    -0.192203649782E+03    0.24946E-03   -0.56247E-04  8640   0.182E-01    0.792E-02
DAV:   5    -0.192203687655E+03   -0.37872E-04   -0.42297E-04  8840   0.151E-01
  33 F= -.19220369E+03 E0= -.19210994E+03  d E =-.650006E-02
       N       E                     dE             d eps       ncg     rms          rms(c)
DAV:   1    -0.192206152762E+03   -0.25030E-02   -0.44075E-02  8160   0.475E-01    0.834E-02
DAV:   2    -0.192206905524E+03   -0.75276E-03   -0.26801E-03 12480   0.294E-01    0.265E-01
DAV:   3    -0.192206196401E+03    0.70912E-03   -0.13192E-03 10080   0.282E-01    0.703E-02
DAV:   4    -0.192206174578E+03    0.21822E-04   -0.19027E-04  6120   0.832E-02
  34 F= -.19220617E+03 E0= -.19211274E+03  d E =-.248692E-02
       N       E                     dE             d eps       ncg     rms          rms(c)
DAV:   1    -0.192206105421E+03    0.90980E-04   -0.13390E-04  6640   0.928E-02    0.534E-02
DAV:   2    -0.192206691579E+03   -0.58616E-03   -0.10425E-03 11040   0.287E-01    0.229E-01
DAV:   3    -0.192206069512E+03    0.62207E-03   -0.72230E-04  9040   0.237E-01    0.232E-02
DAV:   4    -0.192206081394E+03   -0.11882E-04   -0.30658E-05  5960   0.345E-02
  35 F= -.19220608E+03 E0= -.19211263E+03  d E =0.931841E-04
       N       E                     dE             d eps       ncg     rms          rms(c)
DAV:   1    -0.192210296933E+03   -0.42274E-02   -0.13282E-01  8160   0.808E-01    0.145E-01
DAV:   2    -0.192211158951E+03   -0.86202E-03   -0.70869E-03 11400   0.430E-01    0.309E-01
DAV:   3    -0.192210254651E+03    0.90430E-03   -0.24468E-03 11320   0.392E-01    0.129E-01
DAV:   4    -0.192210234812E+03    0.19839E-04   -0.74637E-04  9280   0.207E-01
  36 F= -.19221023E+03 E0= -.19211711E+03  d E =-.415342E-02
       N       E                     dE             d eps       ncg     rms          rms(c)
DAV:   1    -0.192212721435E+03   -0.24668E-02   -0.69520E-02  8160   0.597E-01    0.970E-02
DAV:   2    -0.192213508571E+03   -0.78714E-03   -0.32179E-03 12600   0.316E-01    0.254E-01
DAV:   3    -0.192212756128E+03    0.75244E-03   -0.12849E-03 10840   0.294E-01    0.761E-02
DAV:   4    -0.192212820814E+03   -0.64686E-04   -0.34304E-04  8000   0.136E-01
  37 F= -.19221282E+03 E0= -.19211912E+03  d E =-.258600E-02
       N       E                     dE             d eps       ncg     rms          rms(c)
DAV:   1    -0.192212381539E+03    0.37459E-03   -0.11410E-01  8160   0.740E-01    0.131E-01
DAV:   2    -0.192215169257E+03   -0.27877E-02   -0.75994E-03 12240   0.625E-01    0.491E-01
DAV:   3    -0.192212413586E+03    0.27557E-02   -0.34557E-03 10880   0.521E-01    0.500E-02
DAV:   4    -0.192212441675E+03   -0.28089E-04   -0.20249E-04  6520   0.920E-02
  38 F= -.19221244E+03 E0= -.19211891E+03  d E =0.379139E-03
       N       E                     dE             d eps       ncg     rms          rms(c)
DAV:   1    -0.192222869602E+03   -0.10456E-01   -0.61199E-01  8160   0.169E+00    0.224E-01
DAV:   2    -0.192225364587E+03   -0.24950E-02   -0.21346E-02 11120   0.691E-01    0.403E-01
DAV:   3    -0.192223644607E+03    0.17200E-02   -0.44454E-03 12400   0.568E-01    0.162E-01
DAV:   4    -0.192223312932E+03    0.33168E-03   -0.74728E-04  9880   0.190E-01    0.861E-02
DAV:   5    -0.192223542292E+03   -0.22936E-03   -0.76583E-04 10920   0.224E-01    0.169E-01
DAV:   6    -0.192223253438E+03    0.28885E-03   -0.55666E-04  8840   0.197E-01    0.503E-02
DAV:   7    -0.192223253402E+03    0.36239E-07   -0.12394E-04  5960   0.816E-02
  39 F= -.19222325E+03 E0= -.19212980E+03  d E =-.108117E-01
       N       E                     dE             d eps       ncg     rms          rms(c)
DAV:   1    -0.192223198919E+03    0.54519E-04   -0.23088E-04  7120   0.680E-02    0.181E-02
DAV:   2    -0.192223244931E+03   -0.46012E-04   -0.96609E-05  6080   0.808E-02
  40 F= -.19222324E+03 E0= -.19212976E+03  d E =0.847120E-05
       N       E                     dE             d eps       ncg     rms          rms(c)
DAV:   1    -0.192237291629E+03   -0.14093E-01   -0.77330E-01  8160   0.193E+00    0.279E-01
DAV:   2    -0.192239556646E+03   -0.22650E-02   -0.26034E-02 12080   0.746E-01    0.473E-01
DAV:   3    -0.192237583081E+03    0.19736E-02   -0.69097E-03 12280   0.680E-01    0.239E-01
DAV:   4    -0.192237506965E+03    0.76117E-04   -0.26162E-03 11160   0.389E-01    0.278E-01
DAV:   5    -0.192236852031E+03    0.65493E-03   -0.17904E-03 10960   0.356E-01    0.145E-01
DAV:   6    -0.192236695270E+03    0.15676E-03   -0.83090E-04  9960   0.176E-01    0.809E-02
DAV:   7    -0.192236656887E+03    0.38383E-04   -0.32233E-04  9360   0.144E-01
  41 F= -.19223666E+03 E0= -.19214317E+03  d E =-.134120E-01
       N       E                     dE             d eps       ncg     rms          rms(c)
DAV:   1    -0.192243132536E+03   -0.64373E-02   -0.15854E-01  8160   0.859E-01    0.125E-01
DAV:   2    -0.192244191538E+03   -0.10590E-02   -0.68954E-03 11720   0.440E-01    0.272E-01
DAV:   3    -0.192243344164E+03    0.84737E-03   -0.15922E-03 10880   0.344E-01    0.793E-02
DAV:   4    -0.192243333411E+03    0.10754E-04   -0.29145E-04  7560   0.122E-01
  42 F= -.19224333E+03 E0= -.19214993E+03  d E =-.667652E-02
       N       E                     dE             d eps       ncg     rms          rms(c)
DAV:   1    -0.192255368475E+03   -0.12024E-01   -0.41501E-01  8160   0.141E+00    0.211E-01
DAV:   2    -0.192256347730E+03   -0.97925E-03   -0.13195E-02 11320   0.484E-01    0.320E-01
DAV:   3    -0.192255759057E+03    0.58867E-03   -0.38819E-03 12360   0.517E-01    0.237E-01
DAV:   4    -0.192255238411E+03    0.52065E-03   -0.12740E-03  9640   0.264E-01    0.120E-01
DAV:   5    -0.192255384495E+03   -0.14608E-03   -0.93941E-04 10280   0.254E-01    0.180E-01
DAV:   6    -0.192255073123E+03    0.31137E-03   -0.62735E-04  9000   0.199E-01    0.475E-02
DAV:   7    -0.192255050297E+03    0.22825E-04   -0.13057E-04  6040   0.583E-02
  43 F= -.19225505E+03 E0= -.19216226E+03  d E =-.117169E-01
       N       E                     dE             d eps       ncg     rms          rms(c)
DAV:   1    -0.192262976602E+03   -0.79035E-02   -0.14845E-01  8160   0.845E-01    0.119E-01
DAV:   2    -0.192263274385E+03   -0.29778E-03   -0.43954E-03 11240   0.240E-01    0.163E-01
DAV:   3    -0.192263153199E+03    0.12119E-03   -0.11736E-03 11000   0.278E-01    0.144E-01
DAV:   4    -0.192263008102E+03    0.14510E-03   -0.46870E-04  8840   0.168E-01    0.877E-02
DAV:   5    -0.192262960212E+03    0.47890E-04   -0.32140E-04  7960   0.149E-01
  44 F= -.19226296E+03 E0= -.19217014E+03  d E =-.790992E-02
       N       E                     dE             d eps       ncg     rms          rms(c)
DAV:   1    -0.192279505451E+03   -0.16497E-01   -0.58520E-01  8160   0.170E+00    0.262E-01
DAV:   2    -0.192280423602E+03   -0.91815E-03   -0.19575E-02 11840   0.575E-01    0.358E-01
DAV:   3    -0.192279817919E+03    0.60568E-03   -0.54875E-03 12280   0.615E-01    0.287E-01
DAV:   4    -0.192279169765E+03    0.64815E-03   -0.23392E-03 12160   0.384E-01    0.212E-01
DAV:   5    -0.192278913051E+03    0.25671E-03   -0.14154E-03 10160   0.331E-01    0.161E-01
DAV:   6    -0.192278630316E+03    0.28274E-03   -0.78310E-04 10320   0.183E-01    0.488E-02
DAV:   7    -0.192278582695E+03    0.47621E-04   -0.12301E-04  6000   0.450E-02
  45 F= -.19227858E+03 E0= -.19218574E+03  d E =-.156225E-01
       N       E                     dE             d eps       ncg     rms          rms(c)
DAV:   1    -0.192294650972E+03   -0.16021E-01   -0.46166E-01  8160   0.147E+00    0.214E-01
DAV:   2    -0.192296993350E+03   -0.23424E-02   -0.14956E-02 10760   0.622E-01    0.465E-01
DAV:   3    -0.192294839544E+03    0.21538E-02   -0.45293E-03 11880   0.566E-01    0.173E-01
DAV:   4    -0.192294718010E+03    0.12153E-03   -0.10708E-03  9680   0.245E-01    0.147E-01
DAV:   5    -0.192294600924E+03    0.11709E-03   -0.89284E-04 10360   0.259E-01    0.120E-01
DAV:   6    -0.192294449231E+03    0.15169E-03   -0.44062E-04  8520   0.151E-01    0.442E-02
DAV:   7    -0.192294422216E+03    0.27015E-04   -0.11092E-04  6480   0.535E-02
  46 F= -.19229442E+03 E0= -.19220213E+03  d E =-.158395E-01
       N       E                     dE             d eps       ncg     rms          rms(c)
DAV:   1    -0.192317836626E+03   -0.23387E-01   -0.93415E-01  8160   0.208E+00    0.281E-01
DAV:   2    -0.192321870101E+03   -0.40335E-02   -0.27612E-02 11120   0.792E-01    0.576E-01
DAV:   3    -0.192318570349E+03    0.32998E-02   -0.75675E-03 11960   0.735E-01    0.233E-01
DAV:   4    -0.192318287651E+03    0.28270E-03   -0.16927E-03 11080   0.307E-01    0.180E-01
DAV:   5    -0.192318099213E+03    0.18844E-03   -0.13653E-03 10320   0.322E-01    0.147E-01
DAV:   6    -0.192317902746E+03    0.19647E-03   -0.68351E-04  9320   0.189E-01    0.621E-02
DAV:   7    -0.192317835946E+03    0.66800E-04   -0.17274E-04  6560   0.742E-02
  47 F= -.19231784E+03 E0= -.19222609E+03  d E =-.234137E-01
       N       E                     dE             d eps       ncg     rms          rms(c)
DAV:   1    -0.192303878871E+03    0.14024E-01   -0.32101E-01  8160   0.122E+00    0.167E-01
DAV:   2    -0.192305961893E+03   -0.20830E-02   -0.10168E-02 11080   0.530E-01    0.435E-01
DAV:   3    -0.192304088519E+03    0.18734E-02   -0.36300E-03 12080   0.500E-01    0.122E-01
DAV:   4    -0.192303971346E+03    0.11717E-03   -0.41730E-04  8880   0.135E-01    0.847E-02
DAV:   5    -0.192303964492E+03    0.68539E-05   -0.37080E-04  9600   0.166E-01
  48 F= -.19230396E+03 E0= -.19221193E+03  d E =0.138715E-01
       N       E                     dE             d eps       ncg     rms          rms(c)
DAV:   1    -0.192279203070E+03    0.24768E-01   -0.15198E+00  8160   0.270E+00    0.461E-01
DAV:   2    -0.192294905405E+03   -0.15702E-01   -0.67907E-02 10960   0.151E+00    0.136E+00
DAV:   3    -0.192278659027E+03    0.16246E-01   -0.33652E-02 12200   0.143E+00    0.329E-01
DAV:   4    -0.192277348770E+03    0.13103E-02   -0.37125E-03 12240   0.394E-01    0.204E-01
DAV:   5    -0.192277653316E+03   -0.30455E-03   -0.29680E-03 11120   0.471E-01    0.285E-01
DAV:   6    -0.192276646591E+03    0.10067E-02   -0.21117E-03 11400   0.358E-01    0.773E-02
DAV:   7    -0.192276608360E+03    0.38232E-04   -0.38634E-04  8680   0.121E-01
  49 F= -.19227661E+03 E0= -.19218303E+03  d E =0.273561E-01
       N       E                     dE             d eps       ncg     rms          rms(c)
DAV:   1    -0.192325004883E+03   -0.48358E-01   -0.39038E+00  8160   0.427E+00    0.584E-01
DAV:   2    -0.192341140477E+03   -0.16136E-01   -0.11970E-01 11040   0.161E+00    0.116E+00
DAV:   3    -0.192327560275E+03    0.13580E-01   -0.30832E-02 12000   0.150E+00    0.484E-01
DAV:   4    -0.192325380750E+03    0.21795E-02   -0.70276E-03 11440   0.613E-01    0.311E-01
DAV:   5    -0.192325509014E+03   -0.12826E-03   -0.54674E-03 11520   0.638E-01    0.344E-01
DAV:   6    -0.192324055196E+03    0.14538E-02   -0.31005E-03 11640   0.433E-01    0.906E-02
DAV:   7    -0.192323929737E+03    0.12546E-03   -0.49997E-04  9920   0.938E-02    0.366E-02
DAV:   8    -0.192323905442E+03    0.24294E-04   -0.78407E-05  7440   0.377E-02
  50 F= -.19232391E+03 E0= -.19223202E+03  d E =-.472971E-01
       N       E                     dE             d eps       ncg     rms          rms(c)
DAV:   1    -0.192337910533E+03   -0.13981E-01   -0.32653E-01  8160   0.123E+00    0.172E-01
DAV:   2    -0.192339990762E+03   -0.20802E-02   -0.10499E-02 11160   0.550E-01    0.420E-01
DAV:   3    -0.192338099520E+03    0.18912E-02   -0.34599E-03 12360   0.508E-01    0.119E-01
DAV:   4    -0.192338036972E+03    0.62548E-04   -0.44418E-04  8800   0.153E-01
  51 F= -.19233804E+03 E0= -.19224630E+03  d E =-.141315E-01
       N       E                     dE             d eps       ncg     rms          rms(c)
DAV:   1    -0.192300702358E+03    0.37397E-01   -0.22719E+00  8160   0.325E+00    0.447E-01
DAV:   2    -0.192316575709E+03   -0.15873E-01   -0.79412E-02 11120   0.150E+00    0.112E+00
DAV:   3    -0.192303140713E+03    0.13435E-01   -0.26693E-02 11920   0.138E+00    0.334E-01
DAV:   4    -0.192303839594E+03   -0.69888E-03   -0.54997E-03 11560   0.595E-01    0.428E-01
DAV:   5    -0.192301773405E+03    0.20662E-02   -0.38942E-03 11760   0.549E-01    0.152E-01
DAV:   6    -0.192301737462E+03    0.35943E-04   -0.14317E-03 10520   0.213E-01    0.124E-01
DAV:   7    -0.192301627350E+03    0.11011E-03   -0.71750E-04 10720   0.220E-01    0.113E-01
DAV:   8    -0.192301472015E+03    0.15533E-03   -0.21045E-04  7520   0.129E-01    0.199E-02
DAV:   9    -0.192301473937E+03   -0.19219E-05   -0.32638E-05  6280   0.248E-02
  52 F= -.19230147E+03 E0= -.19220946E+03  d E =0.365630E-01
       N       E                     dE             d eps       ncg     rms          rms(c)
DAV:   1    -0.192210762884E+03    0.90709E-01   -0.19995E+01  8160   0.974E+00    0.134E+00
DAV:   2    -0.192358368291E+03   -0.14761E+00   -0.73302E-01 11280   0.417E+00    0.427E+00
DAV:   3    -0.192236549806E+03    0.12182E+00   -0.44180E-01 12040   0.426E+00    0.118E+00
DAV:   4    -0.192227507249E+03    0.90426E-02   -0.40421E-02 12360   0.133E+00    0.910E-01
DAV:   5    -0.192219917380E+03    0.75899E-02   -0.29589E-02 11480   0.148E+00    0.683E-01
DAV:   6    -0.192216500790E+03    0.34166E-02   -0.18066E-02 11680   0.892E-01    0.366E-01
DAV:   7    -0.192215093080E+03    0.14077E-02   -0.64516E-03 11360   0.560E-01    0.303E-01
DAV:   8    -0.192214079581E+03    0.10135E-02   -0.19349E-03 11520   0.370E-01    0.824E-02
DAV:   9    -0.192214025228E+03    0.54353E-04   -0.27886E-04  8400   0.843E-02
  53 F= -.19221403E+03 E0= -.19212084E+03  d E =0.874487E-01
       N       E                     dE             d eps       ncg     rms          rms(c)
DAV:   1    -0.192186264846E+03    0.27815E-01   -0.21494E+01  8160   0.102E+01    0.119E+00
DAV:   2    -0.192226179123E+03   -0.39914E-01   -0.56517E-01 11720   0.258E+00    0.162E+00
DAV:   3    -0.192227119333E+03   -0.94021E-03   -0.15107E-01 11440   0.281E+00    0.154E+00
DAV:   4    -0.192199776998E+03    0.27342E-01   -0.38569E-02 12120   0.148E+00    0.511E-01
DAV:   5    -0.192201418466E+03   -0.16415E-02   -0.25251E-02 11640   0.114E+00    0.727E-01
DAV:   6    -0.192197432651E+03    0.39858E-02   -0.17575E-02 11960   0.108E+00    0.407E-01
DAV:   7    -0.192194685174E+03    0.27475E-02   -0.47840E-03 10400   0.411E-01    0.126E-01
DAV:   8    -0.192194683245E+03    0.19286E-05   -0.93025E-04 11280   0.227E-01
  54 F= -.19219468E+03 E0= -.19210488E+03  d E =0.193420E-01
       N       E                     dE             d eps       ncg     rms          rms(c)
DAV:   1    -0.192205419933E+03   -0.10735E-01   -0.19895E+01  8160   0.979E+00    0.126E+00
DAV:   2    -0.192333442296E+03   -0.12802E+00   -0.70545E-01 12200   0.377E+00    0.373E+00
DAV:   3    -0.192237857580E+03    0.95585E-01   -0.37358E-01 12200   0.388E+00    0.118E+00
DAV:   4    -0.192228176086E+03    0.96815E-02   -0.32751E-02 12280   0.126E+00    0.926E-01
DAV:   5    -0.192222408154E+03    0.57679E-02   -0.31463E-02 11320   0.152E+00    0.707E-01
DAV:   6    -0.192218769405E+03    0.36387E-02   -0.15727E-02 12680   0.861E-01    0.382E-01
DAV:   7    -0.192217410240E+03    0.13592E-02   -0.69956E-03 11280   0.625E-01    0.313E-01
DAV:   8    -0.192216212134E+03    0.11981E-02   -0.20773E-03 11280   0.365E-01    0.682E-02
DAV:   9    -0.192216174933E+03    0.37201E-04   -0.26088E-04  7600   0.709E-02
  55 F= -.19221617E+03 E0= -.19212212E+03  d E =-.214917E-01
       N       E                     dE             d eps       ncg     rms          rms(c)
DAV:   1    -0.192208840824E+03    0.73713E-02   -0.30122E+00  8160   0.377E+00    0.455E-01
DAV:   2    -0.192211504383E+03   -0.26636E-02   -0.68764E-02 10880   0.842E-01    0.410E-01
DAV:   3    -0.192214290814E+03   -0.27864E-02   -0.16482E-02 12320   0.961E-01    0.670E-01
DAV:   4    -0.192210023711E+03    0.42671E-02   -0.10420E-02 11600   0.785E-01    0.306E-01
DAV:   5    -0.192209751148E+03    0.27256E-03   -0.44704E-03 11200   0.485E-01    0.295E-01
DAV:   6    -0.192209070364E+03    0.68078E-03   -0.26145E-03 12040   0.390E-01    0.133E-01
DAV:   7    -0.192208744006E+03    0.32636E-03   -0.64303E-04 10280   0.133E-01    0.229E-02
DAV:   8    -0.192208743850E+03    0.15588E-06   -0.54155E-05  7920   0.283E-02
  56 F= -.19220874E+03 E0= -.19211650E+03  d E =0.743108E-02
       N       E                     dE             d eps       ncg     rms          rms(c)
DAV:   1    -0.192212769894E+03   -0.40259E-02   -0.52418E-01  8160   0.158E+00    0.207E-01
DAV:   2    -0.192214064095E+03   -0.12942E-02   -0.17859E-02 11720   0.486E-01    0.293E-01
DAV:   3    -0.192213755658E+03    0.30844E-03   -0.38466E-03 12280   0.482E-01    0.248E-01
DAV:   4    -0.192213250321E+03    0.50534E-03   -0.16229E-03 10440   0.292E-01    0.159E-01
DAV:   5    -0.192213109590E+03    0.14073E-03   -0.10468E-03 10280   0.258E-01    0.123E-01
DAV:   6    -0.192212997946E+03    0.11164E-03   -0.51092E-04  9040   0.152E-01    0.666E-02
DAV:   7    -0.192212964992E+03    0.32953E-04   -0.16162E-04  7240   0.112E-01
  57 F= -.19221296E+03 E0= -.19211994E+03  d E =-.422114E-02
       N       E                     dE             d eps       ncg     rms          rms(c)
DAV:   1    -0.192214378552E+03   -0.13806E-02   -0.84987E-02  8160   0.629E-01    0.806E-02
DAV:   2    -0.192214713137E+03   -0.33458E-03   -0.34536E-03 11440   0.246E-01    0.133E-01
DAV:   3    -0.192214546485E+03    0.16665E-03   -0.53969E-04  9920   0.200E-01    0.651E-02
DAV:   4    -0.192214487896E+03    0.58589E-04   -0.10336E-04  6000   0.787E-02
  58 F= -.19221449E+03 E0= -.19212162E+03  d E =-.152290E-02
       N       E                     dE             d eps       ncg     rms          rms(c)
DAV:   1    -0.192217621765E+03   -0.30753E-02   -0.22717E-01  8160   0.103E+00    0.126E-01
DAV:   2    -0.192218555266E+03   -0.93350E-03   -0.80190E-03 12080   0.362E-01    0.232E-01
DAV:   3    -0.192218055902E+03    0.49936E-03   -0.15113E-03 11160   0.332E-01    0.114E-01
DAV:   4    -0.192217913442E+03    0.14246E-03   -0.23697E-04  7360   0.120E-01    0.523E-02
DAV:   5    -0.192217990577E+03   -0.77135E-04   -0.29076E-04  8400   0.135E-01
  59 F= -.19221799E+03 E0= -.19212481E+03  d E =-.350268E-02
       N       E                     dE             d eps       ncg     rms          rms(c)
DAV:   1    -0.192217663777E+03    0.24966E-03   -0.21514E-03 12480   0.152E-01    0.460E-02
DAV:   2    -0.192218138532E+03   -0.47475E-03   -0.95696E-04 10120   0.224E-01    0.213E-01
DAV:   3    -0.192217648129E+03    0.49040E-03   -0.68706E-04  8520   0.200E-01    0.289E-02
DAV:   4    -0.192217645964E+03    0.21651E-05   -0.28507E-05  5760   0.332E-02
  60 F= -.19221765E+03 E0= -.19212469E+03  d E =0.344613E-03
       N       E                     dE             d eps       ncg     rms          rms(c)
DAV:   1    -0.192220606388E+03   -0.29583E-02   -0.16792E-01  8160   0.905E-01    0.124E-01
DAV:   2    -0.192221027809E+03   -0.42142E-03   -0.61619E-03 11600   0.293E-01    0.189E-01
DAV:   3    -0.192220854910E+03    0.17290E-03   -0.14224E-03 11080   0.288E-01    0.143E-01
DAV:   4    -0.192220667418E+03    0.18749E-03   -0.57077E-04  8680   0.173E-01    0.885E-02
DAV:   5    -0.192220641233E+03    0.26185E-04   -0.35682E-04  8520   0.157E-01
  61 F= -.19222064E+03 E0= -.19212723E+03  d E =-.299527E-02
       N       E                     dE             d eps       ncg     rms          rms(c)
DAV:   1    -0.192221084786E+03   -0.41737E-03   -0.77771E-03  8160   0.221E-01    0.510E-02
DAV:   2    -0.192221488011E+03   -0.40322E-03   -0.11077E-03 10600   0.231E-01    0.193E-01
DAV:   3    -0.192221069747E+03    0.41826E-03   -0.58599E-04  8680   0.202E-01    0.320E-02
DAV:   4    -0.192221071945E+03   -0.21980E-05   -0.58441E-05  5680   0.455E-02
  62 F= -.19222107E+03 E0= -.19212782E+03  d E =-.430712E-03
       N       E                     dE             d eps       ncg     rms          rms(c)
DAV:   1    -0.192220239520E+03    0.83023E-03   -0.55518E-02  8160   0.552E-01    0.128E-01
DAV:   2    -0.192220378482E+03   -0.13896E-03   -0.34888E-03 10920   0.285E-01    0.229E-01
DAV:   3    -0.192219999942E+03    0.37854E-03   -0.17013E-03 10200   0.313E-01    0.138E-01
DAV:   4    -0.192219796709E+03    0.20323E-03   -0.61541E-04  8240   0.163E-01    0.662E-02
DAV:   5    -0.192219798077E+03   -0.13684E-05   -0.30031E-04  7400   0.130E-01
  63 F= -.19221980E+03 E0= -.19212714E+03  d E =0.127387E-02
       N       E                     dE             d eps       ncg     rms          rms(c)
DAV:   1    -0.192223720468E+03   -0.39238E-02   -0.26891E-01  8160   0.114E+00    0.138E-01
DAV:   2    -0.192224284206E+03   -0.56374E-03   -0.91250E-03 11280   0.278E-01    0.152E-01
DAV:   3    -0.192224480341E+03   -0.19614E-03   -0.18227E-03 11560   0.310E-01    0.215E-01
DAV:   4    -0.192224002523E+03    0.47782E-03   -0.85611E-04  9520   0.217E-01    0.609E-02
DAV:   5    -0.192223975799E+03    0.26724E-04   -0.26566E-04  6760   0.841E-02
  64 F= -.19222398E+03 E0= -.19213081E+03  d E =-.417772E-02
       N       E                     dE             d eps       ncg     rms          rms(c)
DAV:   1    -0.192217727331E+03    0.62752E-02   -0.61318E-01  8160   0.172E+00    0.239E-01
DAV:   2    -0.192219054893E+03   -0.13276E-02   -0.21547E-02 11560   0.523E-01    0.325E-01
DAV:   3    -0.192218670108E+03    0.38479E-03   -0.48086E-03 12320   0.571E-01    0.285E-01
DAV:   4    -0.192217774676E+03    0.89543E-03   -0.18788E-03 11440   0.319E-01    0.125E-01
DAV:   5    -0.192217921362E+03   -0.14669E-03   -0.13595E-03 10360   0.264E-01    0.192E-01
DAV:   6    -0.192217598403E+03    0.32296E-03   -0.87793E-04  9720   0.221E-01    0.623E-02
DAV:   7    -0.192217542702E+03    0.55701E-04   -0.12634E-04  6120   0.623E-02
  65 F= -.19221754E+03 E0= -.19212522E+03  d E =0.643310E-02
       N       E                     dE             d eps       ncg     rms          rms(c)
DAV:   1    -0.192230554503E+03   -0.12956E-01   -0.23368E+00  8160   0.336E+00    0.445E-01
DAV:   2    -0.192233816483E+03   -0.32620E-02   -0.77533E-02 11640   0.872E-01    0.438E-01
DAV:   3    -0.192235658264E+03   -0.18418E-02   -0.13972E-02 11760   0.958E-01    0.612E-01
DAV:   4    -0.192231455898E+03    0.42024E-02   -0.77181E-03 11440   0.679E-01    0.275E-01
DAV:   5    -0.192231648639E+03   -0.19274E-03   -0.47588E-03 11760   0.533E-01    0.312E-01
DAV:   6    -0.192230687384E+03    0.96125E-03   -0.25446E-03 11600   0.364E-01    0.951E-02
DAV:   7    -0.192230560383E+03    0.12700E-03   -0.42794E-04  9360   0.128E-01    0.653E-02
DAV:   8    -0.192230519443E+03    0.40940E-04   -0.10395E-04  6960   0.944E-02
  66 F= -.19223052E+03 E0= -.19213662E+03  d E =-.129767E-01
       N       E                     dE             d eps       ncg     rms          rms(c)
DAV:   1    -0.192230191144E+03    0.36924E-03   -0.13296E-02  8280   0.271E-01    0.615E-02
DAV:   2    -0.192230219845E+03   -0.28701E-04   -0.73896E-04 11360   0.139E-01
  67 F= -.19223022E+03 E0= -.19213686E+03  d E =0.299598E-03
       N       E                     dE             d eps       ncg     rms          rms(c)
DAV:   1    -0.192235462508E+03   -0.52714E-02   -0.33762E-01  8160   0.126E+00    0.169E-01
DAV:   2    -0.192237017946E+03   -0.15554E-02   -0.11783E-02 12240   0.475E-01    0.354E-01
DAV:   3    -0.192235853434E+03    0.11645E-02   -0.31557E-03 12280   0.452E-01    0.148E-01
DAV:   4    -0.192235744012E+03    0.10942E-03   -0.74473E-04  8760   0.190E-01    0.118E-01
DAV:   5    -0.192235694497E+03    0.49516E-04   -0.60283E-04  9280   0.207E-01
  68 F= -.19223569E+03 E0= -.19214189E+03  d E =-.547465E-02
       N       E                     dE             d eps       ncg     rms          rms(c)
DAV:   1    -0.192237013833E+03   -0.12698E-02   -0.26548E-02  8160   0.374E-01    0.655E-02
DAV:   2    -0.192237225385E+03   -0.21155E-03   -0.13694E-03 12720   0.181E-01    0.124E-01
DAV:   3    -0.192237041411E+03    0.18397E-03   -0.47526E-04  8960   0.184E-01    0.587E-02
DAV:   4    -0.192237025519E+03    0.15892E-04   -0.10172E-04  5720   0.731E-02
  69 F= -.19223703E+03 E0= -.19214328E+03  d E =-.133102E-02
       N       E                     dE             d eps       ncg     rms          rms(c)
DAV:   1    -0.192241389142E+03   -0.43477E-02   -0.14471E-01  8160   0.847E-01    0.133E-01
DAV:   2    -0.192241595730E+03   -0.20659E-03   -0.49220E-03 11600   0.285E-01    0.177E-01
DAV:   3    -0.192241414832E+03    0.18090E-03   -0.12074E-03 10880   0.296E-01    0.132E-01
DAV:   4    -0.192241260566E+03    0.15427E-03   -0.55744E-04  8880   0.171E-01    0.102E-01
DAV:   5    -0.192241211691E+03    0.48875E-04   -0.46699E-04  9080   0.170E-01
  70 F= -.19224121E+03 E0= -.19214729E+03  d E =-.418617E-02
       N       E                     dE             d eps       ncg     rms          rms(c)
DAV:   1    -0.192244660857E+03   -0.34003E-02   -0.11489E-01  8160   0.743E-01    0.113E-01
DAV:   2    -0.192245506463E+03   -0.84561E-03   -0.46729E-03 11440   0.391E-01    0.270E-01
DAV:   3    -0.192244696491E+03    0.80997E-03   -0.13769E-03 10280   0.330E-01    0.724E-02
DAV:   4    -0.192244683817E+03    0.12675E-04   -0.20009E-04  7560   0.114E-01
  71 F= -.19224468E+03 E0= -.19215082E+03  d E =-.347213E-02
       N       E                     dE             d eps       ncg     rms          rms(c)
DAV:   1    -0.192250912170E+03   -0.62157E-02   -0.24654E-01  8160   0.108E+00    0.155E-01
DAV:   2    -0.192252192695E+03   -0.12805E-02   -0.82612E-03 11480   0.429E-01    0.336E-01
DAV:   3    -0.192251110988E+03    0.10817E-02   -0.26369E-03 11600   0.405E-01    0.133E-01
DAV:   4    -0.192251056175E+03    0.54813E-04   -0.60731E-04  8720   0.174E-01
  72 F= -.19225106E+03 E0= -.19215683E+03  d E =-.637236E-02
       N       E                     dE             d eps       ncg     rms          rms(c)
DAV:   1    -0.192252449283E+03   -0.13383E-02   -0.28389E-02  8160   0.487E-01    0.128E-01
DAV:   2    -0.192253618118E+03   -0.11688E-02   -0.38721E-03 11960   0.451E-01    0.345E-01
DAV:   3    -0.192252172103E+03    0.14460E-02   -0.24470E-03 10720   0.426E-01    0.953E-02
DAV:   4    -0.192252240508E+03   -0.68405E-04   -0.52544E-04  8280   0.159E-01
  73 F= -.19225224E+03 E0= -.19215898E+03  d E =-.118433E-02
       N       E                     dE             d eps       ncg     rms          rms(c)
DAV:   1    -0.192262629041E+03   -0.10457E-01   -0.54761E-01  8160   0.161E+00    0.214E-01
DAV:   2    -0.192264171328E+03   -0.15423E-02   -0.15820E-02 11640   0.512E-01    0.357E-01
DAV:   3    -0.192263282059E+03    0.88927E-03   -0.44841E-03 12160   0.526E-01    0.234E-01
DAV:   4    -0.192262856007E+03    0.42605E-03   -0.13870E-03 10160   0.248E-01    0.113E-01
DAV:   5    -0.192262807029E+03    0.48977E-04   -0.78260E-04 10080   0.201E-01
  74 F= -.19226281E+03 E0= -.19216897E+03  d E =-.105665E-01
       N       E                     dE             d eps       ncg     rms          rms(c)
DAV:   1    -0.192258519868E+03    0.43361E-02   -0.85630E-02  8160   0.696E-01    0.137E-01
DAV:   2    -0.192260058891E+03   -0.15390E-02   -0.61412E-03 12160   0.520E-01    0.384E-01
DAV:   3    -0.192258340450E+03    0.17184E-02   -0.28168E-03 11480   0.457E-01    0.957E-02
DAV:   4    -0.192258306028E+03    0.34422E-04   -0.48568E-04  8440   0.134E-01
  75 F= -.19225831E+03 E0= -.19216453E+03  d E =0.450100E-02
       N       E                     dE             d eps       ncg     rms          rms(c)
DAV:   1    -0.192261836716E+03   -0.34963E-02   -0.20399E-01  8160   0.975E-01    0.126E-01
DAV:   2    -0.192263096600E+03   -0.12599E-02   -0.91390E-03 12760   0.455E-01    0.275E-01
DAV:   3    -0.192262274655E+03    0.82195E-03   -0.18601E-03 11560   0.365E-01    0.992E-02
DAV:   4    -0.192262217758E+03    0.56897E-04   -0.40133E-04  8400   0.143E-01
  76 F= -.19226222E+03 E0= -.19216847E+03  d E =-.391173E-02
       N       E                     dE             d eps       ncg     rms          rms(c)
DAV:   1    -0.192249468502E+03    0.12806E-01   -0.18563E+00  8160   0.302E+00    0.559E-01
DAV:   2    -0.192266880404E+03   -0.17412E-01   -0.93690E-02 12040   0.189E+00    0.131E+00
DAV:   3    -0.192247329576E+03    0.19551E-01   -0.31806E-02 12240   0.163E+00    0.354E-01
DAV:   4    -0.192246656370E+03    0.67321E-03   -0.64086E-03 11120   0.568E-01    0.367E-01
DAV:   5    -0.192245812016E+03    0.84435E-03   -0.57198E-03 12520   0.623E-01    0.303E-01
DAV:   6    -0.192245058740E+03    0.75328E-03   -0.31694E-03 11560   0.400E-01    0.173E-01
DAV:   7    -0.192244876573E+03    0.18217E-03   -0.10600E-03 10240   0.253E-01    0.120E-01
DAV:   8    -0.192244711069E+03    0.16550E-03   -0.32629E-04  9160   0.136E-01    0.302E-02
DAV:   9    -0.192244703180E+03    0.78888E-05   -0.44947E-05  6720   0.316E-02
  77 F= -.19224470E+03 E0= -.19215234E+03  d E =0.175146E-01
       N       E                     dE             d eps       ncg     rms          rms(c)
DAV:   1    -0.192245960748E+03   -0.12497E-02   -0.15022E-02  8160   0.265E-01    0.369E-02
DAV:   2    -0.192246034951E+03   -0.74203E-04   -0.51956E-04 10200   0.108E-01
  78 F= -.19224603E+03 E0= -.19215361E+03  d E =-.133177E-02
       N       E                     dE             d eps       ncg     rms          rms(c)
DAV:   1    -0.192241158902E+03    0.48018E-02   -0.61894E-01  8160   0.172E+00    0.259E-01
DAV:   2    -0.192248900126E+03   -0.77412E-02   -0.27803E-02 12320   0.109E+00    0.807E-01
DAV:   3    -0.192241392985E+03    0.75071E-02   -0.96792E-03 11360   0.889E-01    0.122E-01
DAV:   4    -0.192241590789E+03   -0.19780E-03   -0.99035E-04 10040   0.230E-01    0.189E-01
DAV:   5    -0.192241295529E+03    0.29526E-03   -0.95542E-04 11440   0.256E-01    0.108E-01
DAV:   6    -0.192241299271E+03   -0.37421E-05   -0.49254E-04  8720   0.162E-01
  79 F= -.19224130E+03 E0= -.19214879E+03  d E =0.473568E-02
       N       E                     dE             d eps       ncg     rms          rms(c)
DAV:   1    -0.192238448522E+03    0.28470E-02   -0.73946E-01  8160   0.190E+00    0.289E-01
DAV:   2    -0.192243699626E+03   -0.52511E-02   -0.30102E-02 12360   0.941E-01    0.681E-01
DAV:   3    -0.192238768385E+03    0.49312E-02   -0.90961E-03 12400   0.833E-01    0.187E-01
DAV:   4    -0.192238567367E+03    0.20102E-03   -0.14552E-03 11320   0.254E-01    0.180E-01
DAV:   5    -0.192238495030E+03    0.72337E-04   -0.14756E-03 11720   0.306E-01    0.169E-01
DAV:   6    -0.192238260212E+03    0.23482E-03   -0.71820E-04  9520   0.190E-01    0.763E-02
DAV:   7    -0.192238210626E+03    0.49586E-04   -0.24368E-04  7680   0.129E-01
  80 F= -.19223821E+03 E0= -.19214577E+03  d E =0.308865E-02
       N       E                     dE             d eps       ncg     rms          rms(c)
DAV:   1    -0.192243433175E+03   -0.51730E-02   -0.86868E-01  8160   0.212E+00    0.392E-01
DAV:   2    -0.192243210232E+03    0.22294E-03   -0.37863E-02 11640   0.699E-01    0.466E-01
DAV:   3    -0.192243913894E+03   -0.70366E-03   -0.14521E-02 12120   0.917E-01    0.552E-01
DAV:   4    -0.192240338851E+03    0.35750E-02   -0.64610E-03 11400   0.606E-01    0.171E-01
DAV:   5    -0.192240340238E+03   -0.13876E-05   -0.27144E-03 11560   0.326E-01    0.221E-01
DAV:   6    -0.192239848431E+03    0.49181E-03   -0.13510E-03 10840   0.306E-01    0.919E-02
DAV:   7    -0.192239754008E+03    0.94423E-04   -0.23815E-04  7160   0.107E-01
  81 F= -.19223975E+03 E0= -.19214725E+03  d E =-.154338E-02
       N       E                     dE             d eps       ncg     rms          rms(c)
DAV:   1    -0.192243026778E+03   -0.31783E-02   -0.12415E-01  8160   0.793E-01    0.162E-01
DAV:   2    -0.192243399175E+03   -0.37240E-03   -0.65749E-03 11400   0.423E-01    0.275E-01
DAV:   3    -0.192242769396E+03    0.62978E-03   -0.21432E-03 11520   0.395E-01    0.149E-01
DAV:   4    -0.192242598445E+03    0.17095E-03   -0.96266E-04  9840   0.223E-01    0.129E-01
DAV:   5    -0.192242555603E+03    0.42843E-04   -0.68578E-04  9080   0.217E-01
  82 F= -.19224256E+03 E0= -.19215045E+03  d E =-.280159E-02
       N       E                     dE             d eps       ncg     rms          rms(c)
DAV:   1    -0.192246524341E+03   -0.39259E-02   -0.33164E-01  8160   0.125E+00    0.171E-01
DAV:   2    -0.192248038417E+03   -0.15141E-02   -0.11687E-02 11720   0.513E-01    0.344E-01
DAV:   3    -0.192246898510E+03    0.11399E-02   -0.33227E-03 11920   0.470E-01    0.148E-01
DAV:   4    -0.192246801038E+03    0.97473E-04   -0.76038E-04  9480   0.198E-01
  83 F= -.19224680E+03 E0= -.19215534E+03  d E =-.424543E-02
       N       E                     dE             d eps       ncg     rms          rms(c)
DAV:   1    -0.192248072814E+03   -0.11743E-02   -0.27001E-02  8200   0.414E-01    0.909E-02
DAV:   2    -0.192248812788E+03   -0.73997E-03   -0.21078E-03 12560   0.330E-01    0.259E-01
DAV:   3    -0.192248028872E+03    0.78392E-03   -0.11303E-03 11000   0.292E-01    0.581E-02
DAV:   4    -0.192248090356E+03   -0.61483E-04   -0.20580E-04  6880   0.118E-01
  84 F= -.19224809E+03 E0= -.19215604E+03  d E =-.128932E-02
       N       E                     dE             d eps       ncg     rms          rms(c)
DAV:   1    -0.192250521485E+03   -0.24926E-02   -0.10055E-01  8160   0.695E-01    0.103E-01
DAV:   2    -0.192251179917E+03   -0.65843E-03   -0.38357E-03 11680   0.313E-01    0.226E-01
DAV:   3    -0.192250585157E+03    0.59476E-03   -0.11788E-03 10360   0.295E-01    0.754E-02
DAV:   4    -0.192250587361E+03   -0.22041E-05   -0.23019E-04  7400   0.110E-01
  85 F= -.19225059E+03 E0= -.19215890E+03  d E =-.249701E-02
       N       E                     dE             d eps       ncg     rms          rms(c)
DAV:   1    -0.192257810161E+03   -0.72250E-02   -0.64454E-01  8160   0.175E+00    0.233E-01
DAV:   2    -0.192259881303E+03   -0.20711E-02   -0.20406E-02 12040   0.594E-01    0.397E-01
DAV:   3    -0.192258666905E+03    0.12144E-02   -0.54985E-03 12520   0.580E-01    0.238E-01
DAV:   4    -0.192258214015E+03    0.45289E-03   -0.15004E-03 10480   0.260E-01    0.127E-01
DAV:   5    -0.192258149341E+03    0.64674E-04   -0.83637E-04 10440   0.233E-01
  86 F= -.19225815E+03 E0= -.19216565E+03  d E =-.756198E-02
       N       E                     dE             d eps       ncg     rms          rms(c)
DAV:   1    -0.192245707886E+03    0.12506E-01   -0.16030E+00  8160   0.274E+00    0.338E-01
DAV:   2    -0.192250351369E+03   -0.46435E-02   -0.50031E-02 11520   0.869E-01    0.557E-01
DAV:   3    -0.192248351350E+03    0.20000E-02   -0.13228E-02 12320   0.851E-01    0.382E-01
DAV:   4    -0.192247061542E+03    0.12898E-02   -0.36298E-03 12000   0.414E-01    0.179E-01
DAV:   5    -0.192246764485E+03    0.29706E-03   -0.18106E-03 11680   0.286E-01    0.168E-01
DAV:   6    -0.192246668368E+03    0.96117E-04   -0.11387E-03 10680   0.294E-01    0.128E-01
DAV:   7    -0.192246440826E+03    0.22754E-03   -0.36125E-04  8520   0.143E-01    0.396E-02
DAV:   8    -0.192246432416E+03    0.84102E-05   -0.61724E-05  6720   0.648E-02
  87 F= -.19224643E+03 E0= -.19215473E+03  d E =0.117169E-01
       N       E                     dE             d eps       ncg     rms          rms(c)
DAV:   1    -0.192235106480E+03    0.11334E-01   -0.30846E+00  8160   0.381E+00    0.466E-01
DAV:   2    -0.192239400963E+03   -0.42945E-02   -0.82054E-02 10920   0.850E-01    0.446E-01
DAV:   3    -0.192241874173E+03   -0.24732E-02   -0.17712E-02 12520   0.103E+00    0.675E-01
DAV:   4    -0.192237157613E+03    0.47166E-02   -0.84655E-03 12360   0.757E-01    0.246E-01
DAV:   5    -0.192237394498E+03   -0.23689E-03   -0.37636E-03 11200   0.468E-01    0.310E-01
DAV:   6    -0.192236590632E+03    0.80387E-03   -0.24329E-03 11640   0.409E-01    0.136E-01
DAV:   7    -0.192236301711E+03    0.28892E-03   -0.72868E-04 10480   0.163E-01    0.556E-02
DAV:   8    -0.192236285854E+03    0.15857E-04   -0.11814E-04  8280   0.969E-02
  88 F= -.19223629E+03 E0= -.19214616E+03  d E =0.101466E-01
       N       E                     dE             d eps       ncg     rms          rms(c)
DAV:   1    -0.192238858456E+03   -0.25567E-02   -0.21677E-01  8160   0.100E+00    0.120E-01
DAV:   2    -0.192239712563E+03   -0.85411E-03   -0.88891E-03 11680   0.343E-01    0.185E-01
DAV:   3    -0.192239452138E+03    0.26043E-03   -0.11719E-03 11320   0.289E-01    0.120E-01
DAV:   4    -0.192239334197E+03    0.11794E-03   -0.42502E-04  8520   0.156E-01    0.831E-02
DAV:   5    -0.192239305406E+03    0.28791E-04   -0.27455E-04  8160   0.137E-01
  89 F= -.19223931E+03 E0= -.19214925E+03  d E =-.301955E-02
       N       E                     dE             d eps       ncg     rms          rms(c)
DAV:   1    -0.192240207349E+03   -0.87315E-03   -0.22606E-02  8160   0.347E-01    0.596E-02
DAV:   2    -0.192240330186E+03   -0.12284E-03   -0.11028E-03 12720   0.132E-01    0.961E-02
DAV:   3    -0.192240228598E+03    0.10159E-03   -0.35152E-04  9080   0.148E-01    0.673E-02
DAV:   4    -0.192240196568E+03    0.32030E-04   -0.12813E-04  6240   0.906E-02
  90 F= -.19224020E+03 E0= -.19215010E+03  d E =-.891162E-03
       N       E                     dE             d eps       ncg     rms          rms(c)
DAV:   1    -0.192242198175E+03   -0.19696E-02   -0.10350E-01  8160   0.706E-01    0.110E-01
DAV:   2    -0.192242603372E+03   -0.40520E-03   -0.42665E-03 11720   0.302E-01    0.188E-01
DAV:   3    -0.192242257867E+03    0.34551E-03   -0.95272E-04 10800   0.270E-01    0.879E-02
DAV:   4    -0.192242182020E+03    0.75846E-04   -0.24484E-04  7240   0.120E-01
  91 F= -.19224218E+03 E0= -.19215195E+03  d E =-.198545E-02
       N       E                     dE             d eps       ncg     rms          rms(c)
DAV:   1    -0.192245036178E+03   -0.27783E-02   -0.27166E-01  8160   0.114E+00    0.152E-01
DAV:   2    -0.192245636254E+03   -0.60008E-03   -0.98207E-03 11680   0.296E-01    0.172E-01
DAV:   3    -0.192245774013E+03   -0.13776E-03   -0.19538E-03 11960   0.354E-01    0.219E-01
DAV:   4    -0.192245251484E+03    0.52253E-03   -0.81132E-04  9160   0.224E-01    0.593E-02
DAV:   5    -0.192245299405E+03   -0.47921E-04   -0.36439E-04  8960   0.135E-01
  92 F= -.19224530E+03 E0= -.19215553E+03  d E =-.311738E-02
       N       E                     dE             d eps       ncg     rms          rms(c)
DAV:   1    -0.192246046258E+03   -0.79477E-03   -0.20715E-02  8160   0.335E-01    0.808E-02
DAV:   2    -0.192246614894E+03   -0.56864E-03   -0.19704E-03 11720   0.303E-01    0.231E-01
DAV:   3    -0.192245976869E+03    0.63802E-03   -0.90819E-04 10120   0.276E-01    0.528E-02
DAV:   4    -0.192245962574E+03    0.14295E-04   -0.12403E-04  5920   0.764E-02
  93 F= -.19224596E+03 E0= -.19215604E+03  d E =-.663170E-03
       N       E                     dE             d eps       ncg     rms          rms(c)
DAV:   1    -0.192248049178E+03   -0.20723E-02   -0.15269E-01  8160   0.844E-01    0.111E-01
DAV:   2    -0.192248841172E+03   -0.79199E-03   -0.57861E-03 12000   0.314E-01    0.236E-01
DAV:   3    -0.192248301866E+03    0.53931E-03   -0.15194E-03 11200   0.311E-01    0.976E-02
DAV:   4    -0.192248222164E+03    0.79702E-04   -0.22577E-04  7040   0.984E-02
  94 F= -.19224822E+03 E0= -.19215854E+03  d E =-.225959E-02
       N       E                     dE             d eps       ncg     rms          rms(c)
DAV:   1    -0.192247778210E+03    0.52366E-03   -0.64452E-03  8160   0.202E-01    0.701E-02
DAV:   2    -0.192248756434E+03   -0.97822E-03   -0.17204E-03 11240   0.375E-01    0.282E-01
DAV:   3    -0.192247734832E+03    0.10216E-02   -0.97888E-04 10040   0.302E-01    0.216E-02
DAV:   4    -0.192247749784E+03   -0.14952E-04   -0.29954E-05  5920   0.401E-02
  95 F= -.19224775E+03 E0= -.19215790E+03  d E =0.472380E-03
       N       E                     dE             d eps       ncg     rms          rms(c)
DAV:   1    -0.192250090806E+03   -0.23560E-02   -0.18685E-01  8160   0.932E-01    0.118E-01
DAV:   2    -0.192250976889E+03   -0.88608E-03   -0.70124E-03 10880   0.389E-01    0.234E-01
DAV:   3    -0.192250393037E+03    0.58385E-03   -0.13686E-03 11280   0.316E-01    0.877E-02
DAV:   4    -0.192250359076E+03    0.33961E-04   -0.28157E-04  7800   0.129E-01
  96 F= -.19225036E+03 E0= -.19216074E+03  d E =-.260929E-02
       N       E                     dE             d eps       ncg     rms          rms(c)
DAV:   1    -0.192251763257E+03   -0.13702E-02   -0.59035E-02  8160   0.550E-01    0.933E-02
DAV:   2    -0.192252323840E+03   -0.56058E-03   -0.28043E-03 12600   0.288E-01    0.228E-01
DAV:   3    -0.192251773472E+03    0.55037E-03   -0.10763E-03 11000   0.268E-01    0.685E-02
DAV:   4    -0.192251748900E+03    0.24571E-04   -0.14571E-04  5920   0.788E-02
  97 F= -.19225175E+03 E0= -.19216163E+03  d E =-.138982E-02
       N       E                     dE             d eps       ncg     rms          rms(c)
DAV:   1    -0.192252199368E+03   -0.42590E-03   -0.78458E-03  8160   0.225E-01    0.605E-02
DAV:   2    -0.192252722303E+03   -0.52294E-03   -0.10733E-03 11320   0.279E-01    0.206E-01
DAV:   3    -0.192252152963E+03    0.56934E-03   -0.59146E-04  9040   0.235E-01    0.232E-02
DAV:   4    -0.192252176115E+03   -0.23152E-04   -0.52582E-05  5600   0.509E-02
  98 F= -.19225218E+03 E0= -.19216237E+03  d E =-.427215E-03
       N       E                     dE             d eps       ncg     rms          rms(c)
DAV:   1    -0.192254277255E+03   -0.21243E-02   -0.14375E-01  8160   0.817E-01    0.106E-01
DAV:   2    -0.192254896740E+03   -0.61949E-03   -0.51866E-03 11240   0.304E-01    0.207E-01
DAV:   3    -0.192254511130E+03    0.38561E-03   -0.12160E-03 11120   0.286E-01    0.980E-02
DAV:   4    -0.192254419386E+03    0.91745E-04   -0.22913E-04  6840   0.107E-01
  99 F= -.19225442E+03 E0= -.19216462E+03  d E =-.224327E-02
       N       E                     dE             d eps       ncg     rms          rms(c)
DAV:   1    -0.192254157288E+03    0.35384E-03   -0.29935E-03  8720   0.157E-01    0.714E-02
DAV:   2    -0.192255272511E+03   -0.11152E-02   -0.18391E-03 11240   0.397E-01    0.314E-01
DAV:   3    -0.192254095744E+03    0.11768E-02   -0.12022E-03 10160   0.330E-01    0.163E-02
DAV:   4    -0.192254114308E+03   -0.18564E-04   -0.22332E-05  6000   0.291E-02
 100 F= -.19225411E+03 E0= -.19216425E+03  d E =0.305078E-03
