<?xml version="1.0" encoding="ISO-8859-1"?>
<modeling>
 <generator>
  <i name="program" type="string">vasp </i>
  <i name="version" type="string">5.4.1  </i>
  <i name="subversion" type="string">05Feb16 (build Jul 05 2020 17:13:04) complex                          parallel </i>
  <i name="platform" type="string">IFC91_ompi </i>
  <i name="date" type="string">2024 04 26 </i>
  <i name="time" type="string">13:01:33 </i>
 </generator>
 <incar>
  <i type="int" name="ISTART">     0</i>
  <i type="string" name="PREC">normal</i>
  <i type="string" name="ALGO"> Normal</i>
  <i type="int" name="ISPIN">     1</i>
  <i type="int" name="ICHARG">     2</i>
  <i type="int" name="IBRION">     1</i>
  <i type="int" name="NSW">   100</i>
  <i type="int" name="ISIF">     3</i>
  <i type="int" name="ISYM">     0</i>
  <i name="SYMPREC">      0.00000001</i>
  <i name="POTIM">      0.50000000</i>
  <i type="logical" name="LREAL"> F  </i>
  <i type="logical" name="LPLANE"> F  </i>
  <i type="int" name="ISMEAR">     0</i>
  <i type="logical" name="LWAVE"> F  </i>
  <i type="logical" name="LCHARG"> F  </i>
  <v type="int" name="KPOINT_BSE">    -1     0     0     0</v>
 </incar>
 <kpoints>
  <generation param="Gamma">
   <v type="int" name="divisions">       8        8        1 </v>
   <v name="usershift">      0.00000000       0.00000000       0.00000000 </v>
   <v name="genvec1">      0.12500000       0.00000000       0.00000000 </v>
   <v name="genvec2">     -0.00000000       0.12500000       0.00000000 </v>
   <v name="genvec3">      0.00000000       0.00000000       1.00000000 </v>
   <v name="shift">      0.00000000       0.00000000       0.00000000 </v>
  </generation>
  <varray name="kpointlist" >
   <v>       0.00000000       0.00000000       0.00000000 </v>
   <v>       0.12500000       0.00000000       0.00000000 </v>
   <v>       0.25000000       0.00000000       0.00000000 </v>
   <v>       0.37500000       0.00000000       0.00000000 </v>
   <v>       0.50000000       0.00000000       0.00000000 </v>
   <v>       0.00000000       0.12500000       0.00000000 </v>
   <v>       0.12500000       0.12500000       0.00000000 </v>
   <v>       0.25000000       0.12500000       0.00000000 </v>
   <v>       0.37500000       0.12500000       0.00000000 </v>
   <v>       0.50000000       0.12500000       0.00000000 </v>
   <v>      -0.37500000       0.12500000       0.00000000 </v>
   <v>      -0.25000000       0.12500000       0.00000000 </v>
   <v>      -0.12500000       0.12500000       0.00000000 </v>
   <v>       0.00000000       0.25000000       0.00000000 </v>
   <v>       0.12500000       0.25000000       0.00000000 </v>
   <v>       0.25000000       0.25000000       0.00000000 </v>
   <v>       0.37500000       0.25000000       0.00000000 </v>
   <v>       0.50000000       0.25000000       0.00000000 </v>
   <v>      -0.37500000       0.25000000       0.00000000 </v>
   <v>      -0.25000000       0.25000000       0.00000000 </v>
   <v>      -0.12500000       0.25000000       0.00000000 </v>
   <v>      -0.00000000       0.37500000       0.00000000 </v>
   <v>       0.12500000       0.37500000       0.00000000 </v>
   <v>       0.25000000       0.37500000       0.00000000 </v>
   <v>       0.37500000       0.37500000       0.00000000 </v>
   <v>       0.50000000       0.37500000       0.00000000 </v>
   <v>      -0.37500000       0.37500000       0.00000000 </v>
   <v>      -0.25000000       0.37500000       0.00000000 </v>
   <v>      -0.12500000       0.37500000       0.00000000 </v>
   <v>       0.00000000       0.50000000       0.00000000 </v>
   <v>       0.12500000       0.50000000       0.00000000 </v>
   <v>       0.25000000       0.50000000       0.00000000 </v>
   <v>       0.37500000       0.50000000       0.00000000 </v>
   <v>       0.50000000       0.50000000       0.00000000 </v>
  </varray>
  <varray name="weights" >
   <v>       0.01562500 </v>
   <v>       0.03125000 </v>
   <v>       0.03125000 </v>
   <v>       0.03125000 </v>
   <v>       0.01562500 </v>
   <v>       0.03125000 </v>
   <v>       0.03125000 </v>
   <v>       0.03125000 </v>
   <v>       0.03125000 </v>
   <v>       0.03125000 </v>
   <v>       0.03125000 </v>
   <v>       0.03125000 </v>
   <v>       0.03125000 </v>
   <v>       0.03125000 </v>
   <v>       0.03125000 </v>
   <v>       0.03125000 </v>
   <v>       0.03125000 </v>
   <v>       0.03125000 </v>
   <v>       0.03125000 </v>
   <v>       0.03125000 </v>
   <v>       0.03125000 </v>
   <v>       0.03125000 </v>
   <v>       0.03125000 </v>
   <v>       0.03125000 </v>
   <v>       0.03125000 </v>
   <v>       0.03125000 </v>
   <v>       0.03125000 </v>
   <v>       0.03125000 </v>
   <v>       0.03125000 </v>
   <v>       0.01562500 </v>
   <v>       0.03125000 </v>
   <v>       0.03125000 </v>
   <v>       0.03125000 </v>
   <v>       0.01562500 </v>
  </varray>
 </kpoints>
 <parameters>
  <separator name="general" >
   <i type="string" name="SYSTEM">unknown system</i>
   <i type="logical" name="LCOMPAT"> F  </i>
  </separator>
  <separator name="electronic" >
   <i type="string" name="PREC">normal</i>
   <i name="ENMAX">    280.00000000</i>
   <i name="ENAUG">    373.43800000</i>
   <i name="EDIFF">      0.00010000</i>
   <i type="int" name="IALGO">    38</i>
   <i type="int" name="IWAVPR">    11</i>
   <i type="int" name="NBANDS">   120</i>
   <i name="NELECT">    159.00000000</i>
   <i type="int" name="TURBO">     0</i>
   <i type="int" name="IRESTART">     0</i>
   <i type="int" name="NREBOOT">     0</i>
   <i type="int" name="NMIN">     0</i>
   <i name="EREF">      0.00000000</i>
   <separator name="electronic smearing" >
    <i type="int" name="ISMEAR">     0</i>
    <i name="SIGMA">      0.20000000</i>
    <i name="KSPACING">      0.50000000</i>
    <i type="logical" name="KGAMMA"> T  </i>
   </separator>
   <separator name="electronic projectors" >
    <i type="logical" name="LREAL"> F  </i>
    <v name="ROPT">      0.00000000      0.00000000      0.00000000      0.00000000</v>
    <i type="int" name="LMAXPAW">  -100</i>
    <i type="int" name="LMAXMIX">     2</i>
    <i type="logical" name="NLSPLINE"> F  </i>
   </separator>
   <separator name="electronic startup" >
    <i type="int" name="ISTART">     0</i>
    <i type="int" name="ICHARG">     2</i>
    <i type="int" name="INIWAV">     1</i>
   </separator>
   <separator name="electronic spin" >
    <i type="int" name="ISPIN">     1</i>
    <i type="logical" name="LNONCOLLINEAR"> F  </i>
    <v name="MAGMOM">      1.00000000      1.00000000      1.00000000      1.00000000      1.00000000      1.00000000      1.00000000      1.00000000      1.00000000      1.00000000      1.00000000      1.00000000      1.00000000      1.00000000      1.00000000      1.00000000      1.00000000      1.00000000      1.00000000      1.00000000
      1.00000000      1.00000000      1.00000000      1.00000000      1.00000000      1.00000000      1.00000000</v>
    <i name="NUPDOWN">     -1.00000000</i>
    <i type="logical" name="LSORBIT"> F  </i>
    <v name="SAXIS">      0.00000000      0.00000000      1.00000000</v>
    <i type="logical" name="LSPIRAL"> F  </i>
    <v name="QSPIRAL">      0.00000000      0.00000000      0.00000000</v>
    <i type="logical" name="LZEROZ"> F  </i>
   </separator>
   <separator name="electronic exchange-correlation" >
    <i type="logical" name="LASPH"> F  </i>
    <i type="logical" name="LMETAGGA"> F  </i>
   </separator>
   <separator name="electronic convergence" >
    <i type="int" name="NELM">    60</i>
    <i type="int" name="NELMDL">    -5</i>
    <i type="int" name="NELMIN">     2</i>
    <i name="ENINI">    280.00000000</i>
    <separator name="electronic convergence detail" >
     <i type="logical" name="LDIAG"> T  </i>
     <i type="logical" name="LSUBROT"> F  </i>
     <i name="WEIMIN">      0.00100000</i>
     <i name="EBREAK">      0.00000021</i>
     <i name="DEPER">      0.30000000</i>
     <i type="int" name="NRMM">     4</i>
     <i name="TIME">      0.40000000</i>
    </separator>
   </separator>
   <separator name="electronic mixer" >
    <i name="AMIX">      0.40000000</i>
    <i name="BMIX">      1.00000000</i>
    <i name="AMIN">      0.10000000</i>
    <i name="AMIX_MAG">      1.60000000</i>
    <i name="BMIX_MAG">      1.00000000</i>
    <separator name="electronic mixer details" >
     <i type="int" name="IMIX">     4</i>
     <i type="logical" name="MIXFIRST"> F  </i>
     <i type="int" name="MAXMIX">   -45</i>
     <i name="WC">    100.00000000</i>
     <i type="int" name="INIMIX">     1</i>
     <i type="int" name="MIXPRE">     1</i>
     <i type="int" name="MREMOVE">     5</i>
    </separator>
   </separator>
   <separator name="electronic dipolcorrection" >
    <i type="logical" name="LDIPOL"> F  </i>
    <i type="logical" name="LMONO"> F  </i>
    <i type="int" name="IDIPOL">     0</i>
    <i name="EPSILON">      1.00000000</i>
    <v name="DIPOL">   -100.00000000   -100.00000000   -100.00000000</v>
    <i name="EFIELD">      0.00000000</i>
   </separator>
  </separator>
  <separator name="grids" >
   <i type="int" name="NGX">    42</i>
   <i type="int" name="NGY">    42</i>
   <i type="int" name="NGZ">   126</i>
   <i type="int" name="NGXF">    84</i>
   <i type="int" name="NGYF">    84</i>
   <i type="int" name="NGZF">   252</i>
   <i type="logical" name="ADDGRID"> F  </i>
  </separator>
  <separator name="ionic" >
   <i type="int" name="NSW">   100</i>
   <i type="int" name="IBRION">     1</i>
   <i type="int" name="ISIF">     3</i>
   <i name="PSTRESS">      0.00000000</i>
   <i name="EDIFFG">      0.00100000</i>
   <i type="int" name="NFREE">     0</i>
   <i name="POTIM">      0.50000000</i>
   <i name="SMASS">     -3.00000000</i>
   <i name="SCALEE">      1.00000000</i>
  </separator>
  <separator name="ionic md" >
   <i name="TEBEG">      0.00010000</i>
   <i name="TEEND">      0.00010000</i>
   <i type="int" name="NBLOCK">     1</i>
   <i type="int" name="KBLOCK">   100</i>
   <i type="int" name="NPACO">   256</i>
   <i name="APACO">     16.00000000</i>
  </separator>
  <separator name="symmetry" >
   <i type="int" name="ISYM">     0</i>
   <i name="SYMPREC">      0.00000001</i>
  </separator>
  <separator name="dos" >
   <i type="logical" name="LORBIT"> F  </i>
   <v name="RWIGS">     -1.00000000     -1.00000000     -1.00000000     -1.00000000</v>
   <i type="int" name="NEDOS">   301</i>
   <i name="EMIN">     10.00000000</i>
   <i name="EMAX">    -10.00000000</i>
   <i name="EFERMI">      0.00000000</i>
  </separator>
  <separator name="writing" >
   <i type="int" name="NWRITE">     2</i>
   <i type="logical" name="LWAVE"> F  </i>
   <i type="logical" name="LCHARG"> F  </i>
   <i type="logical" name="LPARD"> F  </i>
   <i type="logical" name="LVTOT"> F  </i>
   <i type="logical" name="LVHAR"> F  </i>
   <i type="logical" name="LELF"> F  </i>
   <i type="logical" name="LOPTICS"> F  </i>
   <v name="STM">      0.00000000      0.00000000      0.00000000      0.00000000      0.00000000      0.00000000      0.00000000</v>
  </separator>
  <separator name="performance" >
   <i type="int" name="NPAR">    40</i>
   <i type="int" name="NSIM">     4</i>
   <i type="int" name="NBLK">    -1</i>
   <i type="logical" name="LPLANE"> F  </i>
   <i type="logical" name="LSCALAPACK"> T  </i>
   <i type="logical" name="LSCAAWARE"> F  </i>
   <i type="logical" name="LSCALU"> F  </i>
   <i type="logical" name="LASYNC"> F  </i>
   <i type="logical" name="LORBITALREAL"> F  </i>
  </separator>
  <separator name="miscellaneous" >
   <i type="int" name="IDIOT">     3</i>
   <i type="logical" name="LMUSIC"> F  </i>
   <v name="POMASS">     50.94100000     95.94000000    183.85000000     32.06600000</v>
   <v name="DARWINR">      0.00000000      0.00000000      0.00000000      0.00000000</v>
   <v name="DARWINV">      1.00000000      1.00000000      1.00000000      1.00000000</v>
   <i type="logical" name="LCORR"> T  </i>
  </separator>
  <i type="logical" name="GGA_COMPAT"> T  </i>
  <i type="logical" name="LBERRY"> F  </i>
  <i type="int" name="ICORELEVEL">     0</i>
  <i type="logical" name="LDAU"> F  </i>
  <i type="int" name="I_CONSTRAINED_M">     0</i>
  <separator name="electronic exchange-correlation" >
   <i type="string" name="GGA">--</i>
   <i type="int" name="VOSKOWN">     0</i>
   <i type="logical" name="LHFCALC"> F  </i>
   <i type="string" name="PRECFOCK"></i>
   <i type="logical" name="LSYMGRAD"> F  </i>
   <i type="logical" name="LHFONE"> F  </i>
   <i type="logical" name="LRHFCALC"> F  </i>
   <i type="logical" name="LTHOMAS"> F  </i>
   <i type="logical" name="LMODELHF"> F  </i>
   <i name="ENCUT4O">     -1.00000000</i>
   <i type="int" name="EXXOEP">     0</i>
   <i type="int" name="FOURORBIT">     0</i>
   <i name="AEXX">      0.00000000</i>
   <i name="HFALPHA">      0.00000000</i>
   <i name="MCALPHA">      0.00000000</i>
   <i name="ALDAX">      1.00000000</i>
   <i name="AGGAX">      1.00000000</i>
   <i name="ALDAC">      1.00000000</i>
   <i name="AGGAC">      1.00000000</i>
   <i type="int" name="NKREDX">     1</i>
   <i type="int" name="NKREDY">     1</i>
   <i type="int" name="NKREDZ">     1</i>
   <i type="logical" name="SHIFTRED"> F  </i>
   <i type="logical" name="ODDONLY"> F  </i>
   <i type="logical" name="EVENONLY"> F  </i>
   <i type="int" name="LMAXFOCK">     0</i>
   <i type="int" name="NMAXFOCKAE">     0</i>
   <i type="logical" name="LFOCKAEDFT"> F  </i>
   <i name="HFSCREEN">      0.00000000</i>
   <i name="HFSCREENC">      0.00000000</i>
   <i type="int" name="NBANDSGWLOW">     0</i>
  </separator>
  <separator name="vdW DFT" >
   <i type="logical" name="LUSE_VDW"> F  </i>
   <i name="Zab_VDW">     -0.84910000</i>
   <i name="PARAM1">      0.12340000</i>
   <i name="PARAM2">      1.00000000</i>
   <i name="PARAM3">      0.00000000</i>
  </separator>
  <separator name="model GW" >
   <i type="int" name="MODEL_GW">     0</i>
   <i name="MODEL_EPS0">     58.26239943</i>
   <i name="MODEL_ALPHA">      1.00000000</i>
  </separator>
  <separator name="linear response parameters" >
   <i type="logical" name="LEPSILON"> F  </i>
   <i type="logical" name="LRPA"> F  </i>
   <i type="logical" name="LNABLA"> F  </i>
   <i type="logical" name="LVEL"> F  </i>
   <i type="int" name="KINTER">     0</i>
   <i name="CSHIFT">      0.10000000</i>
   <i name="OMEGAMAX">     -1.00000000</i>
   <i name="DEG_THRESHOLD">      0.00200000</i>
  </separator>
  <separator name="orbital magnetization" >
   <i type="logical" name="NUCIND"> F  </i>
   <v name="MAGPOS">      0.00000000      0.00000000      0.00000000</v>
   <i type="logical" name="LNICSALL"> T  </i>
   <i type="logical" name="ORBITALMAG"> F  </i>
   <i type="logical" name="LMAGBLOCH"> F  </i>
   <i type="logical" name="LCHIMAG"> F  </i>
   <i type="logical" name="LGAUGE"> T  </i>
   <i type="int" name="MAGATOM">     0</i>
   <v name="MAGDIPOL">      0.00000000      0.00000000      0.00000000</v>
   <v name="AVECCONST">      0.00000000      0.00000000      0.00000000</v>
  </separator>
  <separator name="response functions" >
   <i type="logical" name="LADDER"> F  </i>
   <i type="logical" name="LFXC"> F  </i>
   <i type="logical" name="LHARTREE"> T  </i>
   <i type="int" name="IBSE">     0</i>
   <v type="int" name="KPOINT">    -1     0     0     0</v>
   <i type="logical" name="LTCTE"> F  </i>
   <i type="logical" name="LTETE"> F  </i>
   <i type="logical" name="LTRIPLET"> F  </i>
   <i type="logical" name="LFXCEPS"> F  </i>
   <i type="logical" name="LFXHEG"> F  </i>
   <i type="int" name="NATURALO">     0</i>
   <i type="logical" name="L2ORDER"> F  </i>
   <i type="logical" name="LUSEW"> F  </i>
   <i name="ENCUTGW">     -2.00000000</i>
   <i name="ENCUTGWSOFT">     -2.00000000</i>
   <i name="ENCUTLF">     -1.00000000</i>
   <i type="int" name="LMAXMP2">    -1</i>
   <i name="SCISSOR">      0.00000000</i>
   <i type="int" name="NOMEGA">     0</i>
   <i type="int" name="NOMEGAR">     0</i>
   <i type="int" name="NBANDSGW">    -1</i>
   <i type="int" name="NBANDSO">    -1</i>
   <i type="int" name="NBANDSV">    -1</i>
   <i type="int" name="NELM">     1</i>
   <i type="int" name="NELMHF">     1</i>
   <i type="int" name="DIM">     3</i>
   <i type="int" name="ANTIRES">     0</i>
   <i name="OMEGAMAX">    -30.00000000</i>
   <i name="OMEGAMIN">    -30.00000000</i>
   <i name="OMEGATL">   -200.00000000</i>
   <i type="int" name="OMEGAGRID">     0</i>
   <i name="CSHIFT">     -0.10000000</i>
   <i type="logical" name="SELFENERGY"> F  </i>
   <i type="logical" name="LSPECTRAL"> F  </i>
   <i type="logical" name="LSPECTRALGW"> F  </i>
   <i type="logical" name="LSINGLES"> F  </i>
   <i type="logical" name="LFERMIGW"> F  </i>
   <i type="logical" name="ODDONLYGW"> F  </i>
   <i type="logical" name="EVENONLYGW"> F  </i>
   <i type="int" name="NKREDLFX">     1</i>
   <i type="int" name="NKREDLFY">     1</i>
   <i type="int" name="NKREDLFZ">     1</i>
   <i type="int" name="MAXMEM">  1800</i>
   <i type="int" name="TELESCOPE">     0</i>
   <i type="int" name="TAUPAR">     1</i>
   <i type="int" name="OMEGAPAR">    -1</i>
   <i name="LAMBDA">      1.00000000</i>
  </separator>
  <separator name="External order field" >
   <i name="OFIELD_KAPPA">      0.00000000</i>
   <v name="OFIELD_K">      0.00000000      0.00000000      0.00000000</v>
   <i name="OFIELD_Q6_NEAR">      0.00000000</i>
   <i name="OFIELD_Q6_FAR">      0.00000000</i>
   <i name="OFIELD_A">      0.00000000</i>
  </separator>
 </parameters>
 <atominfo>
  <atoms>      27 </atoms>
  <types>       4 </types>
  <array name="atoms" >
   <dimension dim="1">ion</dimension>
   <field type="string">element</field>
   <field type="int">atomtype</field>
   <set>
    <rc><c>V </c><c>   1</c></rc>
    <rc><c>V </c><c>   1</c></rc>
    <rc><c>V </c><c>   1</c></rc>
    <rc><c>Mo</c><c>   2</c></rc>
    <rc><c>Mo</c><c>   2</c></rc>
    <rc><c>Mo</c><c>   2</c></rc>
    <rc><c>W </c><c>   3</c></rc>
    <rc><c>W </c><c>   3</c></rc>
    <rc><c>W </c><c>   3</c></rc>
    <rc><c>S </c><c>   4</c></rc>
    <rc><c>S </c><c>   4</c></rc>
    <rc><c>S </c><c>   4</c></rc>
    <rc><c>S </c><c>   4</c></rc>
    <rc><c>S </c><c>   4</c></rc>
    <rc><c>S </c><c>   4</c></rc>
    <rc><c>S </c><c>   4</c></rc>
    <rc><c>S </c><c>   4</c></rc>
    <rc><c>S </c><c>   4</c></rc>
    <rc><c>S </c><c>   4</c></rc>
    <rc><c>S </c><c>   4</c></rc>
    <rc><c>S </c><c>   4</c></rc>
    <rc><c>S </c><c>   4</c></rc>
    <rc><c>S </c><c>   4</c></rc>
    <rc><c>S </c><c>   4</c></rc>
    <rc><c>S </c><c>   4</c></rc>
    <rc><c>S </c><c>   4</c></rc>
    <rc><c>S </c><c>   4</c></rc>
   </set>
  </array>
  <array name="atomtypes" >
   <dimension dim="1">type</dimension>
   <field type="int">atomspertype</field>
   <field type="string">element</field>
   <field>mass</field>
   <field>valence</field>
   <field type="string">pseudopotential</field>
   <set>
    <rc><c>   3</c><c>V </c><c>     50.94100000</c><c>      5.00000000</c><c> PAW_PBE V 08Apr2002                    </c></rc>
    <rc><c>   3</c><c>Mo</c><c>     95.94000000</c><c>      6.00000000</c><c> PAW_PBE Mo 08Apr2002                   </c></rc>
    <rc><c>   3</c><c>W </c><c>    183.85000000</c><c>      6.00000000</c><c> PAW_PBE W 08Apr2002                    </c></rc>
    <rc><c>  18</c><c>S </c><c>     32.06600000</c><c>      6.00000000</c><c>  PAW_PBE S 17Jan2003                   </c></rc>
   </set>
  </array>
 </atominfo>
 <structure name="initialpos" >
  <crystal>
   <varray name="basis" >
    <v>       8.66999996       5.03999989       0.00000000 </v>
    <v>      -8.66999982       5.04000013       0.00000000 </v>
    <v>       0.00000000       0.00000000      30.00000000 </v>
   </varray>
   <i name="volume">   2621.80797419 </i>
   <varray name="rec_basis" >
    <v>       0.05767013       0.09920635       0.00000000 </v>
    <v>      -0.05767013       0.09920635       0.00000000 </v>
    <v>       0.00000000       0.00000000       0.03333333 </v>
   </varray>
  </crystal>
  <varray name="positions" >
   <v>       0.66666669       0.33333334       0.00000000 </v>
   <v>       0.66666669       0.00000000       0.00000000 </v>
   <v>       0.66666669       0.66666669       0.00000000 </v>
   <v>       0.33333334       0.33333334       0.00000000 </v>
   <v>       0.33333334       0.00000000       0.00000000 </v>
   <v>       1.00000000       0.33333334       0.00000000 </v>
   <v>       0.00000000       0.00000000       0.00000000 </v>
   <v>       0.00000000       0.66666669       0.00000000 </v>
   <v>       0.33333334       0.66666669       0.00000000 </v>
   <v>       0.11068511       0.22244981       0.95539999 </v>
   <v>       0.22244981       0.11068511       0.04460000 </v>
   <v>       0.11068511       0.55578315       0.95539999 </v>
   <v>       0.22244981       0.44401845       0.04460000 </v>
   <v>       0.11068511       0.88911647       0.95539999 </v>
   <v>       0.22244981       0.77735180       0.04460000 </v>
   <v>       0.44401845       0.22244981       0.95539999 </v>
   <v>       0.55578315       0.11068511       0.04460000 </v>
   <v>       0.44401845       0.55578315       0.95539999 </v>
   <v>       0.55578315       0.44401845       0.04460000 </v>
   <v>       0.44401845       0.88911647       0.95539999 </v>
   <v>       0.55578315       0.77735180       0.04460000 </v>
   <v>       0.77735180       0.22244981       0.95539999 </v>
   <v>       0.88911647       0.11068511       0.04460000 </v>
   <v>       0.77735180       0.55578315       0.95539999 </v>
   <v>       0.88911647       0.44401845       0.04460000 </v>
   <v>       0.77735180       0.88911647       0.95539999 </v>
   <v>       0.88911647       0.77735180       0.04460000 </v>
  </varray>
 </structure>
 <calculation>
  <scstep>
   <time name="dav">   21.50   21.56</time>
   <time name="total">   21.55   21.61</time>
   <energy>
    <i name="alphaZ">     81.65567618 </i>
    <i name="ewald">  41891.19377233 </i>
    <i name="hartreedc"> -47723.83794990 </i>
    <i name="XCdc">   -242.92495579 </i>
    <i name="pawpsdc">   3467.42045192 </i>
    <i name="pawaedc">  -2871.19716117 </i>
    <i name="eentropy">     -0.52967098 </i>
    <i name="bandstr">   -239.64066775 </i>
    <i name="atom">   6761.44252427 </i>
    <i name="e_fr_energy">   1123.58201911 </i>
    <i name="e_wo_entrp">   1124.11169009 </i>
    <i name="e_0_energy">   1123.84685460 </i>
   </energy>
  </scstep>
  <scstep>
   <time name="dav">   27.51   27.57</time>
   <time name="total">   27.51   27.58</time>
   <energy>
    <i name="e_fr_energy">     -2.22360225 </i>
    <i name="e_wo_entrp">     -2.04109131 </i>
    <i name="e_0_energy">     -2.13234678 </i>
   </energy>
  </scstep>
  <scstep>
   <time name="dav">   27.33   27.40</time>
   <time name="total">   27.33   27.41</time>
   <energy>
    <i name="e_fr_energy">   -199.75189276 </i>
    <i name="e_wo_entrp">   -199.50024186 </i>
    <i name="e_0_energy">   -199.62606731 </i>
   </energy>
  </scstep>
  <scstep>
   <time name="dav">   29.48   29.55</time>
   <time name="total">   29.48   29.56</time>
   <energy>
    <i name="e_fr_energy">   -209.05096255 </i>
    <i name="e_wo_entrp">   -208.78860552 </i>
    <i name="e_0_energy">   -208.91978403 </i>
   </energy>
  </scstep>
  <scstep>
   <time name="dav">   28.41   28.47</time>
   <time name="total">   28.88   28.95</time>
   <energy>
    <i name="e_fr_energy">   -209.40198612 </i>
    <i name="e_wo_entrp">   -209.14303030 </i>
    <i name="e_0_energy">   -209.27250821 </i>
   </energy>
  </scstep>
  <scstep>
   <time name="dav">   30.42   30.49</time>
   <time name="total">   30.92   31.00</time>
   <energy>
    <i name="e_fr_energy">   -241.49724468 </i>
    <i name="e_wo_entrp">   -241.21637593 </i>
    <i name="e_0_energy">   -241.35681030 </i>
   </energy>
  </scstep>
  <scstep>
   <time name="dav">   32.15   32.22</time>
   <time name="total">   32.65   32.74</time>
   <energy>
    <i name="e_fr_energy">   -196.12661493 </i>
    <i name="e_wo_entrp">   -195.80073293 </i>
    <i name="e_0_energy">   -195.96367393 </i>
   </energy>
  </scstep>
  <scstep>
   <time name="dav">   29.70   29.77</time>
   <time name="total">   30.22   30.30</time>
   <energy>
    <i name="e_fr_energy">   -189.33852390 </i>
    <i name="e_wo_entrp">   -189.00651004 </i>
    <i name="e_0_energy">   -189.17251697 </i>
   </energy>
  </scstep>
  <scstep>
   <time name="dav">   32.09   32.17</time>
   <time name="total">   32.62   32.70</time>
   <energy>
    <i name="e_fr_energy">   -188.07295168 </i>
    <i name="e_wo_entrp">   -187.73950447 </i>
    <i name="e_0_energy">   -187.90622807 </i>
   </energy>
  </scstep>
  <scstep>
   <time name="dav">   32.65   32.73</time>
   <time name="total">   33.18   33.27</time>
   <energy>
    <i name="e_fr_energy">   -186.95333533 </i>
    <i name="e_wo_entrp">   -186.59820812 </i>
    <i name="e_0_energy">   -186.77577173 </i>
   </energy>
  </scstep>
  <scstep>
   <time name="dav">   32.82   32.90</time>
   <time name="total">   33.35   33.44</time>
   <energy>
    <i name="e_fr_energy">   -187.07488312 </i>
    <i name="e_wo_entrp">   -186.73691567 </i>
    <i name="e_0_energy">   -186.90589939 </i>
   </energy>
  </scstep>
  <scstep>
   <time name="dav">   31.33   31.40</time>
   <time name="total">   31.86   31.95</time>
   <energy>
    <i name="e_fr_energy">   -186.95411574 </i>
    <i name="e_wo_entrp">   -186.61092317 </i>
    <i name="e_0_energy">   -186.78251946 </i>
   </energy>
  </scstep>
  <scstep>
   <time name="dav">   31.06   31.14</time>
   <time name="total">   31.60   31.68</time>
   <energy>
    <i name="e_fr_energy">   -186.87700576 </i>
    <i name="e_wo_entrp">   -186.53374586 </i>
    <i name="e_0_energy">   -186.70537581 </i>
   </energy>
  </scstep>
  <scstep>
   <time name="dav">   29.98   30.06</time>
   <time name="total">   30.51   30.60</time>
   <energy>
    <i name="e_fr_energy">   -186.85640837 </i>
    <i name="e_wo_entrp">   -186.50847599 </i>
    <i name="e_0_energy">   -186.68244218 </i>
   </energy>
  </scstep>
  <scstep>
   <time name="dav">   30.45   30.52</time>
   <time name="total">   30.98   31.07</time>
   <energy>
    <i name="e_fr_energy">   -186.85308628 </i>
    <i name="e_wo_entrp">   -186.50543230 </i>
    <i name="e_0_energy">   -186.67925929 </i>
   </energy>
  </scstep>
  <scstep>
   <time name="dav">   31.60   31.67</time>
   <time name="total">   32.13   32.21</time>
   <energy>
    <i name="e_fr_energy">   -186.84859642 </i>
    <i name="e_wo_entrp">   -186.50134249 </i>
    <i name="e_0_energy">   -186.67496946 </i>
   </energy>
  </scstep>
  <scstep>
   <time name="dav">   30.89   30.96</time>
   <time name="total">   31.42   31.51</time>
   <energy>
    <i name="e_fr_energy">   -186.84744703 </i>
    <i name="e_wo_entrp">   -186.50142742 </i>
    <i name="e_0_energy">   -186.67443723 </i>
   </energy>
  </scstep>
  <scstep>
   <time name="dav">   30.50   30.58</time>
   <time name="total">   31.04   31.12</time>
   <energy>
    <i name="e_fr_energy">   -186.84684264 </i>
    <i name="e_wo_entrp">   -186.50024791 </i>
    <i name="e_0_energy">   -186.67354528 </i>
   </energy>
  </scstep>
  <scstep>
   <time name="dav">   22.81   22.86</time>
   <time name="total">   23.34   23.41</time>
   <energy>
    <i name="e_fr_energy">   -186.84702013 </i>
    <i name="e_wo_entrp">   -186.50051252 </i>
    <i name="e_0_energy">   -186.67376633 </i>
   </energy>
  </scstep>
  <scstep>
   <time name="dav">   23.77   23.82</time>
   <time name="total">   24.30   24.37</time>
   <energy>
    <i name="e_fr_energy">   -186.84771436 </i>
    <i name="e_wo_entrp">   -186.50154329 </i>
    <i name="e_0_energy">   -186.67462883 </i>
   </energy>
  </scstep>
  <scstep>
   <time name="dav">   21.48   21.53</time>
   <time name="total">   22.01   22.07</time>
   <energy>
    <i name="e_fr_energy">   -186.84870508 </i>
    <i name="e_wo_entrp">   -186.50253577 </i>
    <i name="e_0_energy">   -186.67562042 </i>
   </energy>
  </scstep>
  <scstep>
   <time name="dav">   18.77   18.81</time>
   <time name="total">   19.30   19.35</time>
   <energy>
    <i name="e_fr_energy">   -186.84948297 </i>
    <i name="e_wo_entrp">   -186.50327323 </i>
    <i name="e_0_energy">   -186.67637810 </i>
   </energy>
  </scstep>
  <scstep>
   <time name="dav">   20.14   20.19</time>
   <time name="total">   20.68   20.74</time>
   <energy>
    <i name="e_fr_energy">   -186.85056361 </i>
    <i name="e_wo_entrp">   -186.50433470 </i>
    <i name="e_0_energy">   -186.67744915 </i>
   </energy>
  </scstep>
  <scstep>
   <time name="dav">   17.88   17.92</time>
   <time name="total">   18.41   18.46</time>
   <energy>
    <i name="e_fr_energy">   -186.85118820 </i>
    <i name="e_wo_entrp">   -186.50496711 </i>
    <i name="e_0_energy">   -186.67807766 </i>
   </energy>
  </scstep>
  <scstep>
   <time name="dav">   17.08   17.12</time>
   <time name="total">   17.62   17.67</time>
   <energy>
    <i name="e_fr_energy">   -186.85157094 </i>
    <i name="e_wo_entrp">   -186.50533750 </i>
    <i name="e_0_energy">   -186.67845422 </i>
   </energy>
  </scstep>
  <scstep>
   <time name="dav">   19.02   19.06</time>
   <time name="total">   19.55   19.61</time>
   <energy>
    <i name="e_fr_energy">   -186.85177374 </i>
    <i name="e_wo_entrp">   -186.50554799 </i>
    <i name="e_0_energy">   -186.67866087 </i>
   </energy>
  </scstep>
  <scstep>
   <time name="dav">   19.05   19.09</time>
   <time name="total">   19.08   19.14</time>
   <energy>
    <i name="alphaZ">     81.65567618 </i>
    <i name="ewald">  41891.19377233 </i>
    <i name="hartreedc"> -47833.70643172 </i>
    <i name="XCdc">   -231.60277210 </i>
    <i name="pawpsdc">   4192.07434537 </i>
    <i name="pawaedc">  -3610.08014069 </i>
    <i name="eentropy">     -0.34622472 </i>
    <i name="bandstr">  -1437.48260680 </i>
    <i name="atom">   6761.44252427 </i>
    <i name="e_fr_energy">   -186.85185788 </i>
    <i name="e_wo_entrp">   -186.50563316 </i>
    <i name="e_0_energy">   -186.67874552 </i>
   </energy>
  </scstep>
  <structure>
   <crystal>
    <varray name="basis" >
     <v>       8.66999996       5.03999989       0.00000000 </v>
     <v>      -8.66999982       5.04000013       0.00000000 </v>
     <v>       0.00000000       0.00000000      30.00000000 </v>
    </varray>
    <i name="volume">   2621.80797419 </i>
    <varray name="rec_basis" >
     <v>       0.05767013       0.09920635       0.00000000 </v>
     <v>      -0.05767013       0.09920635       0.00000000 </v>
     <v>       0.00000000       0.00000000       0.03333333 </v>
    </varray>
   </crystal>
   <varray name="positions" >
    <v>       0.66666669       0.33333334       0.00000000 </v>
    <v>       0.66666669       0.00000000       0.00000000 </v>
    <v>       0.66666669       0.66666669       0.00000000 </v>
    <v>       0.33333334       0.33333334       0.00000000 </v>
    <v>       0.33333334       0.00000000       0.00000000 </v>
    <v>       1.00000000       0.33333334       0.00000000 </v>
    <v>       0.00000000       0.00000000       0.00000000 </v>
    <v>       0.00000000       0.66666669       0.00000000 </v>
    <v>       0.33333334       0.66666669       0.00000000 </v>
    <v>       0.11068511       0.22244981       0.95539999 </v>
    <v>       0.22244981       0.11068511       0.04460000 </v>
    <v>       0.11068511       0.55578315       0.95539999 </v>
    <v>       0.22244981       0.44401845       0.04460000 </v>
    <v>       0.11068511       0.88911647       0.95539999 </v>
    <v>       0.22244981       0.77735180       0.04460000 </v>
    <v>       0.44401845       0.22244981       0.95539999 </v>
    <v>       0.55578315       0.11068511       0.04460000 </v>
    <v>       0.44401845       0.55578315       0.95539999 </v>
    <v>       0.55578315       0.44401845       0.04460000 </v>
    <v>       0.44401845       0.88911647       0.95539999 </v>
    <v>       0.55578315       0.77735180       0.04460000 </v>
    <v>       0.77735180       0.22244981       0.95539999 </v>
    <v>       0.88911647       0.11068511       0.04460000 </v>
    <v>       0.77735180       0.55578315       0.95539999 </v>
    <v>       0.88911647       0.44401845       0.04460000 </v>
    <v>       0.77735180       0.88911647       0.95539999 </v>
    <v>       0.88911647       0.77735180       0.04460000 </v>
   </varray>
  </structure>
  <varray name="forces" >
   <v>       0.00155865      -0.24518289       0.01539102 </v>
   <v>      -0.22320978       0.13531008      -0.02798049 </v>
   <v>       0.00855026      -0.23569698       0.00990854 </v>
   <v>       0.04940741      -0.27300363       0.14075100 </v>
   <v>      -0.25361371       0.14809379       0.09460126 </v>
   <v>       0.22067561       0.13998011      -0.12269086 </v>
   <v>      -0.08354735       0.54879783      -0.15432173 </v>
   <v>       0.25508086       0.03971754      -0.12156044 </v>
   <v>       0.05722553      -0.21428956       0.12309995 </v>
   <v>       0.18681917      -0.19212301      -2.92987183 </v>
   <v>      -0.18379531      -0.11940646       2.94836694 </v>
   <v>       0.02914017       0.09897668      -2.95076976 </v>
   <v>      -0.18711729       0.18875594       2.89735110 </v>
   <v>       0.03102776      -0.17260071      -2.90046921 </v>
   <v>      -0.03766952      -0.09377582       2.92688563 </v>
   <v>       0.52919063       0.70663441      -2.15278557 </v>
   <v>       0.32299357       0.66971904       1.43553424 </v>
   <v>       0.37017686       0.69683415      -2.13911005 </v>
   <v>       0.31946186       0.66437234       1.41034117 </v>
   <v>       0.61119316       0.55077844      -2.10781227 </v>
   <v>       0.23574986       0.51267401       1.41440178 </v>
   <v>      -0.31694623      -0.67337370      -1.41001220 </v>
   <v>      -0.37735441      -0.71379220       2.14925992 </v>
   <v>      -0.24027038      -0.51674083      -1.40839948 </v>
   <v>      -0.62181408      -0.55444206       2.12273714 </v>
   <v>      -0.23277091      -0.52239745      -1.38141578 </v>
   <v>      -0.47014241      -0.57381904       2.11856997 </v>
  </varray>
  <varray name="stress" >
   <v>       7.27975746       0.13249463      -1.60553982 </v>
   <v>       0.13249471       4.48767665       0.00343245 </v>
   <v>      -1.60553989       0.00343242      30.31716635 </v>
  </varray>
  <energy>
   <i name="e_fr_energy">   -186.85185788 </i>
   <i name="e_wo_entrp">   -186.67874552 </i>
   <i name="e_0_energy">     -0.34622472 </i>
  </energy>
  <time name="totalsc">  773.28  775.40</time>
 </calculation>
 <calculation>
  <scstep>
   <time name="dav">   21.48   21.54</time>
   <time name="total">   22.02   22.08</time>
   <energy>
    <i name="alphaZ">     78.91834906 </i>
    <i name="ewald">  39377.32891838 </i>
    <i name="hartreedc"> -45334.62005668 </i>
    <i name="XCdc">   -239.07208332 </i>
    <i name="pawpsdc">   4192.05280141 </i>
    <i name="pawaedc">  -3610.05907708 </i>
    <i name="eentropy">     -0.28532993 </i>
    <i name="bandstr">  -1413.23799756 </i>
    <i name="atom">   6761.44252427 </i>
    <i name="e_fr_energy">   -187.53195144 </i>
    <i name="e_wo_entrp">   -187.24662151 </i>
    <i name="e_0_energy">   -187.38928647 </i>
   </energy>
  </scstep>
  <scstep>
   <time name="dav">   29.95   30.02</time>
   <time name="total">   30.48   30.56</time>
   <energy>
    <i name="e_fr_energy">   -189.60093070 </i>
    <i name="e_wo_entrp">   -189.26292516 </i>
    <i name="e_0_energy">   -189.43192793 </i>
   </energy>
  </scstep>
  <scstep>
   <time name="dav">   30.32   30.39</time>
   <time name="total">   30.88   30.96</time>
   <energy>
    <i name="e_fr_energy">   -189.33854002 </i>
    <i name="e_wo_entrp">   -189.07121581 </i>
    <i name="e_0_energy">   -189.20487792 </i>
   </energy>
  </scstep>
  <scstep>
   <time name="dav">   30.45   30.53</time>
   <time name="total">   31.00   31.08</time>
   <energy>
    <i name="e_fr_energy">   -188.80352158 </i>
    <i name="e_wo_entrp">   -188.51536256 </i>
    <i name="e_0_energy">   -188.65944207 </i>
   </energy>
  </scstep>
  <scstep>
   <time name="dav">   27.77   27.83</time>
   <time name="total">   28.30   28.38</time>
   <energy>
    <i name="e_fr_energy">   -188.90492128 </i>
    <i name="e_wo_entrp">   -188.61606836 </i>
    <i name="e_0_energy">   -188.76049482 </i>
   </energy>
  </scstep>
  <scstep>
   <time name="dav">   30.82   30.89</time>
   <time name="total">   31.36   31.44</time>
   <energy>
    <i name="e_fr_energy">   -188.77103621 </i>
    <i name="e_wo_entrp">   -188.48246759 </i>
    <i name="e_0_energy">   -188.62675190 </i>
   </energy>
  </scstep>
  <scstep>
   <time name="dav">   29.11   29.18</time>
   <time name="total">   29.66   29.74</time>
   <energy>
    <i name="e_fr_energy">   -188.72992698 </i>
    <i name="e_wo_entrp">   -188.44201660 </i>
    <i name="e_0_energy">   -188.58597179 </i>
   </energy>
  </scstep>
  <scstep>
   <time name="dav">   29.72   29.79</time>
   <time name="total">   30.26   30.34</time>
   <energy>
    <i name="e_fr_energy">   -188.72106287 </i>
    <i name="e_wo_entrp">   -188.43436273 </i>
    <i name="e_0_energy">   -188.57771280 </i>
   </energy>
  </scstep>
  <scstep>
   <time name="dav">   30.72   30.79</time>
   <time name="total">   31.26   31.34</time>
   <energy>
    <i name="e_fr_energy">   -188.69013404 </i>
    <i name="e_wo_entrp">   -188.40434824 </i>
    <i name="e_0_energy">   -188.54724114 </i>
   </energy>
  </scstep>
  <scstep>
   <time name="dav">   26.94   27.01</time>
   <time name="total">   27.49   27.56</time>
   <energy>
    <i name="e_fr_energy">   -188.68753166 </i>
    <i name="e_wo_entrp">   -188.40252803 </i>
    <i name="e_0_energy">   -188.54502985 </i>
   </energy>
  </scstep>
  <scstep>
   <time name="dav">   31.89   31.97</time>
   <time name="total">   32.43   32.52</time>
   <energy>
    <i name="e_fr_energy">   -188.68676543 </i>
    <i name="e_wo_entrp">   -188.40266819 </i>
    <i name="e_0_energy">   -188.54471681 </i>
   </energy>
  </scstep>
  <scstep>
   <time name="dav">   29.19   29.26</time>
   <time name="total">   29.73   29.81</time>
   <energy>
    <i name="e_fr_energy">   -188.68675320 </i>
    <i name="e_wo_entrp">   -188.40286871 </i>
    <i name="e_0_energy">   -188.54481096 </i>
   </energy>
  </scstep>
  <scstep>
   <time name="dav">   22.48   22.53</time>
   <time name="total">   22.52   22.58</time>
   <energy>
    <i name="alphaZ">     78.91834906 </i>
    <i name="ewald">  39377.32891838 </i>
    <i name="hartreedc"> -45345.40863485 </i>
    <i name="XCdc">   -237.98296713 </i>
    <i name="pawpsdc">   3950.48177111 </i>
    <i name="pawaedc">  -3364.98936815 </i>
    <i name="eentropy">     -0.28404947 </i>
    <i name="bandstr">  -1408.19332416 </i>
    <i name="atom">   6761.44252427 </i>
    <i name="e_fr_energy">   -188.68678092 </i>
    <i name="e_wo_entrp">   -188.40273145 </i>
    <i name="e_0_energy">   -188.54475619 </i>
   </energy>
  </scstep>
  <structure>
   <crystal>
    <varray name="basis" >
     <v>       8.85649380       5.10949034       0.00000000 </v>
     <v>      -8.85258870       5.10277312       0.00000000 </v>
     <v>       0.00000000       0.00000000      30.00000000 </v>
    </varray>
    <i name="volume">   2712.74685133 </i>
    <varray name="rec_basis" >
     <v>       0.05643106       0.09789991       0.00000000 </v>
     <v>      -0.05650535       0.09794309       0.00000000 </v>
     <v>       0.00000000       0.00000000       0.03333333 </v>
    </varray>
   </crystal>
   <varray name="positions" >
    <v>       0.66549758       0.33215557       0.00002475 </v>
    <v>       0.66669327       0.00126860      -0.00004500 </v>
    <v>       0.66556243       0.66551486       0.00001593 </v>
    <v>       0.33216421       0.33188929       0.00022634 </v>
    <v>       0.33333652       0.00141437       0.00015213 </v>
    <v>       1.00128390       0.33338933      -0.00019730 </v>
    <v>       0.00239409       0.00285898      -0.00024816 </v>
    <v>       0.00089976       0.66614710      -0.00019548 </v>
    <v>       0.33246697       0.66548189       0.00019796 </v>
    <v>       0.11028537       0.22101055       0.95068850 </v>
    <v>       0.22136698       0.11062498       0.04934123 </v>
    <v>       0.11123988       0.55617578       0.95065489 </v>
    <v>       0.22283260       0.44544243       0.04925920 </v>
    <v>       0.10994537       0.88820408       0.95073578 </v>
    <v>       0.22189620       0.77700779       0.04930669 </v>
    <v>       0.44887268       0.22435945       0.95193812 </v>
    <v>       0.55988703       0.11299175       0.04690846 </v>
    <v>       0.44838338       0.55808829       0.95196011 </v>
    <v>       0.55985162       0.44630933       0.04686795 </v>
    <v>       0.44835490       0.89005204       0.95201044 </v>
    <v>       0.55889269       0.77914955       0.04687448 </v>
    <v>       0.77324725       0.22010885       0.95313257 </v>
    <v>       0.88465041       0.10831878       0.04805620 </v>
    <v>       0.77421022       0.55397851       0.95313516 </v>
    <v>       0.88473293       0.44309489       0.04801355 </v>
    <v>       0.77420401       0.88726389       0.95317855 </v>
    <v>       0.88506217       0.77591352       0.04800685 </v>
   </varray>
  </structure>
  <varray name="forces" >
   <v>      -0.01489962      -0.21100143       0.00634098 </v>
   <v>      -0.15429784       0.09654090      -0.08761983 </v>
   <v>      -0.01513198      -0.19657283       0.01645906 </v>
   <v>      -0.05503662      -0.50350386       0.02638749 </v>
   <v>      -0.37886083      -0.06439447      -0.05140208 </v>
   <v>       0.28938038       0.34502443       0.04321363 </v>
   <v>       0.01683950       0.66085114      -0.01616605 </v>
   <v>       0.37478202       0.19899068       0.07873322 </v>
   <v>      -0.10123692      -0.39122063       0.01954515 </v>
   <v>       0.06382302      -0.09496461      -0.27826441 </v>
   <v>      -0.06651238      -0.10856667       0.26767155 </v>
   <v>      -0.06115693       0.10356361      -0.14033420 </v>
   <v>      -0.04847535       0.10725374       0.17895231 </v>
   <v>      -0.08551433      -0.10432999      -0.03114227 </v>
   <v>       0.07401010      -0.09882369       0.02301799 </v>
   <v>       0.02670391       0.08358483      -0.03402999 </v>
   <v>       0.00354316       0.05613677       0.01593616 </v>
   <v>      -0.10022636       0.04185364       0.08870932 </v>
   <v>       0.01646449       0.03442679      -0.05440221 </v>
   <v>       0.08025553      -0.05296237       0.17127605 </v>
   <v>      -0.05925981      -0.06980012      -0.13073424 </v>
   <v>      -0.01006114      -0.04679977       0.06692398 </v>
   <v>       0.11122076      -0.05358026      -0.08049477 </v>
   <v>       0.06234845       0.06010797       0.12795464 </v>
   <v>      -0.07509303       0.05346303      -0.14650971 </v>
   <v>       0.05353919       0.07766616       0.21601553 </v>
   <v>       0.05285265       0.07705704      -0.29603731 </v>
  </varray>
  <varray name="stress" >
   <v>     -19.95425684      -0.04796734      -0.02543744 </v>
   <v>      -0.04796727     -19.56188845      -0.07766425 </v>
   <v>      -0.02543741      -0.07766429      -1.77133804 </v>
  </varray>
  <energy>
   <i name="e_fr_energy">   -188.68678092 </i>
   <i name="e_wo_entrp">   -188.54475619 </i>
   <i name="e_0_energy">     -0.28404947 </i>
  </energy>
  <time name="totalsc">  418.62  419.84</time>
 </calculation>
 <calculation>
  <scstep>
   <time name="dav">   23.14   23.19</time>
   <time name="total">   23.67   23.73</time>
   <energy>
    <i name="alphaZ">     82.34869992 </i>
    <i name="ewald">  41304.35926586 </i>
    <i name="hartreedc"> -47303.11898279 </i>
    <i name="XCdc">   -233.85183782 </i>
    <i name="pawpsdc">   3949.96471652 </i>
    <i name="pawaedc">  -3364.46682148 </i>
    <i name="eentropy">     -0.23826049 </i>
    <i name="bandstr">  -1387.06071577 </i>
    <i name="atom">   6761.44252427 </i>
    <i name="e_fr_energy">   -190.62141180 </i>
    <i name="e_wo_entrp">   -190.38315131 </i>
    <i name="e_0_energy">   -190.50228155 </i>
   </energy>
  </scstep>
  <scstep>
   <time name="dav">   28.57   28.64</time>
   <time name="total">   29.10   29.17</time>
   <energy>
    <i name="e_fr_energy">   -190.55212148 </i>
    <i name="e_wo_entrp">   -190.31898267 </i>
    <i name="e_0_energy">   -190.43555208 </i>
   </energy>
  </scstep>
  <scstep>
   <time name="dav">   29.99   30.07</time>
   <time name="total">   30.52   30.60</time>
   <energy>
    <i name="e_fr_energy">   -190.11771783 </i>
    <i name="e_wo_entrp">   -189.86463529 </i>
    <i name="e_0_energy">   -189.99117656 </i>
   </energy>
  </scstep>
  <scstep>
   <time name="dav">   30.86   30.93</time>
   <time name="total">   31.39   31.48</time>
   <energy>
    <i name="e_fr_energy">   -189.88970796 </i>
    <i name="e_wo_entrp">   -189.65538015 </i>
    <i name="e_0_energy">   -189.77254406 </i>
   </energy>
  </scstep>
  <scstep>
   <time name="dav">   29.88   29.95</time>
   <time name="total">   30.41   30.49</time>
   <energy>
    <i name="e_fr_energy">   -189.86705096 </i>
    <i name="e_wo_entrp">   -189.61795396 </i>
    <i name="e_0_energy">   -189.74250246 </i>
   </energy>
  </scstep>
  <scstep>
   <time name="dav">   30.58   30.66</time>
   <time name="total">   31.11   31.20</time>
   <energy>
    <i name="e_fr_energy">   -189.79231141 </i>
    <i name="e_wo_entrp">   -189.55354959 </i>
    <i name="e_0_energy">   -189.67293050 </i>
   </energy>
  </scstep>
  <scstep>
   <time name="dav">   28.69   28.76</time>
   <time name="total">   29.22   29.30</time>
   <energy>
    <i name="e_fr_energy">   -189.78744969 </i>
    <i name="e_wo_entrp">   -189.54660675 </i>
    <i name="e_0_energy">   -189.66702822 </i>
   </energy>
  </scstep>
  <scstep>
   <time name="dav">   30.91   30.98</time>
   <time name="total">   31.44   31.53</time>
   <energy>
    <i name="e_fr_energy">   -189.78720363 </i>
    <i name="e_wo_entrp">   -189.54674931 </i>
    <i name="e_0_energy">   -189.66697647 </i>
   </energy>
  </scstep>
  <scstep>
   <time name="dav">   28.15   28.22</time>
   <time name="total">   28.69   28.77</time>
   <energy>
    <i name="e_fr_energy">   -189.78624720 </i>
    <i name="e_wo_entrp">   -189.54563007 </i>
    <i name="e_0_energy">   -189.66593863 </i>
   </energy>
  </scstep>
  <scstep>
   <time name="dav">   26.25   26.32</time>
   <time name="total">   26.78   26.86</time>
   <energy>
    <i name="e_fr_energy">   -189.78668101 </i>
    <i name="e_wo_entrp">   -189.54593970 </i>
    <i name="e_0_energy">   -189.66631035 </i>
   </energy>
  </scstep>
  <scstep>
   <time name="dav">   23.43   23.49</time>
   <time name="total">   23.96   24.03</time>
   <energy>
    <i name="e_fr_energy">   -189.78638208 </i>
    <i name="e_wo_entrp">   -189.54554428 </i>
    <i name="e_0_energy">   -189.66596318 </i>
   </energy>
  </scstep>
  <scstep>
   <time name="dav">   19.21   19.25</time>
   <time name="total">   19.24   19.30</time>
   <energy>
    <i name="alphaZ">     82.34869992 </i>
    <i name="ewald">  41304.35926586 </i>
    <i name="hartreedc"> -47276.40641703 </i>
    <i name="XCdc">   -235.24865727 </i>
    <i name="pawpsdc">   4038.61876083 </i>
    <i name="pawaedc">  -3454.31997071 </i>
    <i name="eentropy">     -0.24081706 </i>
    <i name="bandstr">  -1410.33979121 </i>
    <i name="atom">   6761.44252427 </i>
    <i name="e_fr_energy">   -189.78640239 </i>
    <i name="e_wo_entrp">   -189.54558533 </i>
    <i name="e_0_energy">   -189.66599386 </i>
   </energy>
  </scstep>
  <structure>
   <crystal>
    <varray name="basis" >
     <v>       8.66795484       5.00255231       0.00000000 </v>
     <v>      -8.66465463       4.99688008       0.00000000 </v>
     <v>       0.00000000       0.00000000      30.00000000 </v>
    </varray>
    <i name="volume">   2599.74356798 </i>
    <varray name="rec_basis" >
     <v>       0.05766200       0.09998665       0.00000000 </v>
     <v>      -0.05772745       0.10002473       0.00000000 </v>
     <v>       0.00000000       0.00000000       0.03333333 </v>
    </varray>
   </crystal>
   <varray name="positions" >
    <v>       0.66513236       0.33181877       0.00002834 </v>
    <v>       0.66670591       0.00157736      -0.00009461 </v>
    <v>       0.66522098       0.66520230       0.00002525 </v>
    <v>       0.33127401       0.33110432       0.00024128 </v>
    <v>       0.33286620       0.00167091       0.00012302 </v>
    <v>       1.00213518       0.33368564      -0.00017283 </v>
    <v>       0.00350938       0.00394244      -0.00025732 </v>
    <v>       0.00159003       0.66611843      -0.00015089 </v>
    <v>       0.33171923       0.66492810       0.00020902 </v>
    <v>       0.11018862       0.22079127       0.95053092 </v>
    <v>       0.22112265       0.11050818       0.04949282 </v>
    <v>       0.11135350       0.55640681       0.95057542 </v>
    <v>       0.22296451       0.44566743       0.04936054 </v>
    <v>       0.10968986       0.88811257       0.95071814 </v>
    <v>       0.22180279       0.77677231       0.04931972 </v>
    <v>       0.44903730       0.22447290       0.95191885 </v>
    <v>       0.55998380       0.11308176       0.04691749 </v>
    <v>       0.44835690       0.55825415       0.95201035 </v>
    <v>       0.55992466       0.44635081       0.04683714 </v>
    <v>       0.44834376       0.88988687       0.95210743 </v>
    <v>       0.55871979       0.77909029       0.04680045 </v>
    <v>       0.77315977       0.22004064       0.95317046 </v>
    <v>       0.88466792       0.10812285       0.04801061 </v>
    <v>       0.77436996       0.55401868       0.95320762 </v>
    <v>       0.88474986       0.44325594       0.04793058 </v>
    <v>       0.77438451       0.88734173       0.95330088 </v>
    <v>       0.88524100       0.77599101       0.04783920 </v>
   </varray>
  </structure>
  <varray name="forces" >
   <v>      -0.02707273      -0.19663361       0.00218605 </v>
   <v>      -0.12751325       0.07237918      -0.08445870 </v>
   <v>      -0.02589117      -0.18538520       0.01138365 </v>
   <v>      -0.08905291      -0.58031371      -0.00719920 </v>
   <v>      -0.42095792      -0.14471494      -0.06615824 </v>
   <v>       0.31154596       0.42598763       0.06096502 </v>
   <v>       0.06747766       0.69371485       0.02218119 </v>
   <v>       0.41851790       0.26206686       0.10067864 </v>
   <v>      -0.16159463      -0.45237233      -0.01816061 </v>
   <v>       0.02309312      -0.00553087      -0.86340612 </v>
   <v>      -0.02905311      -0.04275472       0.84983645 </v>
   <v>      -0.01119952       0.04307175      -0.72661704 </v>
   <v>       0.00323461       0.04132400       0.74773086 </v>
   <v>      -0.04998789      -0.04658790      -0.59260229 </v>
   <v>       0.03465206      -0.01926282       0.58918048 </v>
   <v>       0.05170969       0.14840270      -0.52139221 </v>
   <v>       0.03367489       0.10889787       0.46827606 </v>
   <v>       0.01813873       0.08527161      -0.39290699 </v>
   <v>       0.04977988       0.08055733       0.39167030 </v>
   <v>       0.07338429       0.06196228      -0.30186076 </v>
   <v>       0.00861084       0.06249557       0.32683581 </v>
   <v>      -0.04525701      -0.08872097      -0.37484216 </v>
   <v>      -0.00013400      -0.11136603       0.41012619 </v>
   <v>      -0.00303204      -0.06651011      -0.32382867 </v>
   <v>      -0.06551388      -0.08072220       0.34247328 </v>
   <v>      -0.01262448      -0.03956026      -0.22618254 </v>
   <v>      -0.02493510      -0.02569594       0.17609154 </v>
  </varray>
  <varray name="stress" >
   <v>     -10.22746814      -0.02247779      -0.03974897 </v>
   <v>      -0.02247773      -9.88507873      -0.09624584 </v>
   <v>      -0.03974898      -0.09624577       6.49616793 </v>
  </varray>
  <energy>
   <i name="e_fr_energy">   -189.78640239 </i>
   <i name="e_wo_entrp">   -189.66599386 </i>
   <i name="e_0_energy">     -0.24081706 </i>
  </energy>
  <time name="totalsc">  377.32  378.33</time>
 </calculation>
 <calculation>
  <scstep>
   <time name="dav">   21.51   21.56</time>
   <time name="total">   22.03   22.08</time>
   <energy>
    <i name="alphaZ">     85.85411085 </i>
    <i name="ewald">  42849.56592543 </i>
    <i name="hartreedc"> -48866.32965519 </i>
    <i name="XCdc">   -232.93969137 </i>
    <i name="pawpsdc">   4038.62874367 </i>
    <i name="pawaedc">  -3454.32716527 </i>
    <i name="eentropy">     -0.19876821 </i>
    <i name="bandstr">  -1373.09542684 </i>
    <i name="atom">   6761.44252427 </i>
    <i name="e_fr_energy">   -191.39940266 </i>
    <i name="e_wo_entrp">   -191.20063445 </i>
    <i name="e_0_energy">   -191.30001855 </i>
   </energy>
  </scstep>
  <scstep>
   <time name="dav">   32.15   32.23</time>
   <time name="total">   32.66   32.75</time>
   <energy>
    <i name="e_fr_energy">   -191.13637926 </i>
    <i name="e_wo_entrp">   -190.93290182 </i>
    <i name="e_0_energy">   -191.03464054 </i>
   </energy>
  </scstep>
  <scstep>
   <time name="dav">   29.66   29.73</time>
   <time name="total">   30.17   30.25</time>
   <energy>
    <i name="e_fr_energy">   -191.45019881 </i>
    <i name="e_wo_entrp">   -191.23352409 </i>
    <i name="e_0_energy">   -191.34186145 </i>
   </energy>
  </scstep>
  <scstep>
   <time name="dav">   27.85   27.91</time>
   <time name="total">   28.36   28.44</time>
   <energy>
    <i name="e_fr_energy">   -191.00463869 </i>
    <i name="e_wo_entrp">   -190.79291463 </i>
    <i name="e_0_energy">   -190.89877666 </i>
   </energy>
  </scstep>
  <scstep>
   <time name="dav">   29.23   29.30</time>
   <time name="total">   29.75   29.83</time>
   <energy>
    <i name="e_fr_energy">   -190.99485698 </i>
    <i name="e_wo_entrp">   -190.79983704 </i>
    <i name="e_0_energy">   -190.89734701 </i>
   </energy>
  </scstep>
  <scstep>
   <time name="dav">   29.63   29.70</time>
   <time name="total">   30.14   30.22</time>
   <energy>
    <i name="e_fr_energy">   -190.81490991 </i>
    <i name="e_wo_entrp">   -190.60752497 </i>
    <i name="e_0_energy">   -190.71121744 </i>
   </energy>
  </scstep>
  <scstep>
   <time name="dav">   30.33   30.41</time>
   <time name="total">   30.85   30.93</time>
   <energy>
    <i name="e_fr_energy">   -190.81475077 </i>
    <i name="e_wo_entrp">   -190.60860491 </i>
    <i name="e_0_energy">   -190.71167784 </i>
   </energy>
  </scstep>
  <scstep>
   <time name="dav">   28.94   29.01</time>
   <time name="total">   29.45   29.53</time>
   <energy>
    <i name="e_fr_energy">   -190.81295424 </i>
    <i name="e_wo_entrp">   -190.60628495 </i>
    <i name="e_0_energy">   -190.70961959 </i>
   </energy>
  </scstep>
  <scstep>
   <time name="dav">   28.25   28.32</time>
   <time name="total">   28.76   28.84</time>
   <energy>
    <i name="e_fr_energy">   -190.80930954 </i>
    <i name="e_wo_entrp">   -190.60307073 </i>
    <i name="e_0_energy">   -190.70619014 </i>
   </energy>
  </scstep>
  <scstep>
   <time name="dav">   27.68   27.74</time>
   <time name="total">   28.19   28.26</time>
   <energy>
    <i name="e_fr_energy">   -190.80960874 </i>
    <i name="e_wo_entrp">   -190.60323131 </i>
    <i name="e_0_energy">   -190.70642002 </i>
   </energy>
  </scstep>
  <scstep>
   <time name="dav">   26.57   26.64</time>
   <time name="total">   27.09   27.16</time>
   <energy>
    <i name="e_fr_energy">   -190.80939142 </i>
    <i name="e_wo_entrp">   -190.60291243 </i>
    <i name="e_0_energy">   -190.70615193 </i>
   </energy>
  </scstep>
  <scstep>
   <time name="dav">   19.86   19.91</time>
   <time name="total">   19.90   19.95</time>
   <energy>
    <i name="alphaZ">     85.85411085 </i>
    <i name="ewald">  42849.56592543 </i>
    <i name="hartreedc"> -48837.36086916 </i>
    <i name="XCdc">   -234.28496734 </i>
    <i name="pawpsdc">   4064.25829008 </i>
    <i name="pawaedc">  -3480.14548294 </i>
    <i name="eentropy">     -0.20651226 </i>
    <i name="bandstr">  -1399.93241803 </i>
    <i name="atom">   6761.44252427 </i>
    <i name="e_fr_energy">   -190.80939910 </i>
    <i name="e_wo_entrp">   -190.60288684 </i>
    <i name="e_0_energy">   -190.70614297 </i>
   </energy>
  </scstep>
  <structure>
   <crystal>
    <varray name="basis" >
     <v>       8.48398730       4.90190440       0.00000000 </v>
     <v>      -8.48113873       4.89700748       0.00000000 </v>
     <v>       0.00000000       0.00000000      30.00000000 </v>
    </varray>
    <i name="volume">   2493.59641403 </i>
    <varray name="rec_basis" >
     <v>       0.05891500       0.10203502       0.00000000 </v>
     <v>      -0.05897391       0.10206929       0.00000000 </v>
     <v>       0.00000000       0.00000000       0.03333333 </v>
    </varray>
   </crystal>
   <varray name="positions" >
    <v>       0.66382002       0.33073716       0.00002932 </v>
    <v>       0.66667668       0.00239355      -0.00026695 </v>
    <v>       0.66397751       0.66417693       0.00004451 </v>
    <v>       0.32707154       0.32764339       0.00019767 </v>
    <v>       0.33017406       0.00214663      -0.00002669 </v>
    <v>       1.00616798       0.33540069      -0.00003132 </v>
    <v>       0.00825862       0.00805838      -0.00017859 </v>
    <v>       0.00496825       0.66634194       0.00007650 </v>
    <v>       0.32805778       0.66260971       0.00013918 </v>
    <v>       0.11040293       0.22095642       0.94824174 </v>
    <v>       0.22096879       0.11045614       0.05175132 </v>
    <v>       0.11150353       0.55649334       0.94856876 </v>
    <v>       0.22314468       0.44567455       0.05139600 </v>
    <v>       0.10941322       0.88809482       0.94901042 </v>
    <v>       0.22195002       0.77678271       0.05102438 </v>
    <v>       0.45035356       0.22534297       0.95042200 </v>
    <v>       0.56096430       0.11373166       0.04827435 </v>
    <v>       0.44923724       0.55866090       0.95078468 </v>
    <v>       0.56077369       0.44674340       0.04802989 </v>
    <v>       0.44927604       0.89030823       0.95107770 </v>
    <v>       0.55957282       0.77968487       0.04786865 </v>
    <v>       0.77228375       0.21959376       0.95201627 </v>
    <v>       0.88366318       0.10744104       0.04927966 </v>
    <v>       0.77352978       0.55338937       0.95215059 </v>
    <v>       0.88368401       0.44263616       0.04905802 </v>
    <v>       0.77370104       0.88694088       0.95245441 </v>
    <v>       0.88461943       0.77577485       0.04860743 </v>
   </varray>
  </structure>
  <varray name="forces" >
   <v>      -0.07420961      -0.17312371      -0.00001194 </v>
   <v>      -0.04941515       0.02684231      -0.05293135 </v>
   <v>      -0.07694044      -0.19053452       0.00746249 </v>
   <v>      -0.09257708      -0.59671574      -0.03320139 </v>
   <v>      -0.46494024      -0.18394064      -0.03577240 </v>
   <v>       0.30555999       0.50139695       0.03355647 </v>
   <v>       0.06392155       0.67529633       0.04126164 </v>
   <v>       0.48425167       0.26477028       0.06175045 </v>
   <v>      -0.17822456      -0.48555343      -0.03911471 </v>
   <v>      -0.01159618       0.02537800      -0.66216627 </v>
   <v>      -0.00402933       0.02825006       0.67876761 </v>
   <v>       0.02902049      -0.02322247      -0.57730988 </v>
   <v>       0.06444600       0.02964152       0.57515848 </v>
   <v>      -0.04553546      -0.02957358      -0.42285756 </v>
   <v>       0.02470425       0.08145770       0.45380192 </v>
   <v>      -0.02161580       0.02494191      -0.36527174 </v>
   <v>      -0.03810474      -0.00410213       0.33368433 </v>
   <v>       0.01462249      -0.05256643      -0.23264999 </v>
   <v>      -0.00258227      -0.06340523       0.30073885 </v>
   <v>      -0.02041848      -0.01808315      -0.15011679 </v>
   <v>      -0.04060938      -0.01334197       0.22985783 </v>
   <v>       0.01210237       0.05218397      -0.25450088 </v>
   <v>       0.00528493       0.02717646       0.23794157 </v>
   <v>       0.05455191      -0.00375773      -0.19892315 </v>
   <v>       0.03718989      -0.03148018       0.19722094 </v>
   <v>       0.02959610       0.06294835      -0.14648964 </v>
   <v>      -0.00445294       0.06911708       0.02011512 </v>
  </varray>
  <varray name="stress" >
   <v>      -5.89704930       0.16066904       0.01216029 </v>
   <v>       0.16066901      -5.70432017       0.08766052 </v>
   <v>       0.01216049       0.08766063       4.63984652 </v>
  </varray>
  <energy>
   <i name="e_fr_energy">   -190.80939910 </i>
   <i name="e_wo_entrp">   -190.70614297 </i>
   <i name="e_0_energy">     -0.20651226 </i>
  </energy>
  <time name="totalsc">  378.91  379.92</time>
 </calculation>
 <calculation>
  <scstep>
   <time name="dav">   21.49   21.54</time>
   <time name="total">   22.00   22.06</time>
   <energy>
    <i name="alphaZ">     90.28422377 </i>
    <i name="ewald">  44708.99588993 </i>
    <i name="hartreedc"> -50752.92831341 </i>
    <i name="XCdc">   -231.81247139 </i>
    <i name="pawpsdc">   4064.18109472 </i>
    <i name="pawaedc">  -3480.06460211 </i>
    <i name="eentropy">     -0.18034920 </i>
    <i name="bandstr">  -1352.17801607 </i>
    <i name="atom">   6761.44252427 </i>
    <i name="e_fr_energy">   -192.26001947 </i>
    <i name="e_wo_entrp">   -192.07967028 </i>
    <i name="e_0_energy">   -192.16984487 </i>
   </energy>
  </scstep>
  <scstep>
   <time name="dav">   27.51   27.57</time>
   <time name="total">   28.01   28.09</time>
   <energy>
    <i name="e_fr_energy">   -192.01121139 </i>
    <i name="e_wo_entrp">   -191.79660044 </i>
    <i name="e_0_energy">   -191.90390592 </i>
   </energy>
  </scstep>
  <scstep>
   <time name="dav">   29.56   29.63</time>
   <time name="total">   30.07   30.15</time>
   <energy>
    <i name="e_fr_energy">   -192.46112669 </i>
    <i name="e_wo_entrp">   -192.28806790 </i>
    <i name="e_0_energy">   -192.37459730 </i>
   </energy>
  </scstep>
  <scstep>
   <time name="dav">   29.87   29.94</time>
   <time name="total">   30.37   30.45</time>
   <energy>
    <i name="e_fr_energy">   -191.70093472 </i>
    <i name="e_wo_entrp">   -191.51139927 </i>
    <i name="e_0_energy">   -191.60616700 </i>
   </energy>
  </scstep>
  <scstep>
   <time name="dav">   29.14   29.21</time>
   <time name="total">   29.65   29.73</time>
   <energy>
    <i name="e_fr_energy">   -191.75104801 </i>
    <i name="e_wo_entrp">   -191.55041126 </i>
    <i name="e_0_energy">   -191.65072964 </i>
   </energy>
  </scstep>
  <scstep>
   <time name="dav">   29.81   29.89</time>
   <time name="total">   30.32   30.40</time>
   <energy>
    <i name="e_fr_energy">   -191.54921524 </i>
    <i name="e_wo_entrp">   -191.35882143 </i>
    <i name="e_0_energy">   -191.45401833 </i>
   </energy>
  </scstep>
  <scstep>
   <time name="dav">   29.12   29.19</time>
   <time name="total">   29.63   29.71</time>
   <energy>
    <i name="e_fr_energy">   -191.54208560 </i>
    <i name="e_wo_entrp">   -191.34507194 </i>
    <i name="e_0_energy">   -191.44357877 </i>
   </energy>
  </scstep>
  <scstep>
   <time name="dav">   29.99   30.06</time>
   <time name="total">   30.49   30.57</time>
   <energy>
    <i name="e_fr_energy">   -191.53929699 </i>
    <i name="e_wo_entrp">   -191.34368348 </i>
    <i name="e_0_energy">   -191.44149023 </i>
   </energy>
  </scstep>
  <scstep>
   <time name="dav">   28.44   28.51</time>
   <time name="total">   28.95   29.03</time>
   <energy>
    <i name="e_fr_energy">   -191.53464741 </i>
    <i name="e_wo_entrp">   -191.33925400 </i>
    <i name="e_0_energy">   -191.43695071 </i>
   </energy>
  </scstep>
  <scstep>
   <time name="dav">   28.26   28.33</time>
   <time name="total">   28.77   28.85</time>
   <energy>
    <i name="e_fr_energy">   -191.53465543 </i>
    <i name="e_wo_entrp">   -191.33946211 </i>
    <i name="e_0_energy">   -191.43705877 </i>
   </energy>
  </scstep>
  <scstep>
   <time name="dav">   23.37   23.43</time>
   <time name="total">   23.41   23.47</time>
   <energy>
    <i name="alphaZ">     90.28422377 </i>
    <i name="ewald">  44708.99588993 </i>
    <i name="hartreedc"> -50718.14988905 </i>
    <i name="XCdc">   -233.34595715 </i>
    <i name="pawpsdc">   4087.47049921 </i>
    <i name="pawaedc">  -3503.46819808 </i>
    <i name="eentropy">     -0.19544646 </i>
    <i name="bandstr">  -1384.56832136 </i>
    <i name="atom">   6761.44252427 </i>
    <i name="e_fr_energy">   -191.53467492 </i>
    <i name="e_wo_entrp">   -191.33922847 </i>
    <i name="e_0_energy">   -191.43695169 </i>
   </energy>
  </scstep>
  <structure>
   <crystal>
    <varray name="basis" >
     <v>       8.27246454       4.79193167       0.00000000 </v>
     <v>      -8.25985203       4.77012195       0.00000000 </v>
     <v>       0.00000000       0.00000000      30.00000000 </v>
    </varray>
    <i name="volume">   2371.23933719 </i>
    <varray name="rec_basis" >
     <v>       0.06034973       0.10450044       0.00000000 </v>
     <v>      -0.06062566       0.10466001       0.00000000 </v>
     <v>       0.00000000       0.00000000       0.03333333 </v>
    </varray>
   </crystal>
   <varray name="positions" >
    <v>       0.66117075       0.32909893       0.00002631 </v>
    <v>       0.66663085       0.00311761      -0.00049480 </v>
    <v>       0.66113838       0.66237541       0.00007171 </v>
    <v>       0.31875945       0.32076322       0.00004404 </v>
    <v>       0.32436803       0.00305505      -0.00020257 </v>
    <v>       1.01472412       0.33949593       0.00013698 </v>
    <v>       0.01730457       0.01601274       0.00001615 </v>
    <v>       0.01190715       0.66632722       0.00036919 </v>
    <v>       0.32055339       0.65782807      -0.00004523 </v>
    <v>       0.11081022       0.22160033       0.94487035 </v>
    <v>       0.22140244       0.11086949       0.05517036 </v>
    <v>       0.11140317       0.55588639       0.94556734 </v>
    <v>       0.22382689       0.44537820       0.05438386 </v>
    <v>       0.10891777       0.88813951       0.94664675 </v>
    <v>       0.22314283       0.77773629       0.05349905 </v>
    <v>       0.45102267       0.22609324       0.94837268 </v>
    <v>       0.56110930       0.11417944       0.05014922 </v>
    <v>       0.44925636       0.55806162       0.94927466 </v>
    <v>       0.56045721       0.44624799       0.04974158 </v>
    <v>       0.44946017       0.89062437       0.94991426 </v>
    <v>       0.55979838       0.78016518       0.04930880 </v>
    <v>       0.77253877       0.21990751       0.95047967 </v>
    <v>       0.88343835       0.10752930       0.05082658 </v>
    <v>       0.77322700       0.55264004       0.95082600 </v>
    <v>       0.88299698       0.44158496       0.05042411 </v>
    <v>       0.77402043       0.88714394       0.95137589 </v>
    <v>       0.88482885       0.77635247       0.04924695 </v>
   </varray>
  </structure>
  <varray name="forces" >
   <v>      -0.14630978      -0.19090247       0.00157160 </v>
   <v>       0.06175197       0.00576349      -0.05385400 </v>
   <v>      -0.18681879      -0.24371167       0.04527035 </v>
   <v>       0.06012055      -0.08863639       0.08128473 </v>
   <v>      -0.24750429      -0.09424763       0.09702862 </v>
   <v>       0.02801595       0.28784769      -0.10352485 </v>
   <v>      -0.01085614       0.24724291      -0.05293162 </v>
   <v>       0.40819390       0.17486873      -0.06203058 </v>
   <v>      -0.06503908      -0.26709651       0.10925226 </v>
   <v>      -0.07694829       0.00898246      -0.25790216 </v>
   <v>       0.02082608       0.06266787       0.29517769 </v>
   <v>       0.04017522      -0.06643189      -0.32512457 </v>
   <v>       0.15483045       0.07652179       0.19639706 </v>
   <v>      -0.07594249      -0.07077380      -0.08576501 </v>
   <v>       0.03917951       0.15930676       0.16093434 </v>
   <v>      -0.12917692      -0.15526343      -0.06008187 </v>
   <v>      -0.09128494      -0.11336352      -0.03024327 </v>
   <v>      -0.04399199      -0.21717732      -0.01990186 </v>
   <v>      -0.05639827      -0.19116906       0.01331985 </v>
   <v>      -0.15598027      -0.16237614       0.13307181 </v>
   <v>      -0.10087233      -0.12516259      -0.02824171 </v>
   <v>       0.06059794       0.17433832       0.09869054 </v>
   <v>       0.05167382       0.21089527      -0.03178876 </v>
   <v>       0.10415508       0.09721387       0.12129275 </v>
   <v>       0.17403340       0.08664483      -0.07847976 </v>
   <v>       0.10074867       0.18889704       0.10417738 </v>
   <v>       0.08282108       0.20512138      -0.26759895 </v>
  </varray>
  <varray name="stress" >
   <v>      -0.18717802       0.55205144       0.50966579 </v>
   <v>       0.55205162       0.55772216       0.64581071 </v>
   <v>       0.50966562       0.64581078      -0.43297064 </v>
  </varray>
  <energy>
   <i name="e_fr_energy">   -191.53467492 </i>
   <i name="e_wo_entrp">   -191.43695169 </i>
   <i name="e_0_energy">     -0.19544646 </i>
  </energy>
  <time name="totalsc">  353.27  354.21</time>
 </calculation>
 <calculation>
  <scstep>
   <time name="dav">   21.47   21.52</time>
   <time name="total">   21.98   22.03</time>
   <energy>
    <i name="alphaZ">     90.18787430 </i>
    <i name="ewald">  44642.67274289 </i>
    <i name="hartreedc"> -50651.62699007 </i>
    <i name="XCdc">   -233.50731078 </i>
    <i name="pawpsdc">   4087.70715278 </i>
    <i name="pawaedc">  -3503.70237496 </i>
    <i name="eentropy">     -0.19578024 </i>
    <i name="bandstr">  -1384.58072427 </i>
    <i name="atom">   6761.44252427 </i>
    <i name="e_fr_energy">   -191.60288608 </i>
    <i name="e_wo_entrp">   -191.40710583 </i>
    <i name="e_0_energy">   -191.50499596 </i>
   </energy>
  </scstep>
  <scstep>
   <time name="dav">   30.95   31.02</time>
   <time name="total">   31.46   31.54</time>
   <energy>
    <i name="e_fr_energy">   -191.70107913 </i>
    <i name="e_wo_entrp">   -191.48898014 </i>
    <i name="e_0_energy">   -191.59502963 </i>
   </energy>
  </scstep>
  <scstep>
   <time name="dav">   30.30   30.37</time>
   <time name="total">   30.81   30.89</time>
   <energy>
    <i name="e_fr_energy">   -191.61589486 </i>
    <i name="e_wo_entrp">   -191.41733364 </i>
    <i name="e_0_energy">   -191.51661425 </i>
   </energy>
  </scstep>
  <scstep>
   <time name="dav">   28.56   28.63</time>
   <time name="total">   29.08   29.17</time>
   <energy>
    <i name="e_fr_energy">   -191.62007740 </i>
    <i name="e_wo_entrp">   -191.42102059 </i>
    <i name="e_0_energy">   -191.52054900 </i>
   </energy>
  </scstep>
  <scstep>
   <time name="dav">   28.70   28.77</time>
   <time name="total">   29.20   29.28</time>
   <energy>
    <i name="e_fr_energy">   -191.61346499 </i>
    <i name="e_wo_entrp">   -191.41310542 </i>
    <i name="e_0_energy">   -191.51328520 </i>
   </energy>
  </scstep>
  <scstep>
   <time name="dav">   28.40   28.47</time>
   <time name="total">   28.92   29.00</time>
   <energy>
    <i name="e_fr_energy">   -191.61480118 </i>
    <i name="e_wo_entrp">   -191.41595659 </i>
    <i name="e_0_energy">   -191.51537888 </i>
   </energy>
  </scstep>
  <scstep>
   <time name="dav">   28.03   28.10</time>
   <time name="total">   28.54   28.61</time>
   <energy>
    <i name="e_fr_energy">   -191.61329079 </i>
    <i name="e_wo_entrp">   -191.41300200 </i>
    <i name="e_0_energy">   -191.51314640 </i>
   </energy>
  </scstep>
  <scstep>
   <time name="dav">   24.58   24.64</time>
   <time name="total">   25.09   25.16</time>
   <energy>
    <i name="e_fr_energy">   -191.61298121 </i>
    <i name="e_wo_entrp">   -191.41315813 </i>
    <i name="e_0_energy">   -191.51306967 </i>
   </energy>
  </scstep>
  <scstep>
   <time name="dav">   17.88   17.92</time>
   <time name="total">   17.92   17.97</time>
   <energy>
    <i name="alphaZ">     90.18787430 </i>
    <i name="ewald">  44642.67274289 </i>
    <i name="hartreedc"> -50653.51069528 </i>
    <i name="XCdc">   -233.45048784 </i>
    <i name="pawpsdc">   4083.90580863 </i>
    <i name="pawaedc">  -3499.84641642 </i>
    <i name="eentropy">     -0.19980903 </i>
    <i name="bandstr">  -1382.81453649 </i>
    <i name="atom">   6761.44252427 </i>
    <i name="e_fr_energy">   -191.61299496 </i>
    <i name="e_wo_entrp">   -191.41318593 </i>
    <i name="e_0_energy">   -191.51309045 </i>
   </energy>
  </scstep>
  <structure>
   <crystal>
    <varray name="basis" >
     <v>       8.27575255       4.81116680       0.00000000 </v>
     <v>      -8.24929170       4.76537137       0.00000000 </v>
     <v>       0.00000000       0.00000000      30.00000000 </v>
    </varray>
    <i name="volume">   2373.77257851 </i>
    <varray name="rec_basis" >
     <v>       0.06022529       0.10425546       0.00000000 </v>
     <v>      -0.06080406       0.10458987       0.00000000 </v>
     <v>       0.00000000       0.00000000       0.03333333 </v>
    </varray>
   </crystal>
   <varray name="positions" >
    <v>       0.65979843       0.32857124       0.00002884 </v>
    <v>       0.66683877       0.00296448      -0.00058017 </v>
    <v>       0.65938449       0.66170083       0.00014403 </v>
    <v>       0.31851671       0.32016593       0.00017459 </v>
    <v>       0.32319809       0.00329908      -0.00004674 </v>
    <v>       1.01622037       0.34084647      -0.00002921 </v>
    <v>       0.01848293       0.01725995      -0.00006920 </v>
    <v>       0.01394298       0.66601764       0.00026893 </v>
    <v>       0.31905067       0.65669161       0.00013017 </v>
    <v>       0.11063074       0.22186665       0.94447032 </v>
    <v>       0.22177532       0.11112220       0.05562990 </v>
    <v>       0.11118678       0.55543813       0.94505853 </v>
    <v>       0.22465701       0.44531348       0.05468683 </v>
    <v>       0.10834418       0.88800468       0.94651867 </v>
    <v>       0.22405117       0.77841896       0.05374703 </v>
    <v>       0.44986681       0.22568625       0.94828448 </v>
    <v>       0.56027507       0.11387375       0.05009362 </v>
    <v>       0.44803873       0.55710058       0.94924897 </v>
    <v>       0.55933533       0.44545306       0.04975625 </v>
    <v>       0.44819253       0.89026082       0.95013207 </v>
    <v>       0.55887650       0.77982775       0.04925785 </v>
    <v>       0.77358859       0.22060623       0.95064361 </v>
    <v>       0.88464746       0.10843823       0.05076945 </v>
    <v>       0.77401842       0.55282835       0.95102543 </v>
    <v>       0.88393882       0.44151809       0.05029292 </v>
    <v>       0.77525973       0.88779960       0.95154707 </v>
    <v>       0.88609782       0.77714041       0.04881568 </v>
   </varray>
  </structure>
  <varray name="forces" >
   <v>      -0.16173906      -0.22378068      -0.02867139 </v>
   <v>       0.08977962       0.05531911      -0.07844948 </v>
   <v>      -0.23083888      -0.30493872       0.02254885 </v>
   <v>       0.03827246      -0.12611201      -0.01845219 </v>
   <v>      -0.28347889      -0.09524273       0.02732864 </v>
   <v>       0.06308475       0.31901127      -0.01899651 </v>
   <v>      -0.03257255       0.33336213       0.03015892 </v>
   <v>       0.44768631       0.19134425      -0.01394867 </v>
   <v>      -0.04749745      -0.31502949       0.00761733 </v>
   <v>      -0.02058652       0.05563728      -0.14518241 </v>
   <v>      -0.02364953      -0.00241395       0.19229440 </v>
   <v>       0.05822854       0.01894345      -0.25283244 </v>
   <v>       0.09071231       0.02463745       0.13905254 </v>
   <v>      -0.02477548      -0.04027009      -0.03183825 </v>
   <v>       0.01678593       0.08490232       0.11770832 </v>
   <v>      -0.06612001      -0.10304848      -0.02775314 </v>
   <v>      -0.05290824      -0.07639702      -0.04075460 </v>
   <v>      -0.03135694      -0.12096568      -0.00608654 </v>
   <v>      -0.02794425      -0.10784291       0.04506321 </v>
   <v>      -0.09270141      -0.10188680       0.18393927 </v>
   <v>      -0.07374931      -0.08271590      -0.01311669 </v>
   <v>       0.03235795       0.11373770       0.11541387 </v>
   <v>       0.01263353       0.14737372      -0.06196606 </v>
   <v>       0.06432190       0.07970291       0.16811947 </v>
   <v>       0.10445597       0.05998203      -0.10817091 </v>
   <v>       0.07750438       0.10894307       0.10994574 </v>
   <v>       0.07409487       0.10774776      -0.31297130 </v>
  </varray>
  <varray name="stress" >
   <v>      -0.05273443       0.01233826       0.13876783 </v>
   <v>       0.01233824      -0.12140119       0.15826357 </v>
   <v>       0.13876771       0.15826348      -1.33949700 </v>
  </varray>
  <energy>
   <i name="e_fr_energy">   -191.61299496 </i>
   <i name="e_wo_entrp">   -191.51309045 </i>
   <i name="e_0_energy">     -0.19980903 </i>
  </energy>
  <time name="totalsc">  284.52  285.28</time>
 </calculation>
 <calculation>
  <scstep>
   <time name="dav">   21.51   21.56</time>
   <time name="total">   22.02   22.08</time>
   <energy>
    <i name="alphaZ">     90.25419393 </i>
    <i name="ewald">  44676.21714552 </i>
    <i name="hartreedc"> -50687.55554749 </i>
    <i name="XCdc">   -233.39470932 </i>
    <i name="pawpsdc">   4083.76649322 </i>
    <i name="pawaedc">  -3499.70574721 </i>
    <i name="eentropy">     -0.19718839 </i>
    <i name="bandstr">  -1382.50876780 </i>
    <i name="atom">   6761.44252427 </i>
    <i name="e_fr_energy">   -191.68160325 </i>
    <i name="e_wo_entrp">   -191.48441487 </i>
    <i name="e_0_energy">   -191.58300906 </i>
   </energy>
  </scstep>
  <scstep>
   <time name="dav">   32.31   32.38</time>
   <time name="total">   32.81   32.90</time>
   <energy>
    <i name="e_fr_energy">   -191.75086440 </i>
    <i name="e_wo_entrp">   -191.53602697 </i>
    <i name="e_0_energy">   -191.64344568 </i>
   </energy>
  </scstep>
  <scstep>
   <time name="dav">   30.29   30.37</time>
   <time name="total">   30.80   30.89</time>
   <energy>
    <i name="e_fr_energy">   -191.68955405 </i>
    <i name="e_wo_entrp">   -191.48947669 </i>
    <i name="e_0_energy">   -191.58951537 </i>
   </energy>
  </scstep>
  <scstep>
   <time name="dav">   28.39   28.46</time>
   <time name="total">   28.90   28.98</time>
   <energy>
    <i name="e_fr_energy">   -191.69292035 </i>
    <i name="e_wo_entrp">   -191.49387857 </i>
    <i name="e_0_energy">   -191.59339946 </i>
   </energy>
  </scstep>
  <scstep>
   <time name="dav">   28.76   28.83</time>
   <time name="total">   29.27   29.35</time>
   <energy>
    <i name="e_fr_energy">   -191.68674723 </i>
    <i name="e_wo_entrp">   -191.48556890 </i>
    <i name="e_0_energy">   -191.58615807 </i>
   </energy>
  </scstep>
  <scstep>
   <time name="dav">   28.51   28.58</time>
   <time name="total">   29.01   29.09</time>
   <energy>
    <i name="e_fr_energy">   -191.68707778 </i>
    <i name="e_wo_entrp">   -191.48648813 </i>
    <i name="e_0_energy">   -191.58678296 </i>
   </energy>
  </scstep>
  <scstep>
   <time name="dav">   28.19   28.26</time>
   <time name="total">   28.70   28.78</time>
   <energy>
    <i name="e_fr_energy">   -191.68691100 </i>
    <i name="e_wo_entrp">   -191.48490368 </i>
    <i name="e_0_energy">   -191.58590734 </i>
   </energy>
  </scstep>
  <scstep>
   <time name="dav">   25.40   25.46</time>
   <time name="total">   25.91   25.97</time>
   <energy>
    <i name="e_fr_energy">   -191.68636510 </i>
    <i name="e_wo_entrp">   -191.48512876 </i>
    <i name="e_0_energy">   -191.58574693 </i>
   </energy>
  </scstep>
  <scstep>
[...]
      <set comment="kpoint 31">
       <r>  -17.4847    1.0000 </r>
       <r>  -17.2984    1.0000 </r>
       <r>  -16.8911    1.0000 </r>
       <r>  -16.6400    1.0000 </r>
       <r>  -16.5027    1.0000 </r>
       <r>  -16.4404    1.0000 </r>
       <r>  -16.2553    1.0000 </r>
       <r>  -16.2232    1.0000 </r>
       <r>  -16.1307    1.0000 </r>
       <r>  -16.1195    1.0000 </r>
       <r>  -15.9175    1.0000 </r>
       <r>  -15.7955    1.0000 </r>
       <r>  -15.7807    1.0000 </r>
       <r>  -15.6952    1.0000 </r>
       <r>  -15.5748    1.0000 </r>
       <r>  -15.5207    1.0000 </r>
       <r>  -15.4399    1.0000 </r>
       <r>  -15.2806    1.0000 </r>
       <r>   -9.7689    1.0000 </r>
       <r>   -9.5225    1.0000 </r>
       <r>   -9.2624    1.0000 </r>
       <r>   -8.9252    1.0000 </r>
       <r>   -8.8141    1.0000 </r>
       <r>   -8.6899    1.0000 </r>
       <r>   -8.6294    1.0000 </r>
       <r>   -8.5611    1.0000 </r>
       <r>   -8.4079    1.0000 </r>
       <r>   -8.3491    1.0000 </r>
       <r>   -8.2427    1.0000 </r>
       <r>   -8.1296    1.0000 </r>
       <r>   -8.0580    1.0000 </r>
       <r>   -8.0442    1.0000 </r>
       <r>   -8.0046    1.0000 </r>
       <r>   -7.9127    1.0000 </r>
       <r>   -7.7799    1.0000 </r>
       <r>   -7.7354    1.0000 </r>
       <r>   -7.5629    1.0000 </r>
       <r>   -7.4498    1.0000 </r>
       <r>   -7.3714    1.0000 </r>
       <r>   -7.2912    1.0000 </r>
       <r>   -7.0968    1.0000 </r>
       <r>   -7.0459    1.0000 </r>
       <r>   -6.9175    1.0000 </r>
       <r>   -6.8992    1.0000 </r>
       <r>   -6.8036    1.0000 </r>
       <r>   -6.7281    1.0000 </r>
       <r>   -6.6728    1.0000 </r>
       <r>   -6.6109    1.0000 </r>
       <r>   -6.5576    1.0000 </r>
       <r>   -6.5259    1.0000 </r>
       <r>   -6.4717    1.0000 </r>
       <r>   -6.4087    1.0000 </r>
       <r>   -6.3288    1.0000 </r>
       <r>   -6.2038    1.0000 </r>
       <r>   -6.1363    1.0000 </r>
       <r>   -6.0693    1.0000 </r>
       <r>   -6.0479    1.0000 </r>
       <r>   -5.9186    1.0000 </r>
       <r>   -5.8623    1.0000 </r>
       <r>   -5.8280    1.0000 </r>
       <r>   -5.7020    1.0000 </r>
       <r>   -5.6632    1.0000 </r>
       <r>   -5.5239    1.0000 </r>
       <r>   -5.3449    1.0000 </r>
       <r>   -5.2908    1.0000 </r>
       <r>   -5.1363    1.0000 </r>
       <r>   -5.1047    1.0000 </r>
       <r>   -4.8728    1.0000 </r>
       <r>   -4.7689    1.0000 </r>
       <r>   -4.6894    1.0000 </r>
       <r>   -4.5632    1.0000 </r>
       <r>   -4.4763    1.0000 </r>
       <r>   -4.3701    1.0000 </r>
       <r>   -4.2988    1.0000 </r>
       <r>   -4.1441    1.0000 </r>
       <r>   -4.0652    1.0000 </r>
       <r>   -3.8371    0.9999 </r>
       <r>   -3.6458    0.9908 </r>
       <r>   -3.5368    0.9439 </r>
       <r>   -3.4214    0.7800 </r>
       <r>   -2.9973    0.0130 </r>
       <r>   -2.8982    0.0017 </r>
       <r>   -2.7037    0.0000 </r>
       <r>   -2.6793    0.0000 </r>
       <r>   -2.5826    0.0000 </r>
       <r>   -2.4880    0.0000 </r>
       <r>   -2.3684    0.0000 </r>
       <r>   -2.1849    0.0000 </r>
       <r>   -2.1122    0.0000 </r>
       <r>   -1.9946    0.0000 </r>
       <r>   -1.7690    0.0000 </r>
       <r>   -1.4342    0.0000 </r>
       <r>   -1.3590    0.0000 </r>
       <r>   -1.2690    0.0000 </r>
       <r>   -1.2102    0.0000 </r>
       <r>   -1.1274    0.0000 </r>
       <r>   -1.0371    0.0000 </r>
       <r>   -0.9782    0.0000 </r>
       <r>   -0.9151    0.0000 </r>
       <r>   -0.8306    0.0000 </r>
       <r>   -0.8181    0.0000 </r>
       <r>   -0.7610    0.0000 </r>
       <r>   -0.7032    0.0000 </r>
       <r>   -0.5551    0.0000 </r>
       <r>   -0.4833    0.0000 </r>
       <r>   -0.4367    0.0000 </r>
       <r>   -0.2786    0.0000 </r>
       <r>   -0.0793    0.0000 </r>
       <r>    0.1241    0.0000 </r>
       <r>    0.1619    0.0000 </r>
       <r>    0.3060    0.0000 </r>
       <r>    0.4652    0.0000 </r>
       <r>    0.7956    0.0000 </r>
       <r>    0.8699    0.0000 </r>
       <r>    1.0525    0.0000 </r>
       <r>    1.2336    0.0000 </r>
       <r>    1.4582    0.0000 </r>
       <r>    2.1363    0.0000 </r>
       <r>    2.2901    0.0000 </r>
       <r>    2.3919    0.0000 </r>
      </set>
      <set comment="kpoint 32">
       <r>  -17.5036    1.0000 </r>
       <r>  -17.2317    1.0000 </r>
       <r>  -16.9927    1.0000 </r>
       <r>  -16.6413    1.0000 </r>
       <r>  -16.4631    1.0000 </r>
       <r>  -16.3269    1.0000 </r>
       <r>  -16.2693    1.0000 </r>
       <r>  -16.2497    1.0000 </r>
       <r>  -16.1644    1.0000 </r>
       <r>  -16.1232    1.0000 </r>
       <r>  -15.9425    1.0000 </r>
       <r>  -15.8184    1.0000 </r>
       <r>  -15.7875    1.0000 </r>
       <r>  -15.6805    1.0000 </r>
       <r>  -15.5846    1.0000 </r>
       <r>  -15.4946    1.0000 </r>
       <r>  -15.4326    1.0000 </r>
       <r>  -15.2848    1.0000 </r>
       <r>   -9.6955    1.0000 </r>
       <r>   -9.6108    1.0000 </r>
       <r>   -9.3261    1.0000 </r>
       <r>   -8.9058    1.0000 </r>
       <r>   -8.7213    1.0000 </r>
       <r>   -8.6585    1.0000 </r>
       <r>   -8.5939    1.0000 </r>
       <r>   -8.4615    1.0000 </r>
       <r>   -8.4050    1.0000 </r>
       <r>   -8.3396    1.0000 </r>
       <r>   -8.3317    1.0000 </r>
       <r>   -8.1958    1.0000 </r>
       <r>   -8.0871    1.0000 </r>
       <r>   -8.0673    1.0000 </r>
       <r>   -8.0211    1.0000 </r>
       <r>   -7.9967    1.0000 </r>
       <r>   -7.7530    1.0000 </r>
       <r>   -7.7336    1.0000 </r>
       <r>   -7.5547    1.0000 </r>
       <r>   -7.4432    1.0000 </r>
       <r>   -7.3498    1.0000 </r>
       <r>   -7.2905    1.0000 </r>
       <r>   -7.1358    1.0000 </r>
       <r>   -7.0143    1.0000 </r>
       <r>   -6.9510    1.0000 </r>
       <r>   -6.8729    1.0000 </r>
       <r>   -6.8164    1.0000 </r>
       <r>   -6.7371    1.0000 </r>
       <r>   -6.6916    1.0000 </r>
       <r>   -6.6082    1.0000 </r>
       <r>   -6.5462    1.0000 </r>
       <r>   -6.5122    1.0000 </r>
       <r>   -6.4574    1.0000 </r>
       <r>   -6.4218    1.0000 </r>
       <r>   -6.3543    1.0000 </r>
       <r>   -6.1768    1.0000 </r>
       <r>   -6.1521    1.0000 </r>
       <r>   -6.0534    1.0000 </r>
       <r>   -5.9841    1.0000 </r>
       <r>   -5.8952    1.0000 </r>
       <r>   -5.8770    1.0000 </r>
       <r>   -5.7540    1.0000 </r>
       <r>   -5.6811    1.0000 </r>
       <r>   -5.5975    1.0000 </r>
       <r>   -5.5144    1.0000 </r>
       <r>   -5.3844    1.0000 </r>
       <r>   -5.3074    1.0000 </r>
       <r>   -5.2213    1.0000 </r>
       <r>   -5.0225    1.0000 </r>
       <r>   -4.9511    1.0000 </r>
       <r>   -4.8161    1.0000 </r>
       <r>   -4.7505    1.0000 </r>
       <r>   -4.6125    1.0000 </r>
       <r>   -4.4841    1.0000 </r>
       <r>   -4.3382    1.0000 </r>
       <r>   -4.2493    1.0000 </r>
       <r>   -4.1307    1.0000 </r>
       <r>   -4.0580    1.0000 </r>
       <r>   -3.8469    0.9999 </r>
       <r>   -3.6989    0.9969 </r>
       <r>   -3.5022    0.9105 </r>
       <r>   -3.3579    0.6268 </r>
       <r>   -3.0187    0.0190 </r>
       <r>   -2.9000    0.0018 </r>
       <r>   -2.7030    0.0000 </r>
       <r>   -2.6896    0.0000 </r>
       <r>   -2.5734    0.0000 </r>
       <r>   -2.4551    0.0000 </r>
       <r>   -2.3779    0.0000 </r>
       <r>   -2.1668    0.0000 </r>
       <r>   -2.1137    0.0000 </r>
       <r>   -2.0021    0.0000 </r>
       <r>   -1.8581    0.0000 </r>
       <r>   -1.4289    0.0000 </r>
       <r>   -1.3586    0.0000 </r>
       <r>   -1.2577    0.0000 </r>
       <r>   -1.1752    0.0000 </r>
       <r>   -1.1121    0.0000 </r>
       <r>   -1.0239    0.0000 </r>
       <r>   -0.9686    0.0000 </r>
       <r>   -0.8936    0.0000 </r>
       <r>   -0.8744    0.0000 </r>
       <r>   -0.7968    0.0000 </r>
       <r>   -0.7644    0.0000 </r>
       <r>   -0.7166    0.0000 </r>
       <r>   -0.5975    0.0000 </r>
       <r>   -0.4371    0.0000 </r>
       <r>   -0.4016    0.0000 </r>
       <r>   -0.2618    0.0000 </r>
       <r>   -0.0811    0.0000 </r>
       <r>    0.0447    0.0000 </r>
       <r>    0.1781    0.0000 </r>
       <r>    0.3276    0.0000 </r>
       <r>    0.3882    0.0000 </r>
       <r>    0.8087    0.0000 </r>
       <r>    0.8690    0.0000 </r>
       <r>    1.0272    0.0000 </r>
       <r>    1.2638    0.0000 </r>
       <r>    1.4770    0.0000 </r>
       <r>    2.1045    0.0000 </r>
       <r>    2.2572    0.0000 </r>
       <r>    2.5693    0.0000 </r>
      </set>
      <set comment="kpoint 33">
       <r>  -17.4857    1.0000 </r>
       <r>  -17.2971    1.0000 </r>
       <r>  -16.8929    1.0000 </r>
       <r>  -16.6428    1.0000 </r>
       <r>  -16.5141    1.0000 </r>
       <r>  -16.4211    1.0000 </r>
       <r>  -16.2605    1.0000 </r>
       <r>  -16.2157    1.0000 </r>
       <r>  -16.1357    1.0000 </r>
       <r>  -16.1045    1.0000 </r>
       <r>  -15.9032    1.0000 </r>
       <r>  -15.8340    1.0000 </r>
       <r>  -15.7931    1.0000 </r>
       <r>  -15.6764    1.0000 </r>
       <r>  -15.6009    1.0000 </r>
       <r>  -15.4973    1.0000 </r>
       <r>  -15.4281    1.0000 </r>
       <r>  -15.2892    1.0000 </r>
       <r>   -9.7473    1.0000 </r>
       <r>   -9.5164    1.0000 </r>
       <r>   -9.2687    1.0000 </r>
       <r>   -8.9074    1.0000 </r>
       <r>   -8.8255    1.0000 </r>
       <r>   -8.7226    1.0000 </r>
       <r>   -8.6083    1.0000 </r>
       <r>   -8.5423    1.0000 </r>
       <r>   -8.4704    1.0000 </r>
       <r>   -8.3556    1.0000 </r>
       <r>   -8.2639    1.0000 </r>
       <r>   -8.1311    1.0000 </r>
       <r>   -8.0639    1.0000 </r>
       <r>   -8.0072    1.0000 </r>
       <r>   -7.9733    1.0000 </r>
       <r>   -7.9277    1.0000 </r>
       <r>   -7.7660    1.0000 </r>
       <r>   -7.7322    1.0000 </r>
       <r>   -7.5915    1.0000 </r>
       <r>   -7.4716    1.0000 </r>
       <r>   -7.3834    1.0000 </r>
       <r>   -7.2092    1.0000 </r>
       <r>   -7.1528    1.0000 </r>
       <r>   -7.0159    1.0000 </r>
       <r>   -6.9781    1.0000 </r>
       <r>   -6.8727    1.0000 </r>
       <r>   -6.8524    1.0000 </r>
       <r>   -6.7437    1.0000 </r>
       <r>   -6.6665    1.0000 </r>
       <r>   -6.6528    1.0000 </r>
       <r>   -6.5597    1.0000 </r>
       <r>   -6.5060    1.0000 </r>
       <r>   -6.4557    1.0000 </r>
       <r>   -6.3549    1.0000 </r>
       <r>   -6.2882    1.0000 </r>
       <r>   -6.1678    1.0000 </r>
       <r>   -6.1336    1.0000 </r>
       <r>   -6.0554    1.0000 </r>
       <r>   -5.9811    1.0000 </r>
       <r>   -5.9360    1.0000 </r>
       <r>   -5.8798    1.0000 </r>
       <r>   -5.8349    1.0000 </r>
       <r>   -5.6789    1.0000 </r>
       <r>   -5.6286    1.0000 </r>
       <r>   -5.5565    1.0000 </r>
       <r>   -5.3439    1.0000 </r>
       <r>   -5.2846    1.0000 </r>
       <r>   -5.2047    1.0000 </r>
       <r>   -5.1045    1.0000 </r>
       <r>   -4.9059    1.0000 </r>
       <r>   -4.8204    1.0000 </r>
       <r>   -4.7062    1.0000 </r>
       <r>   -4.5659    1.0000 </r>
       <r>   -4.4650    1.0000 </r>
       <r>   -4.3310    1.0000 </r>
       <r>   -4.2323    1.0000 </r>
       <r>   -4.1609    1.0000 </r>
       <r>   -4.0728    1.0000 </r>
       <r>   -3.8380    0.9999 </r>
       <r>   -3.7745    0.9995 </r>
       <r>   -3.5254    0.9342 </r>
       <r>   -3.2841    0.4212 </r>
       <r>   -3.0410    0.0276 </r>
       <r>   -2.8982    0.0017 </r>
       <r>   -2.7177    0.0000 </r>
       <r>   -2.6893    0.0000 </r>
       <r>   -2.5909    0.0000 </r>
       <r>   -2.4310    0.0000 </r>
       <r>   -2.3656    0.0000 </r>
       <r>   -2.1652    0.0000 </r>
       <r>   -2.0806    0.0000 </r>
       <r>   -1.9954    0.0000 </r>
       <r>   -1.9129    0.0000 </r>
       <r>   -1.4427    0.0000 </r>
       <r>   -1.3611    0.0000 </r>
       <r>   -1.2121    0.0000 </r>
       <r>   -1.1414    0.0000 </r>
       <r>   -1.1128    0.0000 </r>
       <r>   -1.0468    0.0000 </r>
       <r>   -0.9487    0.0000 </r>
       <r>   -0.9004    0.0000 </r>
       <r>   -0.8625    0.0000 </r>
       <r>   -0.7947    0.0000 </r>
       <r>   -0.7668    0.0000 </r>
       <r>   -0.7041    0.0000 </r>
       <r>   -0.6372    0.0000 </r>
       <r>   -0.4976    0.0000 </r>
       <r>   -0.3940    0.0000 </r>
       <r>   -0.2539    0.0000 </r>
       <r>   -0.0891    0.0000 </r>
       <r>    0.0309    0.0000 </r>
       <r>    0.1978    0.0000 </r>
       <r>    0.3093    0.0000 </r>
       <r>    0.3558    0.0000 </r>
       <r>    0.8274    0.0000 </r>
       <r>    0.8948    0.0000 </r>
       <r>    1.0138    0.0000 </r>
       <r>    1.3089    0.0000 </r>
       <r>    1.4987    0.0000 </r>
       <r>    2.1346    0.0000 </r>
       <r>    2.2883    0.0000 </r>
       <r>    2.3872    0.0000 </r>
      </set>
      <set comment="kpoint 34">
       <r>  -17.4562    1.0000 </r>
       <r>  -17.3584    1.0000 </r>
       <r>  -16.7388    1.0000 </r>
       <r>  -16.6701    1.0000 </r>
       <r>  -16.6408    1.0000 </r>
       <r>  -16.4378    1.0000 </r>
       <r>  -16.2561    1.0000 </r>
       <r>  -16.2127    1.0000 </r>
       <r>  -16.1303    1.0000 </r>
       <r>  -16.0828    1.0000 </r>
       <r>  -15.8578    1.0000 </r>
       <r>  -15.8284    1.0000 </r>
       <r>  -15.7995    1.0000 </r>
       <r>  -15.6932    1.0000 </r>
       <r>  -15.6065    1.0000 </r>
       <r>  -15.5057    1.0000 </r>
       <r>  -15.4266    1.0000 </r>
       <r>  -15.2912    1.0000 </r>
       <r>   -9.7789    1.0000 </r>
       <r>   -9.4439    1.0000 </r>
       <r>   -9.1232    1.0000 </r>
       <r>   -9.0671    1.0000 </r>
       <r>   -8.8411    1.0000 </r>
       <r>   -8.8193    1.0000 </r>
       <r>   -8.6121    1.0000 </r>
       <r>   -8.5490    1.0000 </r>
       <r>   -8.5168    1.0000 </r>
       <r>   -8.3591    1.0000 </r>
       <r>   -8.2171    1.0000 </r>
       <r>   -8.1495    1.0000 </r>
       <r>   -8.0407    1.0000 </r>
       <r>   -8.0026    1.0000 </r>
       <r>   -7.9149    1.0000 </r>
       <r>   -7.8066    1.0000 </r>
       <r>   -7.7773    1.0000 </r>
       <r>   -7.6831    1.0000 </r>
       <r>   -7.6056    1.0000 </r>
       <r>   -7.4983    1.0000 </r>
       <r>   -7.4240    1.0000 </r>
       <r>   -7.3184    1.0000 </r>
       <r>   -7.0733    1.0000 </r>
       <r>   -7.0159    1.0000 </r>
       <r>   -6.9825    1.0000 </r>
       <r>   -6.9028    1.0000 </r>
       <r>   -6.8414    1.0000 </r>
       <r>   -6.7168    1.0000 </r>
       <r>   -6.6645    1.0000 </r>
       <r>   -6.6266    1.0000 </r>
       <r>   -6.5406    1.0000 </r>
       <r>   -6.5283    1.0000 </r>
       <r>   -6.4825    1.0000 </r>
       <r>   -6.2941    1.0000 </r>
       <r>   -6.2820    1.0000 </r>
       <r>   -6.2325    1.0000 </r>
       <r>   -6.1029    1.0000 </r>
       <r>   -6.0641    1.0000 </r>
       <r>   -5.9864    1.0000 </r>
       <r>   -5.9413    1.0000 </r>
       <r>   -5.8922    1.0000 </r>
       <r>   -5.8364    1.0000 </r>
       <r>   -5.7189    1.0000 </r>
       <r>   -5.6631    1.0000 </r>
       <r>   -5.5984    1.0000 </r>
       <r>   -5.3653    1.0000 </r>
       <r>   -5.2692    1.0000 </r>
       <r>   -5.1413    1.0000 </r>
       <r>   -5.0719    1.0000 </r>
       <r>   -4.9313    1.0000 </r>
       <r>   -4.8657    1.0000 </r>
       <r>   -4.6377    1.0000 </r>
       <r>   -4.4870    1.0000 </r>
       <r>   -4.4269    1.0000 </r>
       <r>   -4.3364    1.0000 </r>
       <r>   -4.2477    1.0000 </r>
       <r>   -4.2039    1.0000 </r>
       <r>   -4.0787    1.0000 </r>
       <r>   -3.8558    0.9999 </r>
       <r>   -3.7966    0.9997 </r>
       <r>   -3.5387    0.9454 </r>
       <r>   -3.2605    0.3573 </r>
       <r>   -3.0522    0.0330 </r>
       <r>   -2.8918    0.0015 </r>
       <r>   -2.7279    0.0000 </r>
       <r>   -2.6905    0.0000 </r>
       <r>   -2.6023    0.0000 </r>
       <r>   -2.4194    0.0000 </r>
       <r>   -2.3560    0.0000 </r>
       <r>   -2.1744    0.0000 </r>
       <r>   -2.0489    0.0000 </r>
       <r>   -1.9963    0.0000 </r>
       <r>   -1.9287    0.0000 </r>
       <r>   -1.4461    0.0000 </r>
       <r>   -1.3589    0.0000 </r>
       <r>   -1.1889    0.0000 </r>
       <r>   -1.1402    0.0000 </r>
       <r>   -1.1026    0.0000 </r>
       <r>   -1.0651    0.0000 </r>
       <r>   -0.9287    0.0000 </r>
       <r>   -0.9008    0.0000 </r>
       <r>   -0.8662    0.0000 </r>
       <r>   -0.7905    0.0000 </r>
       <r>   -0.7653    0.0000 </r>
       <r>   -0.7051    0.0000 </r>
       <r>   -0.6631    0.0000 </r>
       <r>   -0.5431    0.0000 </r>
       <r>   -0.3848    0.0000 </r>
       <r>   -0.2494    0.0000 </r>
       <r>   -0.1338    0.0000 </r>
       <r>    0.1028    0.0000 </r>
       <r>    0.1592    0.0000 </r>
       <r>    0.2829    0.0000 </r>
       <r>    0.3759    0.0000 </r>
       <r>    0.8406    0.0000 </r>
       <r>    0.9129    0.0000 </r>
       <r>    1.0091    0.0000 </r>
       <r>    1.3297    0.0000 </r>
       <r>    1.5099    0.0000 </r>
       <r>    2.2118    0.0000 </r>
       <r>    2.2462    0.0000 </r>
       <r>    2.3704    0.0000 </r>
      </set>
     </set>
    </set>
   </array>
  </eigenvalues>
  <separator name="orbital magnetization" >
   <v name="MAGDIPOLOUT">      0.00000000      0.00000000      0.00000000</v>
  </separator>
 </calculation>
 <structure name="finalpos" >
  <crystal>
   <varray name="basis" >
    <v>       8.37120827       4.85809212       0.00000000 </v>
    <v>      -8.33851573       4.80176677       0.00000000 </v>
    <v>       0.00000000       0.00000000      30.00000000 </v>
   </varray>
   <i name="volume">   2421.17601609 </i>
   <varray name="rec_basis" >
    <v>       0.05949712       0.10331982       0.00000000 </v>
    <v>      -0.06019503       0.10372490       0.00000000 </v>
    <v>       0.00000000       0.00000000       0.03333333 </v>
   </varray>
  </crystal>
  <varray name="positions" >
   <v>       0.62983046       0.31138189       0.00196917 </v>
   <v>       0.66549640      -0.01636540      -0.00297360 </v>
   <v>       0.63380032       0.64164820       0.00128344 </v>
   <v>       0.32284692       0.32487220       0.00048685 </v>
   <v>       0.31608838       0.01519729       0.00085985 </v>
   <v>       1.03507951       0.35338430      -0.00126188 </v>
   <v>       0.02340159       0.03382216       0.00026130 </v>
   <v>       0.03632342       0.66777690      -0.00151626 </v>
   <v>       0.32365755       0.64330584       0.00029791 </v>
   <v>       0.11408303       0.22677009       0.94288059 </v>
   <v>       0.21825664       0.11553942       0.05734148 </v>
   <v>       0.12210949       0.55886134       0.94192538 </v>
   <v>       0.22866061       0.44517249       0.05668196 </v>
   <v>       0.10562710       0.89092888       0.94736237 </v>
   <v>       0.23409007       0.78166558       0.05260800 </v>
   <v>       0.44316070       0.22294139       0.94698207 </v>
   <v>       0.55244489       0.11095585       0.05032302 </v>
   <v>       0.44644227       0.55339087       0.94658409 </v>
   <v>       0.55393669       0.44346459       0.05292107 </v>
   <v>       0.44236292       0.89220198       0.95417223 </v>
   <v>       0.56051974       0.77975444       0.05043459 </v>
   <v>       0.77690516       0.22639812       0.95644874 </v>
   <v>       0.88643401       0.11780353       0.04894209 </v>
   <v>       0.77604735       0.55310182       0.95641903 </v>
   <v>       0.88547510       0.44317273       0.04547325 </v>
   <v>       0.77636714       0.88462720       0.95248783 </v>
   <v>       0.88876699       0.77644076       0.04060531 </v>
  </varray>
 </structure>
</modeling>
