unknown system                          
           1
     8.856494    5.109490    0.000000
    -8.852589    5.102773    0.000000
     0.000000    0.000000   30.000000
   V    Mo   W    S 
   3   3   3  18
Direct configuration=     1
   0.66666669  0.33333334  0.00000000
   0.66666669  0.00000000  0.00000000
   0.66666669  0.66666669  0.00000000
   0.33333334  0.33333334  0.00000000
   0.33333334  0.00000000  0.00000000
   1.00000000  0.33333334  0.00000000
   0.00000000  0.00000000  0.00000000
   0.00000000  0.66666669  0.00000000
   0.33333334  0.66666669  0.00000000
   0.11068511  0.22244981  0.95539999
   0.22244981  0.11068511  0.04460000
   0.11068511  0.55578315  0.95539999
   0.22244981  0.44401845  0.04460000
   0.11068511  0.88911647  0.95539999
   0.22244981  0.77735180  0.04460000
   0.44401845  0.22244981  0.95539999
   0.55578315  0.11068511  0.04460000
   0.44401845  0.55578315  0.95539999
   0.55578315  0.44401845  0.04460000
   0.44401845  0.88911647  0.95539999
   0.55578315  0.77735180  0.04460000
   0.77735180  0.22244981  0.95539999
   0.88911647  0.11068511  0.04460000
   0.77735180  0.55578315  0.95539999
   0.88911647  0.44401845  0.04460000
   0.77735180  0.88911647  0.95539999
   0.88911647  0.77735180  0.04460000
unknown system                          
           1
     8.667955    5.002552    0.000000
    -8.664655    4.996880    0.000000
     0.000000    0.000000   30.000000
   V    Mo   W    S 
   3   3   3  18
Direct configuration=     2
   0.66549758  0.33215557  0.00002475
   0.66669327  0.00126860 -0.00004500
   0.66556243  0.66551486  0.00001593
   0.33216421  0.33188929  0.00022634
   0.33333652  0.00141437  0.00015213
   1.00128390  0.33338933 -0.00019730
   0.00239409  0.00285898 -0.00024816
   0.00089976  0.66614710 -0.00019548
   0.33246697  0.66548189  0.00019796
   0.11028537  0.22101055  0.95068850
   0.22136698  0.11062498  0.04934123
   0.11123988  0.55617578  0.95065489
   0.22283260  0.44544243  0.04925920
   0.10994537  0.88820408  0.95073578
   0.22189620  0.77700779  0.04930669
   0.44887268  0.22435945  0.95193812
   0.55988703  0.11299175  0.04690846
   0.44838338  0.55808829  0.95196011
   0.55985162  0.44630933  0.04686795
   0.44835490  0.89005204  0.95201044
   0.55889269  0.77914955  0.04687448
   0.77324725  0.22010885  0.95313257
   0.88465041  0.10831878  0.04805620
   0.77421022  0.55397851  0.95313516
   0.88473293  0.44309489  0.04801355
   0.77420401  0.88726389  0.95317855
   0.88506217  0.77591352  0.04800685
unknown system                          
           1
     8.483987    4.901904    0.000000
    -8.481139    4.897007    0.000000
     0.000000    0.000000   30.000000
   V    Mo   W    S 
   3   3   3  18
Direct configuration=     3
   0.66513236  0.33181877  0.00002834
   0.66670591  0.00157736 -0.00009461
   0.66522098  0.66520230  0.00002525
   0.33127401  0.33110432  0.00024128
   0.33286620  0.00167091  0.00012302
   1.00213518  0.33368564 -0.00017283
   0.00350938  0.00394244 -0.00025732
   0.00159003  0.66611843 -0.00015089
   0.33171923  0.66492810  0.00020902
   0.11018862  0.22079127  0.95053092
   0.22112265  0.11050818  0.04949282
   0.11135350  0.55640681  0.95057542
   0.22296451  0.44566743  0.04936054
   0.10968986  0.88811257  0.95071814
   0.22180279  0.77677231  0.04931972
   0.44903730  0.22447290  0.95191885
   0.55998380  0.11308176  0.04691749
   0.44835690  0.55825415  0.95201035
   0.55992466  0.44635081  0.04683714
   0.44834376  0.88988687  0.95210743
   0.55871979  0.77909029  0.04680045
   0.77315977  0.22004064  0.95317046
   0.88466792  0.10812285  0.04801061
   0.77436996  0.55401868  0.95320762
   0.88474986  0.44325594  0.04793058
   0.77438451  0.88734173  0.95330088
   0.88524100  0.77599101  0.04783920
unknown system                          
           1
     8.272465    4.791932    0.000000
    -8.259852    4.770122    0.000000
     0.000000    0.000000   30.000000
   V    Mo   W    S 
   3   3   3  18
Direct configuration=     4
   0.66382002  0.33073716  0.00002932
   0.66667668  0.00239355 -0.00026695
   0.66397751  0.66417693  0.00004451
   0.32707154  0.32764339  0.00019767
   0.33017406  0.00214663 -0.00002669
   1.00616798  0.33540069 -0.00003132
   0.00825862  0.00805838 -0.00017859
   0.00496825  0.66634194  0.00007650
   0.32805778  0.66260971  0.00013918
   0.11040293  0.22095642  0.94824174
   0.22096879  0.11045614  0.05175132
   0.11150353  0.55649334  0.94856876
   0.22314468  0.44567455  0.05139600
   0.10941322  0.88809482  0.94901042
   0.22195002  0.77678271  0.05102438
   0.45035356  0.22534297  0.95042200
   0.56096430  0.11373166  0.04827435
   0.44923724  0.55866090  0.95078468
   0.56077369  0.44674340  0.04802989
   0.44927604  0.89030823  0.95107770
   0.55957282  0.77968487  0.04786865
   0.77228375  0.21959376  0.95201627
   0.88366318  0.10744104  0.04927966
   0.77352978  0.55338937  0.95215059
   0.88368401  0.44263616  0.04905802
   0.77370104  0.88694088  0.95245441
   0.88461943  0.77577485  0.04860743
unknown system                          
           1
     8.275753    4.811167    0.000000
    -8.249292    4.765371    0.000000
     0.000000    0.000000   30.000000
   V    Mo   W    S 
   3   3   3  18
Direct configuration=     5
   0.66117075  0.32909893  0.00002631
   0.66663085  0.00311761 -0.00049480
   0.66113838  0.66237541  0.00007171
   0.31875945  0.32076322  0.00004404
   0.32436803  0.00305505 -0.00020257
   1.01472412  0.33949593  0.00013698
   0.01730457  0.01601274  0.00001615
   0.01190715  0.66632722  0.00036919
   0.32055339  0.65782807 -0.00004523
   0.11081022  0.22160033  0.94487035
   0.22140244  0.11086949  0.05517036
   0.11140317  0.55588639  0.94556734
   0.22382689  0.44537820  0.05438386
   0.10891777  0.88813951  0.94664675
   0.22314283  0.77773629  0.05349905
   0.45102267  0.22609324  0.94837268
   0.56110930  0.11417944  0.05014922
   0.44925636  0.55806162  0.94927466
   0.56045721  0.44624799  0.04974158
   0.44946017  0.89062437  0.94991426
   0.55979838  0.78016518  0.04930880
   0.77253877  0.21990751  0.95047967
   0.88343835  0.10752930  0.05082658
   0.77322700  0.55264004  0.95082600
   0.88299698  0.44158496  0.05042411
   0.77402043  0.88714394  0.95137589
   0.88482885  0.77635247  0.04924695
unknown system                          
           1
     8.273618    4.809595    0.000000
    -8.246539    4.762741    0.000000
     0.000000    0.000000   30.000000
   V    Mo   W    S 
   3   3   3  18
Direct configuration=     6
   0.65979843  0.32857124  0.00002884
   0.66683877  0.00296448 -0.00058017
   0.65938449  0.66170083  0.00014403
   0.31851671  0.32016593  0.00017459
   0.32319809  0.00329908 -0.00004674
   1.01622037  0.34084647 -0.00002921
   0.01848293  0.01725995 -0.00006920
   0.01394298  0.66601764  0.00026893
   0.31905067  0.65669161  0.00013017
   0.11063074  0.22186665  0.94447032
   0.22177532  0.11112220  0.05562990
   0.11118678  0.55543813  0.94505853
   0.22465701  0.44531348  0.05468683
   0.10834418  0.88800468  0.94651867
   0.22405117  0.77841896  0.05374703
   0.44986681  0.22568625  0.94828448
   0.56027507  0.11387375  0.05009362
   0.44803873  0.55710058  0.94924897
   0.55933533  0.44545306  0.04975625
   0.44819253  0.89026082  0.95013207
   0.55887650  0.77982775  0.04925785
   0.77358859  0.22060623  0.95064361
   0.88464746  0.10843823  0.05076945
   0.77401842  0.55282835  0.95102543
   0.88393882  0.44151809  0.05029292
   0.77525973  0.88779960  0.95154707
   0.88609782  0.77714041  0.04881568
unknown system                          
           1
     8.280158    4.816342    0.000000
    -8.250050    4.764246    0.000000
     0.000000    0.000000   30.000000
   V    Mo   W    S 
   3   3   3  18
Direct configuration=     7
   0.65811355  0.32787502 -0.00001853
   0.66739516  0.00298532 -0.00071330
   0.65706665  0.66078856  0.00018264
   0.31789606  0.31932223  0.00014458
   0.32178609  0.00367105 -0.00000101
   1.01816129  0.34236967 -0.00006140
   0.02021255  0.01918017 -0.00001872
   0.01636561  0.66565653  0.00024734
   0.31718626  0.65513916  0.00014359
   0.11085885  0.22222875  0.94418838
   0.22170283  0.11118897  0.05599091
   0.11145399  0.55534751  0.94460072
   0.22507344  0.44516281  0.05495335
   0.10804983  0.88786947  0.94643788
   0.22456527  0.77882874  0.05397248
   0.44912856  0.22535386  0.94821451
   0.55971374  0.11363805  0.05004626
   0.44730492  0.55654850  0.94922083
   0.55867736  0.44496298  0.04985003
   0.44737491  0.89001181  0.95042495
   0.55822104  0.77962270  0.04925205
   0.77428855  0.22111052  0.95081926
   0.88545955  0.10917766  0.05068432
   0.77462763  0.55304161  0.95129060
   0.88456519  0.44150089  0.05012853
   0.77607201  0.88814056  0.95171822
   0.88689353  0.77749136  0.04830144
unknown system                          
           1
     8.286752    4.824357    0.000000
    -8.252330    4.764801    0.000000
     0.000000    0.000000   30.000000
   V    Mo   W    S 
   3   3   3  18
Direct configuration=     8
   0.65699053  0.32739661 -0.00003144
   0.66794227  0.00309187 -0.00081241
   0.65545069  0.66016052  0.00023472
   0.31793093  0.31908324  0.00017515
   0.32115967  0.00396512  0.00004713
   1.01903459  0.34311191 -0.00010209
   0.02089621  0.02012626 -0.00001850
   0.01760793  0.66541086  0.00021614
   0.31642419  0.65435185  0.00019486
   0.11096610  0.22242112  0.94406898
   0.22170833  0.11127420  0.05615189
   0.11158654  0.55529114  0.94435763
   0.22533615  0.44509830  0.05506789
   0.10785143  0.88777250  0.94644161
   0.22490309  0.77904399  0.05405824
   0.44875417  0.22514705  0.94816662
   0.55945580  0.11351231  0.04998199
   0.44695113  0.55631477  0.94916875
   0.55843096  0.44476275  0.04989424
   0.44696971  0.88988018  0.95063194
   0.55790781  0.77952397  0.04923101
   0.77461191  0.22137099  0.95094715
   0.88586661  0.10958460  0.05064100
   0.77492716  0.55319023  0.95148916
   0.88486377  0.44150622  0.05000989
   0.77643373  0.88823769  0.95184072
   0.88725305  0.77758419  0.04794764
unknown system                          
           1
     8.284997    4.823183    0.000000
    -8.250960    4.764290    0.000000
     0.000000    0.000000   30.000000
   V    Mo   W    S 
   3   3   3  18
Direct configuration=     9
   0.65529924  0.32664696 -0.00004058
   0.66896121  0.00340146 -0.00097211
   0.65299755  0.65917553  0.00032159
   0.31813664  0.31885300  0.00021817
   0.32039947  0.00448174  0.00010772
   1.02013979  0.34399954 -0.00015503
   0.02171973  0.02142715 -0.00001699
   0.01922347  0.66506095  0.00016817
   0.31551052  0.65325957  0.00026043
   0.11114820  0.22268543  0.94391090
   0.22170550  0.11140037  0.05636351
   0.11179707  0.55523680  0.94404049
   0.22565158  0.44499901  0.05522886
   0.10760407  0.88765620  0.94646373
   0.22536273  0.77930701  0.05415940
   0.44832979  0.22487365  0.94807517
   0.55916811  0.11335844  0.04989675
   0.44656130  0.55608427  0.94905053
   0.55820903  0.44454356  0.04998788
   0.44653115  0.88973926  0.95093508
   0.55754883  0.77943101  0.04921914
   0.77497507  0.22170803  0.95110764
   0.88633683  0.11008947  0.05061472
   0.77527241  0.55339127  0.95177455
   0.88517862  0.44150562  0.04984558
   0.77682914  0.88828029  0.95200058
   0.88761740  0.77761887  0.04743401
unknown system                          
           1
     8.287463    4.823711    0.000000
    -8.255077    4.767663    0.000000
     0.000000    0.000000   30.000000
   V    Mo   W    S 
   3   3   3  18
Direct configuration=    10
   0.65568933  0.32682473 -0.00004217
   0.66860007  0.00325625 -0.00093210
   0.65355620  0.65940904  0.00030043
   0.31800316  0.31880306  0.00021594
   0.32051082  0.00435923  0.00009904
   1.01997662  0.34389729 -0.00015073
   0.02163590  0.02120275 -0.00002450
   0.01895686  0.66510629  0.00017922
   0.31562842  0.65349640  0.00025676
   0.11108453  0.22262587  0.94393318
   0.22172077  0.11137694  0.05633495
   0.11173348  0.55523629  0.94408586
   0.22561687  0.44503004  0.05520248
   0.10763163  0.88766670  0.94645087
   0.22528573  0.77927120  0.05415225
   0.44837987  0.22491715  0.94810006
   0.55920556  0.11339221  0.04991231
   0.44659781  0.55609651  0.94908646
   0.55822219  0.44456832  0.04995573
   0.44656095  0.88974431  0.95086209
   0.55759498  0.77943263  0.04921767
   0.77492651  0.22163887  0.95108707
   0.88628832  0.11001846  0.05060477
   0.77523503  0.55335224  0.95171100
   0.88515979  0.44151415  0.04988078
   0.77679546  0.88831949  0.95197677
   0.88761761  0.77765804  0.04754372
unknown system                          
           1
     8.293628    4.821893    0.000000
    -8.270576    4.781938    0.000000
     0.000000    0.000000   30.000000
   V    Mo   W    S 
   3   3   3  18
Direct configuration=    11
   0.65627890  0.32720025 -0.00005827
   0.66772923  0.00280864 -0.00085965
   0.65425132  0.65966453  0.00025399
   0.31787216  0.31874689  0.00020695
   0.32070998  0.00421934  0.00008951
   1.01977811  0.34379892 -0.00014873
   0.02155838  0.02093529 -0.00003065
   0.01851534  0.66507176  0.00019504
   0.31589391  0.65385035  0.00025138
   0.11098689  0.22258464  0.94392483
   0.22174823  0.11132765  0.05634841
   0.11165851  0.55523192  0.94409802
   0.22562202  0.44508226  0.05519433
   0.10764288  0.88763554  0.94641688
   0.22520777  0.77927996  0.05417852
   0.44843456  0.22497943  0.94813536
   0.55924081  0.11346164  0.04993228
   0.44668291  0.55611326  0.94917235
   0.55827874  0.44465409  0.04987859
   0.44652920  0.88973707  0.95074033
   0.55764507  0.77937383  0.04920953
   0.77488118  0.22155873  0.95109094
   0.88628666  0.10999625  0.05056400
   0.77519191  0.55332266  0.95164833
   0.88516764  0.44150986  0.04993101
   0.77678159  0.88836142  0.95197959
   0.88764053  0.77770829  0.04765703
unknown system                          
           1
     8.286555    4.825145    0.000000
    -8.252941    4.766965    0.000000
     0.000000    0.000000   30.000000
   V    Mo   W    S 
   3   3   3  18
Direct configuration=    12
   0.65958067  0.32885425 -0.00020854
   0.66114078 -0.00052967 -0.00047562
   0.65826176  0.66155180 -0.00003568
   0.31618847  0.31745180  0.00025132
   0.32173844  0.00353419  0.00009293
   1.01975786  0.34416083 -0.00019675
   0.02197082  0.02030667 -0.00008692
   0.01685803  0.66458689  0.00027890
   0.31663461  0.65588719  0.00029491
   0.11045204  0.22232966  0.94397235
   0.22192324  0.11110938  0.05631244
   0.11147115  0.55534833  0.94424876
   0.22580554  0.44544474  0.05501286
   0.10768662  0.88740045  0.94638713
   0.22472258  0.77920006  0.05418265
   0.44852580  0.22521133  0.94839785
   0.55945185  0.11390307  0.04995233
   0.44670081  0.55591247  0.94966964
   0.55840291  0.44492283  0.04942046
   0.44616576  0.88964084  0.95013337
   0.55778321  0.77912078  0.04916670
   0.77457183  0.22077701  0.95137643
   0.88636823  0.10998669  0.05005018
   0.77533535  0.55323673  0.95135150
   0.88551986  0.44158575  0.05014068
   0.77687499  0.88903789  0.95219699
   0.88832123  0.77824249  0.04811305
unknown system                          
           1
     8.290799    4.829407    0.000000
    -8.256416    4.769887    0.000000
     0.000000    0.000000   30.000000
   V    Mo   W    S 
   3   3   3  18
Direct configuration=    13
   0.65569176  0.32696512 -0.00013919
   0.66552268  0.00142455 -0.00088764
   0.65322309  0.65942764  0.00022359
   0.31728315  0.31787333  0.00025505
   0.32044579  0.00456321  0.00014619
   1.02135868  0.34521202 -0.00021645
   0.02279577  0.02223819 -0.00002674
   0.01960350  0.66443463  0.00016765
   0.31520197  0.65353826  0.00031434
   0.11107096  0.22278680  0.94384598
   0.22177764  0.11135199  0.05647778
   0.11199443  0.55532051  0.94391613
   0.22600737  0.44513101  0.05521505
   0.10748996  0.88746759  0.94653025
   0.22541290  0.77943341  0.05420660
   0.44805725  0.22478872  0.94816793
   0.55906100  0.11351741  0.04986518
   0.44627270  0.55580478  0.94925165
   0.55815506  0.44454061  0.04981319
   0.44596553  0.88957392  0.95082576
   0.55736676  0.77921115  0.04922650
   0.77511865  0.22152243  0.95141515
   0.88668840  0.11046048  0.05024354
   0.77566232  0.55354352  0.95186984
   0.88562377  0.44155309  0.04981032
   0.77714479  0.88865217  0.95227110
   0.88821857  0.77787795  0.04721114
unknown system                          
           1
     8.294682    4.833422    0.000000
    -8.259342    4.772240    0.000000
     0.000000    0.000000   30.000000
   V    Mo   W    S 
   3   3   3  18
Direct configuration=    14
   0.65557526  0.32697900 -0.00018905
   0.66356972  0.00024582 -0.00087217
   0.65292279  0.65940479  0.00019112
   0.31699636  0.31745922  0.00027643
   0.32055728  0.00470439  0.00018099
   1.02218261  0.34600780 -0.00025382
   0.02336501  0.02273577 -0.00002428
   0.01993447  0.66408084  0.00016128
   0.31512741  0.65364871  0.00035753
   0.11110080  0.22290440  0.94377497
   0.22183525  0.11134153  0.05657699
   0.11217821  0.55537340  0.94379041
   0.22624949  0.44518115  0.05524623
   0.10744136  0.88739623  0.94655972
   0.22549308  0.77952223  0.05425239
   0.44792317  0.22474602  0.94816739
   0.55899587  0.11360411  0.04989038
   0.44612266  0.55565179  0.94929368
   0.55813867  0.44451989  0.04977945
   0.44563614  0.88949800  0.95074441
   0.55727284  0.77910304  0.04929266
   0.77525892  0.22147910  0.95157709
   0.88685582  0.11069765  0.05005312
   0.77587981  0.55364894  0.95193813
   0.88582898  0.44152821  0.04979206
   0.77730236  0.88879809  0.95240798
   0.88847013  0.77795433  0.04703481
unknown system                          
           1
     8.300368    4.838466    0.000000
    -8.263705    4.774994    0.000000
     0.000000    0.000000   30.000000
   V    Mo   W    S 
   3   3   3  18
Direct configuration=    15
   0.65457683  0.32655038 -0.00026152
   0.66110409 -0.00135289 -0.00092345
   0.65135490  0.65891742  0.00017786
   0.31699669  0.31706519  0.00030874
   0.32074408  0.00519618  0.00024680
   1.02355260  0.34720517 -0.00031502
   0.02424732  0.02373649  0.00000016
   0.02084941  0.66362737  0.00014188
   0.31509864  0.65353503  0.00042651
   0.11129956  0.22316569  0.94367913
   0.22187924  0.11135132  0.05671060
   0.11261885  0.55550175  0.94358376
   0.22662650  0.44519785  0.05532110
   0.10742045  0.88737175  0.94664760
   0.22571416  0.77968273  0.05428440
   0.44767290  0.22459050  0.94810968
   0.55883240  0.11362967  0.04991960
   0.44592336  0.55548743  0.94924588
   0.55810741  0.44444600  0.04983191
   0.44515233  0.88943124  0.95071740
   0.55710547  0.77898645  0.04942659
   0.77559916  0.22154104  0.95186343
   0.88710937  0.11114123  0.04977612
   0.77622882  0.55387889  0.95215592
   0.88613594  0.44147662  0.04968442
   0.77753928  0.88890770  0.95264909
   0.88872470  0.77794626  0.04659130
unknown system                          
           1
     8.310596    4.844189    0.000000
    -8.271429    4.776418    0.000000
     0.000000    0.000000   30.000000
   V    Mo   W    S 
   3   3   3  18
Direct configuration=    16
   0.65330496  0.32597594 -0.00031581
   0.65958500 -0.00244341 -0.00101400
   0.64943647  0.65825681  0.00019541
   0.31718019  0.31682916  0.00033617
   0.32078270  0.00572939  0.00031098
   1.02479990  0.34825648 -0.00036845
   0.02501605  0.02475733  0.00002850
   0.02189608  0.66323866  0.00011634
   0.31496757  0.65319196  0.00048905
   0.11153509  0.22344383  0.94357610
   0.22189921  0.11138492  0.05684985
   0.11304027  0.55560160  0.94336064
   0.22696536  0.44517038  0.05541771
   0.10737893  0.88735363  0.94672613
   0.22598290  0.77985426  0.05432048
   0.44741624  0.22441385  0.94802872
   0.55865200  0.11360375  0.04993226
   0.44572334  0.55534351  0.94915283
   0.55805571  0.44434521  0.04992300
   0.44472863  0.88937569  0.95077039
   0.55691714  0.77889635  0.04954451
   0.77594203  0.22168339  0.95210868
   0.88736747  0.11157972  0.04957416
   0.77654877  0.55410432  0.95239485
   0.88639748  0.44141842  0.04956125
   0.77777239  0.88895185  0.95285884
   0.88892258  0.77789744  0.04612130
unknown system                          
           1
     8.323707    4.849537    0.000000
    -8.283724    4.780396    0.000000
     0.000000    0.000000   30.000000
   V    Mo   W    S 
   3   3   3  18
Direct configuration=    17
   0.64972123  0.32423172 -0.00026877
   0.66196488 -0.00150609 -0.00134639
   0.64494771  0.65622461  0.00038849
   0.31871164  0.31757701  0.00037790
   0.32046899  0.00695496  0.00039072
   1.02586858  0.34865721 -0.00044608
   0.02524011  0.02622250  0.00006159
   0.02377813  0.66328166  0.00000658
   0.31469353  0.65154519  0.00055028
   0.11215095  0.22386656  0.94351281
   0.22182805  0.11162384  0.05696152
   0.11366359  0.55568928  0.94312790
   0.22722159  0.44491610  0.05557520
   0.10735234  0.88748993  0.94687780
   0.22665661  0.78008603  0.05429457
   0.44705368  0.22403172  0.94778085
   0.55837885  0.11328622  0.04982863
   0.44544145  0.55530340  0.94874458
   0.55795487  0.44407581  0.05023737
   0.44449426  0.88944736  0.95124175
   0.55662835  0.77902198  0.04963160
   0.77648058  0.22230270  0.95235432
   0.88769745  0.11216018  0.04961990
   0.77671030  0.55432027  0.95295144
   0.88647949  0.44133506  0.04921052
   0.77793114  0.88857951  0.95307841
   0.88869609  0.77748975  0.04525642
unknown system                          
           1
     8.322097    4.850457    0.000000
    -8.280843    4.779111    0.000000
     0.000000    0.000000   30.000000
   V    Mo   W    S 
   3   3   3  18
Direct configuration=    18
   0.64528691  0.32212284 -0.00017820
   0.66388905 -0.00101093 -0.00180442
   0.63980205  0.65380232  0.00060932
   0.32049388  0.31876425  0.00039247
   0.32057595  0.00868200  0.00048587
   1.02770420  0.34941316 -0.00048230
   0.02538658  0.02812318  0.00015245
   0.02589216  0.66316769 -0.00013420
   0.31469906  0.64953890  0.00060407
   0.11303958  0.22439525  0.94340271
   0.22169425  0.11195000  0.05709179
   0.11456328  0.55591175  0.94286062
   0.22755880  0.44456618  0.05576821
   0.10741674  0.88776872  0.94705685
   0.22753174  0.78029369  0.05421319
   0.44668795  0.22368335  0.94741820
   0.55812169  0.11302520  0.04978262
   0.44504073  0.55521158  0.94823204
   0.55783264  0.44371379  0.05067300
   0.44418507  0.88946059  0.95177839
   0.55634668  0.77911404  0.04980017
   0.77704173  0.22315480  0.95270624
   0.88813494  0.11292632  0.04965935
   0.77675858  0.55448742  0.95366344
   0.88640653  0.44112940  0.04870936
   0.77793138  0.88787013  0.95334913
   0.88819230  0.77694881  0.04418951
unknown system                          
           1
     8.328448    4.852232    0.000000
    -8.287654    4.781699    0.000000
     0.000000    0.000000   30.000000
   V    Mo   W    S 
   3   3   3  18
Direct configuration=    19
   0.64445790  0.32197386 -0.00005215
   0.66188501 -0.00241982 -0.00196666
   0.64046559  0.65364713  0.00070666
   0.32033106  0.31909917  0.00035786
   0.32157014  0.00974242  0.00050194
   1.02876986  0.34971064 -0.00066048
   0.02526466  0.02887330  0.00018022
   0.02597705  0.66323676 -0.00021133
   0.31575470  0.64907852  0.00063198
   0.11330980  0.22455153  0.94340045
   0.22175530  0.11223888  0.05703657
   0.11512221  0.55605479  0.94284361
   0.22810461  0.44460059  0.05594740
   0.10766569  0.88817389  0.94723822
   0.22792459  0.78018233  0.05401600
   0.44645068  0.22376444  0.94727390
   0.55810824  0.11303577  0.04988565
   0.44463828  0.55497582  0.94807872
   0.55752038  0.44350765  0.05082746
   0.44388695  0.88932010  0.95181931
   0.55638692  0.77904088  0.04990251
   0.77706965  0.22350616  0.95304525
   0.88823582  0.11338909  0.04955862
   0.77635106  0.55416605  0.95392759
   0.88601982  0.44079843  0.04842345
   0.77739346  0.88719258  0.95343841
   0.88779500  0.77677351  0.04384875
unknown system                          
           1
     8.336264    4.855923    0.000000
    -8.294864    4.784362    0.000000
     0.000000    0.000000   30.000000
   V    Mo   W    S 
   3   3   3  18
Direct configuration=    20
   0.64317615  0.32122513 -0.00006914
   0.66407611 -0.00127574 -0.00204839
   0.63818703  0.65278968  0.00073995
   0.32110887  0.31940348  0.00038387
   0.32098394  0.00983347  0.00052729
   1.02875157  0.34969256 -0.00056186
   0.02532512  0.02914635  0.00020370
   0.02681018  0.66326827 -0.00022145
   0.31513293  0.64841658  0.00063017
   0.11347006  0.22465251  0.94334915
   0.22165277  0.11220105  0.05709913
   0.11514429  0.55605937  0.94276203
   0.22788965  0.44442742  0.05592163
   0.10754489  0.88807913  0.94721110
   0.22805212  0.78033339  0.05407451
   0.44641734  0.22358209  0.94722377
   0.55798908  0.11287905  0.04979841
   0.44477013  0.55510597  0.94797499
   0.55760455  0.44347305  0.05091671
   0.44392472  0.88941318  0.95202804
   0.55628709  0.77914009  0.04988689
   0.77728076  0.22367278  0.95298237
   0.88834340  0.11344409  0.04965420
   0.77656926  0.55437529  0.95404291
   0.88619805  0.44090311  0.04837480
   0.77767701  0.88728603  0.95347263
   0.88784736  0.77668707  0.04364248
unknown system                          
           1
     8.336862    4.855715    0.000000
    -8.295410    4.784073    0.000000
     0.000000    0.000000   30.000000
   V    Mo   W    S 
   3   3   3  18
Direct configuration=    21
   0.64119851  0.32034714  0.00003905
   0.66560995 -0.00072621 -0.00229787
   0.63642560  0.65176658  0.00087474
   0.32181944  0.32004662  0.00036870
   0.32101254  0.01075438  0.00054683
   1.02934736  0.34966177 -0.00061237
   0.02513141  0.02997167  0.00023615
   0.02767822  0.66341213 -0.00030883
   0.31530619  0.64725883  0.00063483
   0.11383909  0.22487655  0.94331657
   0.22156903  0.11241346  0.05712466
   0.11556555  0.55611462  0.94267554
   0.22802897  0.44421371  0.05604704
   0.10759911  0.88830728  0.94732578
   0.22854745  0.78041955  0.05397677
   0.44616651  0.22343028  0.94707200
   0.55781667  0.11269916  0.04974805
   0.44458470  0.55505387  0.94775073
   0.55741010  0.44324788  0.05112423
   0.44379735  0.88942486  0.95238202
   0.55619148  0.77917038  0.04990328
   0.77747259  0.22418462  0.95316221
   0.88854481  0.11386037  0.04973341
   0.77642093  0.55427664  0.95439470
   0.88601526  0.44075464  0.04807422
   0.77754672  0.88681493  0.95355765
   0.88756890  0.77645875  0.04314983
unknown system                          
           1
     8.341570    4.858682    0.000000
    -8.299435    4.785863    0.000000
     0.000000    0.000000   30.000000
   V    Mo   W    S 
   3   3   3  18
Direct configuration=    22
   0.63908590  0.31957205  0.00025542
   0.66705302 -0.00045248 -0.00258100
   0.63510350  0.65067598  0.00103277
   0.32215336  0.32091250  0.00036237
   0.32100119  0.01196949  0.00060331
   1.03039481  0.34975460 -0.00061780
   0.02492236  0.03107887  0.00032706
   0.02898752  0.66371097 -0.00041415
   0.31561817  0.64542757  0.00062771
   0.11424940  0.22511126  0.94320879
   0.22138189  0.11271115  0.05707546
   0.11624803  0.55632462  0.94261663
   0.22823324  0.44393168  0.05619554
   0.10768870  0.88873918  0.94749912
   0.22917142  0.78042150  0.05371129
   0.44570077  0.22334452  0.94685550
   0.55751102  0.11230149  0.04974884
   0.44446465  0.55496817  0.94751769
   0.55689454  0.44293895  0.05144054
   0.44351772  0.88934967  0.95282141
   0.55621679  0.77920158  0.04991469
   0.77767761  0.22491148  0.95343057
   0.88867750  0.11444917  0.04980219
   0.77611750  0.55400812  0.95480287
   0.88569023  0.44053765  0.04760147
   0.77720058  0.88605917  0.95360555
   0.88725306  0.77625556  0.04255606
unknown system                          
           1
     8.348798    4.861795    0.000000
    -8.306973    4.789525    0.000000
     0.000000    0.000000   30.000000
   V    Mo   W    S 
   3   3   3  18
Direct configuration=    23
   0.63917421  0.31955679  0.00023193
   0.66753686 -0.00011031 -0.00257649
   0.63508600  0.65071605  0.00103565
   0.32226295  0.32085393  0.00034716
   0.32090000  0.01184358  0.00057037
   1.03009951  0.34959709 -0.00065086
   0.02485619  0.03089954  0.00028646
   0.02882138  0.66372404 -0.00042634
   0.31558991  0.64562115  0.00061850
   0.11418692  0.22509884  0.94323196
   0.22139083  0.11270289  0.05712064
   0.11614153  0.55623333  0.94260148
   0.22818053  0.44392911  0.05621815
   0.10763968  0.88866549  0.94746592
   0.22917583  0.78045888  0.05377509
   0.44574851  0.22332804  0.94689702
   0.55751460  0.11232609  0.04972601
   0.44447147  0.55497205  0.94751982
   0.55694770  0.44296510  0.05141440
   0.44359002  0.88937802  0.95284337
   0.55618175  0.77919695  0.04989664
   0.77763775  0.22486243  0.95337615
   0.88864615  0.11437613  0.04984840
   0.77616187  0.55403477  0.95476986
   0.88569292  0.44056853  0.04766156
   0.77727967  0.88614971  0.95358259
   0.88729971  0.77626619  0.04261446
unknown system                          
           1
     8.347504    4.861374    0.000000
    -8.304783    4.787562    0.000000
     0.000000    0.000000   30.000000
   V    Mo   W    S 
   3   3   3  18
Direct configuration=    24
   0.63804136  0.31904664  0.00036413
   0.66955807  0.00079675 -0.00275007
   0.63443049  0.65017420  0.00114172
   0.32254483  0.32134412  0.00034509
   0.32069194  0.01243626  0.00058481
   1.03029267  0.34934442 -0.00065043
   0.02453589  0.03131434  0.00031533
   0.02941271  0.66392319 -0.00049353
   0.31564312  0.64460950  0.00060483
   0.11433523  0.22522064  0.94318999
   0.22124095  0.11287485  0.05710963
   0.11642830  0.55624064  0.94255960
   0.22815338  0.44373023  0.05629878
   0.10761902  0.88883683  0.94751838
   0.22952623  0.78046659  0.05365428
   0.44552414  0.22327702  0.94683114
   0.55730302  0.11208674  0.04965564
   0.44441892  0.55491546  0.94740045
   0.55663779  0.44276303  0.05155483
   0.44361836  0.88939996  0.95321974