   27   27  100    1
  0.9710400E+02  0.1002848E-08  0.1002848E-08  0.3000000E-08  0.5000000E-15
  1.000000000000000E-004
  CAR 
 unknown system                          
    159     34    120
 
  0.0000000E+00  0.0000000E+00  0.0000000E+00  0.1562500E-01
    1      -17.804548   1.000000
    2      -16.729879   1.000000
    3      -16.678967   1.000000
    4      -16.579061   1.000000
    5      -16.537011   1.000000
    6      -16.461438   1.000000
    7      -16.428390   1.000000
    8      -16.314146   1.000000
    9      -16.157941   1.000000
   10      -16.098763   1.000000
   11      -16.076223   1.000000
   12      -15.950666   1.000000
   13      -15.916826   1.000000
   14      -15.676630   1.000000
   15      -15.591710   1.000000
   16      -15.532618   1.000000
   17      -15.323005   1.000000
   18      -15.256416   1.000000
   19       -9.285849   1.000000
   20       -9.002091   1.000000
   21       -8.926210   1.000000
   22       -8.822368   1.000000
   23       -8.768556   1.000000
   24       -8.707068   1.000000
   25       -8.654033   1.000000
   26       -8.604988   1.000000
   27       -8.557118   1.000000
   28       -8.423731   1.000000
   29       -8.403468   1.000000
   30       -8.351689   1.000000
   31       -8.288854   1.000000
   32       -8.197330   1.000000
   33       -8.121292   1.000000
   34       -8.031840   1.000000
   35       -7.874103   1.000000
   36       -7.770073   1.000000
   37       -7.692081   1.000000
   38       -7.518381   1.000000
   39       -7.501428   1.000000
   40       -7.430540   1.000000
   41       -7.313346   1.000000
   42       -7.209912   1.000000
   43       -7.134720   1.000000
   44       -6.898786   1.000000
   45       -6.812310   1.000000
   46       -6.807605   1.000000
   47       -6.684170   1.000000
   48       -6.641044   1.000000
   49       -6.541771   1.000000
   50       -6.535857   1.000000
   51       -6.484267   1.000000
   52       -6.426995   1.000000
   53       -6.322319   1.000000
   54       -6.223373   1.000000
   55       -6.174891   1.000000
   56       -6.066048   1.000000
   57       -6.037296   1.000000
   58       -5.861993   1.000000
   59       -5.823431   1.000000
   60       -5.573308   1.000000
   61       -5.505820   1.000000
   62       -5.459505   1.000000
   63       -5.254803   1.000000
   64       -5.115216   1.000000
   65       -5.057213   1.000000
   66       -4.996583   1.000000
   67       -4.958120   1.000000
   68       -4.824594   1.000000
   69       -4.790477   1.000000
   70       -4.691290   1.000000
   71       -4.589033   1.000000
   72       -4.567809   1.000000
   73       -4.538470   1.000000
   74       -4.371107   1.000000
   75       -4.156681   1.000000
   76       -4.020821   1.000000
   77       -3.761668   0.998899
   78       -3.629890   0.983400
   79       -3.538742   0.931247
   80       -3.359478   0.586111
   81       -3.265802   0.328218
   82       -2.846168   0.000322
   83       -2.759890   0.000029
   84       -2.546500   0.000000
   85       -2.480748   0.000000
   86       -2.362339   0.000000
   87       -2.313893   0.000000
   88       -2.200103   0.000000
   89       -2.139043   0.000000
   90       -2.033021   0.000000
   91       -1.775166   0.000000
   92       -1.529760   0.000000
   93       -1.495689   0.000000
   94       -1.368501   0.000000
   95       -1.260657   0.000000
   96       -1.012726   0.000000
   97       -0.967676   0.000000
   98       -0.845831   0.000000
   99       -0.823468   0.000000
  100       -0.638700   0.000000
  101       -0.515390   0.000000
  102       -0.468584   0.000000
  103       -0.465596   0.000000
  104       -0.311198   0.000000
  105       -0.282392   0.000000
  106       -0.161797   0.000000
  107       -0.078324   0.000000
  108       -0.044054   0.000000
  109        0.075935   0.000000
  110        0.184069   0.000000
  111        0.376804   0.000000
  112        0.489498   0.000000
  113        0.680962   0.000000
  114        0.819918   0.000000
  115        0.836032   0.000000
  116        1.092533   0.000000
  117        1.301843   0.000000
  118        1.644385   0.000000
  119        1.834880   0.000000
  120        2.150063   0.000000
 
  0.1250000E+00  0.2775558E-16  0.0000000E+00  0.3125000E-01
    1      -17.779683   1.000000
    2      -16.798753   1.000000
    3      -16.711809   1.000000
    4      -16.636462   1.000000
    5      -16.555655   1.000000
    6      -16.430617   1.000000
    7      -16.371419   1.000000
    8      -16.302159   1.000000
    9      -16.149896   1.000000
   10      -16.092186   1.000000
   11      -16.044892   1.000000
   12      -15.935594   1.000000
   13      -15.880839   1.000000
   14      -15.684308   1.000000
   15      -15.598218   1.000000
   16      -15.544369   1.000000
   17      -15.327456   1.000000
   18      -15.259054   1.000000
   19       -9.285066   1.000000
   20       -9.168190   1.000000
   21       -9.018577   1.000000
   22       -8.912385   1.000000
   23       -8.810248   1.000000
   24       -8.746288   1.000000
   25       -8.676128   1.000000
   26       -8.570295   1.000000
   27       -8.458364   1.000000
   28       -8.393930   1.000000
   29       -8.371454   1.000000
   30       -8.300467   1.000000
   31       -8.191622   1.000000
   32       -8.128171   1.000000
   33       -8.105753   1.000000
   34       -7.953737   1.000000
   35       -7.831781   1.000000
   36       -7.713645   1.000000
   37       -7.636618   1.000000
   38       -7.578438   1.000000
   39       -7.516796   1.000000
   40       -7.449468   1.000000
   41       -7.290895   1.000000
   42       -7.235699   1.000000
   43       -7.124553   1.000000
   44       -6.953148   1.000000
   45       -6.863814   1.000000
   46       -6.761875   1.000000
   47       -6.676427   1.000000
   48       -6.613781   1.000000
   49       -6.565583   1.000000
   50       -6.528918   1.000000
   51       -6.454743   1.000000
   52       -6.413800   1.000000
   53       -6.325001   1.000000
   54       -6.254114   1.000000
   55       -6.192482   1.000000
   56       -6.082411   1.000000
   57       -5.976486   1.000000
   58       -5.877997   1.000000
   59       -5.785559   1.000000
   60       -5.578040   1.000000
   61       -5.539012   1.000000
   62       -5.461869   1.000000
   63       -5.368836   1.000000
   64       -5.273674   1.000000
   65       -5.037071   1.000000
   66       -4.971871   1.000000
   67       -4.935793   1.000000
   68       -4.885823   1.000000
   69       -4.719785   1.000000
   70       -4.646931   1.000000
   71       -4.609877   1.000000
   72       -4.546637   1.000000
   73       -4.461311   1.000000
   74       -4.325937   1.000000
   75       -4.129505   1.000000
   76       -4.080818   1.000000
   77       -3.799474   0.999564
   78       -3.695107   0.995212
   79       -3.591814   0.968587
   80       -3.314779   0.460761
   81       -3.235460   0.254824
   82       -2.812060   0.000129
   83       -2.725348   0.000010
   84       -2.540134   0.000000
   85       -2.472400   0.000000
   86       -2.352758   0.000000
   87       -2.294074   0.000000
   88       -2.165918   0.000000
   89       -2.143364   0.000000
   90       -2.008886   0.000000
   91       -1.784689   0.000000
   92       -1.549340   0.000000
   93       -1.479172   0.000000
   94       -1.364866   0.000000
   95       -1.255447   0.000000
   96       -1.027053   0.000000
   97       -0.963384   0.000000
   98       -0.883242   0.000000
   99       -0.844331   0.000000
  100       -0.694571   0.000000
  101       -0.592581   0.000000
  102       -0.511176   0.000000
  103       -0.461264   0.000000
  104       -0.444399   0.000000
  105       -0.334449   0.000000
  106       -0.190479   0.000000
  107       -0.117435   0.000000
  108        0.046499   0.000000
  109        0.098484   0.000000
  110        0.190974   0.000000
  111        0.357662   0.000000
  112        0.566921   0.000000
  113        0.665004   0.000000
  114        0.825198   0.000000
  115        0.896172   0.000000
  116        1.110402   0.000000
  117        1.262370   0.000000
  118        1.686175   0.000000
  119        1.876041   0.000000
  120        2.184804   0.000000
 
  0.2500000E+00  0.5551115E-16  0.0000000E+00  0.3125000E-01
    1      -17.706318   1.000000
    2      -16.997512   1.000000
    3      -16.736733   1.000000
    4      -16.680212   1.000000
    5      -16.589174   1.000000
    6      -16.415354   1.000000
    7      -16.309975   1.000000
    8      -16.243908   1.000000
    9      -16.144200   1.000000
   10      -16.084848   1.000000
   11      -15.979779   1.000000
   12      -15.906872   1.000000
   13      -15.787516   1.000000
   14      -15.707450   1.000000
   15      -15.619629   1.000000
   16      -15.559572   1.000000
   17      -15.341463   1.000000
   18      -15.266415   1.000000
   19       -9.493825   1.000000
   20       -9.256772   1.000000
   21       -9.129894   1.000000
   22       -8.999892   1.000000
   23       -8.912938   1.000000
   24       -8.805702   1.000000
   25       -8.634754   1.000000
   26       -8.517752   1.000000
   27       -8.440560   1.000000
   28       -8.359528   1.000000
   29       -8.312319   1.000000
   30       -8.215036   1.000000
   31       -8.136162   1.000000
   32       -8.073116   1.000000
   33       -7.968135   1.000000
   34       -7.833654   1.000000
   35       -7.757309   1.000000
   36       -7.670752   1.000000
   37       -7.595346   1.000000
   38       -7.514994   1.000000
   39       -7.498556   1.000000
   40       -7.375378   1.000000
   41       -7.342852   1.000000
   42       -7.202245   1.000000
   43       -7.113330   1.000000
   44       -7.010402   1.000000
   45       -6.847899   1.000000
   46       -6.771706   1.000000
   47       -6.655359   1.000000
   48       -6.636216   1.000000
   49       -6.583213   1.000000
   50       -6.546214   1.000000
   51       -6.404862   1.000000
   52       -6.374056   1.000000
   53       -6.352190   1.000000
   54       -6.226913   1.000000
   55       -6.133852   1.000000
   56       -6.084543   1.000000
   57       -5.956108   1.000000
   58       -5.890296   1.000000
   59       -5.751533   1.000000
   60       -5.686973   1.000000
   61       -5.660344   1.000000
   62       -5.569157   1.000000
   63       -5.496401   1.000000
   64       -5.416649   1.000000
   65       -5.190962   1.000000
   66       -4.921976   1.000000
   67       -4.864506   1.000000
   68       -4.805426   1.000000
   69       -4.677152   1.000000
   70       -4.640561   1.000000
   71       -4.577790   1.000000
   72       -4.492580   1.000000
   73       -4.383782   1.000000
   74       -4.285642   1.000000
   75       -4.218987   1.000000
   76       -4.064840   1.000000
   77       -3.876070   0.999946
   78       -3.802488   0.999596
   79       -3.606265   0.975154
   80       -3.306765   0.438337
   81       -3.164655   0.123013
   82       -2.754342   0.000024
   83       -2.635640   0.000000
   84       -2.511352   0.000000
   85       -2.457431   0.000000
   86       -2.339204   0.000000
   87       -2.239450   0.000000
   88       -2.147435   0.000000
   89       -2.070575   0.000000
   90       -1.946251   0.000000
   91       -1.791992   0.000000
   92       -1.578424   0.000000
   93       -1.467831   0.000000
   94       -1.365395   0.000000
   95       -1.257383   0.000000
   96       -1.104916   0.000000
   97       -0.984440   0.000000
   98       -0.945717   0.000000
   99       -0.911042   0.000000
  100       -0.812975   0.000000
  101       -0.682399   0.000000
  102       -0.601066   0.000000
  103       -0.559504   0.000000
  104       -0.510640   0.000000
  105       -0.478549   0.000000
  106       -0.250698   0.000000
  107       -0.201905   0.000000
  108        0.060914   0.000000
  109        0.129451   0.000000
  110        0.233788   0.000000
  111        0.379123   0.000000
  112        0.540200   0.000000
  113        0.718827   0.000000
  114        0.878442   0.000000
  115        0.996415   0.000000
  116        1.143983   0.000000
  117        1.243051   0.000000
  118        1.804887   0.000000
  119        1.991991   0.000000
  120        2.287860   0.000000
 
  0.3750000E+00  0.0000000E+00  0.0000000E+00  0.3125000E-01
    1      -17.589648   1.000000
    2      -17.208296   1.000000
    3      -16.767756   1.000000
    4      -16.699109   1.000000
    5      -16.601595   1.000000
    6      -16.425974   1.000000
    7      -16.284400   1.000000
    8      -16.192892   1.000000
    9      -16.112228   1.000000
   10      -16.060562   1.000000
   11      -15.930280   1.000000
   12      -15.875018   1.000000
   13      -15.788822   1.000000
   14      -15.701029   1.000000
   15      -15.626873   1.000000
   16      -15.546921   1.000000
   17      -15.363248   1.000000
   18      -15.275278   1.000000
   19       -9.701268   1.000000
   20       -9.326196   1.000000
   21       -9.192460   1.000000
   22       -9.043441   1.000000
   23       -8.930624   1.000000
   24       -8.846037   1.000000
   25       -8.538045   1.000000
   26       -8.487487   1.000000
   27       -8.423580   1.000000
   28       -8.374379   1.000000
   29       -8.280247   1.000000
   30       -8.206912   1.000000
   31       -8.137673   1.000000
   32       -8.025207   1.000000
   33       -7.981530   1.000000
   34       -7.770152   1.000000
   35       -7.755436   1.000000
   36       -7.684219   1.000000
   37       -7.559495   1.000000
   38       -7.458943   1.000000
   39       -7.381956   1.000000
   40       -7.268844   1.000000
   41       -7.238605   1.000000
   42       -7.169752   1.000000
   43       -7.072317   1.000000
   44       -6.963734   1.000000
   45       -6.844148   1.000000
   46       -6.786897   1.000000
   47       -6.671494   1.000000
   48       -6.636223   1.000000
   49       -6.587204   1.000000
   50       -6.474460   1.000000
   51       -6.400334   1.000000
   52       -6.348751   1.000000
   53       -6.312614   1.000000
   54       -6.155484   1.000000
   55       -6.122519   1.000000
   56       -6.072365   1.000000
   57       -5.990740   1.000000
   58       -5.928979   1.000000
   59       -5.889100   1.000000
   60       -5.828110   1.000000
   61       -5.738614   1.000000
   62       -5.639079   1.000000
   63       -5.604833   1.000000
   64       -5.485788   1.000000
   65       -5.208106   1.000000
   66       -4.904096   1.000000
   67       -4.852623   1.000000
   68       -4.777108   1.000000
   69       -4.745964   1.000000
   70       -4.649029   1.000000
   71       -4.590790   1.000000
   72       -4.467972   1.000000
   73       -4.361896   1.000000
   74       -4.279111   1.000000
   75       -4.149681   1.000000
   76       -4.075701   1.000000
   77       -3.931238   0.999990
   78       -3.794796   0.999509
   79       -3.600218   0.972561
   80       -3.317037   0.467103
   81       -3.121305   0.071244
   82       -2.719319   0.000008
   83       -2.563806   0.000000
   84       -2.468084   0.000000
   85       -2.424403   0.000000
   86       -2.325908   0.000000
   87       -2.198524   0.000000
   88       -2.117887   0.000000
   89       -1.958286   0.000000
   90       -1.886345   0.000000
   91       -1.771141   0.000000
   92       -1.598722   0.000000
   93       -1.489026   0.000000
   94       -1.386998   0.000000
   95       -1.301203   0.000000
   96       -1.210307   0.000000
   97       -1.045165   0.000000
   98       -1.032924   0.000000
   99       -0.924839   0.000000
  100       -0.878343   0.000000
  101       -0.754242   0.000000
  102       -0.691475   0.000000
  103       -0.652714   0.000000
  104       -0.587650   0.000000
  105       -0.511373   0.000000
  106       -0.333294   0.000000
  107       -0.248781   0.000000
  108        0.015820   0.000000
  109        0.139470   0.000000
  110        0.232599   0.000000
  111        0.371647   0.000000
  112        0.508262   0.000000
  113        0.779392   0.000000
  114        0.903730   0.000000
  115        1.072983   0.000000
  116        1.175410   0.000000
  117        1.316147   0.000000
  118        1.984150   0.000000
  119        2.167663   0.000000
  120        2.444423   0.000000
 
  0.5000000E+00  0.1110223E-15  0.0000000E+00  0.1562500E-01
    1      -17.478339   1.000000
    2      -17.353028   1.000000
    3      -16.780291   1.000000
    4      -16.706264   1.000000
    5      -16.601869   1.000000
    6      -16.433422   1.000000
    7      -16.278820   1.000000
    8      -16.185095   1.000000
    9      -16.072230   1.000000
   10      -16.056072   1.000000
   11      -15.893654   1.000000
   12      -15.864845   1.000000
   13      -15.821826   1.000000
   14      -15.722338   1.000000
   15      -15.605696   1.000000
   16      -15.527968   1.000000
   17      -15.377384   1.000000
   18      -15.279457   1.000000
   19       -9.775779   1.000000
   20       -9.360793   1.000000
   21       -9.218846   1.000000
   22       -9.065735   1.000000
   23       -8.889991   1.000000
   24       -8.861539   1.000000
   25       -8.503578   1.000000
   26       -8.474838   1.000000
   27       -8.445980   1.000000
   28       -8.382717   1.000000
   29       -8.274790   1.000000
   30       -8.175325   1.000000
   31       -8.094933   1.000000
   32       -8.026181   1.000000
   33       -8.018359   1.000000
   34       -7.821693   1.000000
   35       -7.805190   1.000000
   36       -7.692969   1.000000
   37       -7.476833   1.000000
   38       -7.428359   1.000000
   39       -7.346372   1.000000
   40       -7.232915   1.000000
   41       -7.202395   1.000000
   42       -7.067708   1.000000
   43       -7.040880   1.000000
   44       -6.983362   1.000000
   45       -6.883116   1.000000
   46       -6.694063   1.000000
   47       -6.686791   1.000000
   48       -6.603919   1.000000
   49       -6.572206   1.000000
   50       -6.461301   1.000000
   51       -6.408375   1.000000
   52       -6.323246   1.000000
   53       -6.284121   1.000000
   54       -6.233850   1.000000
   55       -6.164493   1.000000
   56       -6.107301   1.000000
   57       -6.033659   1.000000
   58       -5.925109   1.000000
   59       -5.895848   1.000000
   60       -5.833660   1.000000
   61       -5.713731   1.000000
   62       -5.646984   1.000000
   63       -5.607559   1.000000
   64       -5.549729   1.000000
   65       -5.179502   1.000000
   66       -5.138393   1.000000
   67       -4.845829   1.000000
   68       -4.760670   1.000000
   69       -4.725045   1.000000
   70       -4.637378   1.000000
   71       -4.573814   1.000000
   72       -4.458601   1.000000
   73       -4.332680   1.000000
   74       -4.263534   1.000000
   75       -4.167669   1.000000
   76       -4.088430   1.000000
   77       -3.906449   0.999978
   78       -3.784242   0.999361
   79       -3.590433   0.967890
   80       -3.327165   0.495639
   81       -3.107899   0.059217
   82       -2.710028   0.000006
   83       -2.541690   0.000000
   84       -2.452306   0.000000
   85       -2.400460   0.000000
   86       -2.314254   0.000000
   87       -2.190827   0.000000
   88       -2.090341   0.000000
   89       -1.897329   0.000000
   90       -1.869536   0.000000
   91       -1.755092   0.000000
   92       -1.595617   0.000000
   93       -1.523975   0.000000
   94       -1.406666   0.000000
   95       -1.329408   0.000000
   96       -1.244589   0.000000
   97       -1.086313   0.000000
   98       -1.063514   0.000000
   99       -0.936610   0.000000
  100       -0.896145   0.000000
  101       -0.784477   0.000000
  102       -0.718191   0.000000
  103       -0.698541   0.000000
  104       -0.597556   0.000000
  105       -0.517974   0.000000
  106       -0.366948   0.000000
  107       -0.275189   0.000000
  108       -0.004621   0.000000
  109        0.143866   0.000000
  110        0.226692   0.000000
  111        0.346198   0.000000
  112        0.506766   0.000000
  113        0.803099   0.000000
  114        0.905020   0.000000
  115        1.097737   0.000000
  116        1.201853   0.000000
  117        1.353319   0.000000
  118        2.185969   0.000000
  119        2.236943   0.000000
  120        2.374793   0.000000
 
  0.0000000E+00  0.1250000E+00  0.0000000E+00  0.3125000E-01
    1      -17.779224   1.000000
    2      -16.812043   1.000000
    3      -16.707573   1.000000
    4      -16.594034   1.000000
    5      -16.564376   1.000000
    6      -16.451622   1.000000
    7      -16.403467   1.000000
    8      -16.271498   1.000000
    9      -16.173910   1.000000
   10      -16.088137   1.000000
   11      -16.023097   1.000000
   12      -15.950344   1.000000
   13      -15.880151   1.000000
   14      -15.669579   1.000000
   15      -15.601884   1.000000
   16      -15.534778   1.000000
   17      -15.334839   1.000000
   18      -15.262383   1.000000
   19       -9.259010   1.000000
   20       -9.158138   1.000000
   21       -9.017308   1.000000
   22       -8.972291   1.000000
   23       -8.823452   1.000000
   24       -8.705634   1.000000
   25       -8.634629   1.000000
   26       -8.576263   1.000000
   27       -8.493147   1.000000
   28       -8.420875   1.000000
   29       -8.380666   1.000000
   30       -8.320105   1.000000
   31       -8.251508   1.000000
   32       -8.106509   1.000000
   33       -8.043043   1.000000
   34       -7.901614   1.000000
   35       -7.870963   1.000000
   36       -7.726902   1.000000
   37       -7.663857   1.000000
   38       -7.559301   1.000000
   39       -7.450269   1.000000
   40       -7.407691   1.000000
   41       -7.316320   1.000000
   42       -7.256916   1.000000
   43       -7.141090   1.000000
   44       -6.911525   1.000000
   45       -6.880111   1.000000
   46       -6.846703   1.000000
   47       -6.706026   1.000000
   48       -6.649041   1.000000
   49       -6.559664   1.000000
   50       -6.494484   1.000000
   51       -6.470467   1.000000
   52       -6.369576   1.000000
   53       -6.294639   1.000000
   54       -6.235183   1.000000
   55       -6.168310   1.000000
   56       -6.060604   1.000000
   57       -6.000827   1.000000
   58       -5.884698   1.000000
   59       -5.779614   1.000000
   60       -5.583522   1.000000
   61       -5.542661   1.000000
   62       -5.450918   1.000000
   63       -5.382403   1.000000
   64       -5.145654   1.000000
   65       -5.105694   1.000000
   66       -5.020638   1.000000
   67       -4.956253   1.000000
   68       -4.854686   1.000000
   69       -4.749412   1.000000
   70       -4.700350   1.000000
   71       -4.658574   1.000000
   72       -4.510943   1.000000
   73       -4.426485   1.000000
   74       -4.344786   1.000000
   75       -4.119493   1.000000
   76       -4.005929   0.999999
   77       -3.786635   0.999398
   78       -3.702474   0.995890
   79       -3.580004   0.962208
   80       -3.462534   0.827993
   81       -3.100847   0.053563
   82       -2.845913   0.000320
   83       -2.740219   0.000016
   84       -2.554230   0.000000
   85       -2.464106   0.000000
   86       -2.351376   0.000000
   87       -2.300488   0.000000
   88       -2.174863   0.000000
   89       -2.133429   0.000000
   90       -2.020386   0.000000
   91       -1.800043   0.000000
   92       -1.542076   0.000000
   93       -1.478254   0.000000
   94       -1.342951   0.000000
   95       -1.259083   0.000000
   96       -1.013327   0.000000
   97       -0.978826   0.000000
   98       -0.864475   0.000000
   99       -0.811595   0.000000
  100       -0.687118   0.000000
  101       -0.654050   0.000000
  102       -0.538821   0.000000
  103       -0.483177   0.000000
  104       -0.356056   0.000000
  105       -0.312183   0.000000
  106       -0.186324   0.000000
  107       -0.136607   0.000000
  108        0.025929   0.000000
  109        0.115703   0.000000
  110        0.175767   0.000000
  111        0.404013   0.000000
  112        0.462758   0.000000
  113        0.669424   0.000000
  114        0.807386   0.000000
  115        0.879629   0.000000
  116        1.125473   0.000000
  117        1.326819   0.000000
  118        1.687991   0.000000
  119        1.873828   0.000000
  120        2.185252   0.000000
 
  0.1250000E+00  0.1250000E+00  0.0000000E+00  0.3125000E-01
    1      -17.729549   1.000000
    2      -16.931269   1.000000
    3      -16.785040   1.000000
    4      -16.646732   1.000000
    5      -16.521683   1.000000
    6      -16.442585   1.000000
    7      -16.346907   1.000000
    8      -16.238191   1.000000
    9      -16.186464   1.000000
   10      -16.049939   1.000000
   11      -15.997620   1.000000
   12      -15.944499   1.000000
   13      -15.809579   1.000000
   14      -15.679412   1.000000
   15      -15.613723   1.000000
   16      -15.549474   1.000000
   17      -15.345492   1.000000
   18      -15.266121   1.000000
   19       -9.358346   1.000000
   20       -9.290432   1.000000
   21       -9.168685   1.000000
   22       -8.990182   1.000000
   23       -8.828998   1.000000
   24       -8.767199   1.000000
   25       -8.664784   1.000000
   26       -8.535374   1.000000
   27       -8.428784   1.000000
   28       -8.356795   1.000000
   29       -8.327706   1.000000
   30       -8.216496   1.000000
   31       -8.155203   1.000000
   32       -8.127963   1.000000
   33       -8.040279   1.000000
   34       -7.896013   1.000000
   35       -7.737347   1.000000
   36       -7.714552   1.000000
   37       -7.604748   1.000000
   38       -7.507533   1.000000
   39       -7.436010   1.000000
   40       -7.401528   1.000000
   41       -7.326693   1.000000
   42       -7.250835   1.000000
   43       -7.111384   1.000000
   44       -6.996120   1.000000
   45       -6.863717   1.000000
   46       -6.830075   1.000000
   47       -6.708598   1.000000
   48       -6.644538   1.000000
   49       -6.592364   1.000000
   50       -6.480145   1.000000
   51       -6.412646   1.000000
   52       -6.349123   1.000000
   53       -6.305267   1.000000
   54       -6.238038   1.000000
   55       -6.133867   1.000000
   56       -6.071515   1.000000
   57       -5.935300   1.000000
   58       -5.926564   1.000000
   59       -5.762676   1.000000
   60       -5.676482   1.000000
   61       -5.618322   1.000000
   62       -5.541998   1.000000
   63       -5.434802   1.000000
   64       -5.267560   1.000000
   65       -5.137281   1.000000
   66       -5.041581   1.000000
   67       -4.903460   1.000000
   68       -4.842443   1.000000
   69       -4.736772   1.000000
   70       -4.664151   1.000000
   71       -4.588017   1.000000
   72       -4.443963   1.000000
   73       -4.392970   1.000000
   74       -4.307582   1.000000
   75       -4.171134   1.000000
   76       -4.087533   1.000000
   77       -3.837062   0.999838
   78       -3.780854   0.999306
   79       -3.594647   0.969977
   80       -3.399648   0.692025
   81       -3.077023   0.037562
   82       -2.798995   0.000090
   83       -2.680159   0.000002
   84       -2.527664   0.000000
   85       -2.457963   0.000000
   86       -2.326087   0.000000
   87       -2.260333   0.000000
   88       -2.147544   0.000000
   89       -2.104864   0.000000
   90       -1.983127   0.000000
   91       -1.815405   0.000000
   92       -1.575956   0.000000
   93       -1.456146   0.000000
   94       -1.332010   0.000000
   95       -1.255354   0.000000
   96       -1.064810   0.000000
   97       -0.971181   0.000000
   98       -0.906526   0.000000
   99       -0.876997   0.000000
  100       -0.778975   0.000000
  101       -0.681194   0.000000
  102       -0.637087   0.000000
  103       -0.561627   0.000000
  104       -0.433349   0.000000
  105       -0.377758   0.000000
  106       -0.228305   0.000000
  107       -0.183048   0.000000
  108        0.026551   0.000000
  109        0.097766   0.000000
  110        0.251764   0.000000
  111        0.409699   0.000000
  112        0.508635   0.000000
  113        0.649298   0.000000
  114        0.824380   0.000000
  115        0.931896   0.000000
  116        1.165624   0.000000
  117        1.320690   0.000000
  118        1.767030   0.000000
  119        1.953116   0.000000
  120        2.254166   0.000000
 
  0.2500000E+00  0.1250000E+00  0.0000000E+00  0.3125000E-01
    1      -17.633349   1.000000
    2      -17.108859   1.000000
    3      -16.879074   1.000000
    4      -16.651956   1.000000
    5      -16.520114   1.000000
    6      -16.420897   1.000000
    7      -16.287923   1.000000
    8      -16.223586   1.000000
    9      -16.158016   1.000000
   10      -16.037664   1.000000
   11      -15.963691   1.000000
   12      -15.901849   1.000000
   13      -15.779306   1.000000
   14      -15.675188   1.000000
   15      -15.640397   1.000000
   16      -15.540506   1.000000
   17      -15.364075   1.000000
   18      -15.270770   1.000000
   19       -9.598454   1.000000
   20       -9.394189   1.000000
   21       -9.226938   1.000000
   22       -9.025692   1.000000
   23       -8.836749   1.000000
   24       -8.786021   1.000000
   25       -8.575312   1.000000
   26       -8.498517   1.000000
   27       -8.418464   1.000000
   28       -8.315377   1.000000
   29       -8.279219   1.000000
   30       -8.219494   1.000000
   31       -8.148015   1.000000
   32       -8.088022   1.000000
   33       -8.013932   1.000000
   34       -7.843824   1.000000
   35       -7.805507   1.000000
   36       -7.656973   1.000000
   37       -7.546846   1.000000
   38       -7.500718   1.000000
   39       -7.353099   1.000000
   40       -7.308757   1.000000
   41       -7.235756   1.000000
   42       -7.188038   1.000000
   43       -7.111942   1.000000
   44       -6.957601   1.000000
   45       -6.847621   1.000000
   46       -6.818095   1.000000
   47       -6.716372   1.000000