       N       E                     dE             d eps       ncg     rms          rms(c)
DAV:   1     0.112607845020E+04    0.11261E+04   -0.35983E+04  8160   0.577E+02
DAV:   2     0.202929646997E+01   -0.11240E+04   -0.10787E+04 10880   0.173E+02
DAV:   3    -0.199423984413E+03   -0.20145E+03   -0.19281E+03 10920   0.826E+01
DAV:   4    -0.208946581699E+03   -0.95226E+01   -0.92010E+01 11920   0.264E+01
DAV:   5    -0.209321674599E+03   -0.37509E+00   -0.37404E+00 11760   0.386E+00    0.275E+01
DAV:   6    -0.237942834619E+03   -0.28621E+02   -0.10709E+02 12520   0.601E+01    0.595E+01
DAV:   7    -0.196567725866E+03    0.41375E+02   -0.17574E+02 13560   0.153E+02    0.200E+01
DAV:   8    -0.189490055836E+03    0.70777E+01   -0.17924E+01 11960   0.127E+01    0.125E+01
DAV:   9    -0.188167922560E+03    0.13221E+01   -0.31317E+00 13480   0.624E+00    0.925E+00
DAV:  10    -0.186957930312E+03    0.12100E+01   -0.17567E+00 13320   0.771E+00    0.217E+00
DAV:  11    -0.187062346898E+03   -0.10442E+00   -0.59227E-01 13560   0.305E+00    0.389E+00
DAV:  12    -0.187004715220E+03    0.57632E-01   -0.83080E-01 12680   0.459E+00    0.369E+00
DAV:  13    -0.186887175577E+03    0.11754E+00   -0.30345E-01 13240   0.297E+00    0.186E+00
DAV:  14    -0.186850279122E+03    0.36896E-01   -0.10708E-01 13240   0.175E+00    0.901E-01
DAV:  15    -0.186848143666E+03    0.21355E-02   -0.28818E-02 12720   0.901E-01    0.817E-01
DAV:  16    -0.186842449756E+03    0.56939E-02   -0.11081E-02 13280   0.533E-01    0.273E-01
DAV:  17    -0.186841248874E+03    0.12009E-02   -0.44577E-03 12840   0.285E-01    0.182E-01
DAV:  18    -0.186841018009E+03    0.23086E-03   -0.18517E-03 11720   0.147E-01    0.130E-01
DAV:  19    -0.186840819770E+03    0.19824E-03   -0.81645E-04 11000   0.892E-02    0.584E-02
DAV:  20    -0.186841570270E+03   -0.75050E-03   -0.68418E-04  9040   0.739E-02    0.551E-02
DAV:  21    -0.186842408698E+03   -0.83843E-03   -0.24206E-04  8160   0.495E-02    0.321E-02
DAV:  22    -0.186843353405E+03   -0.94471E-03   -0.15716E-04  7560   0.382E-02    0.311E-02
DAV:  23    -0.186844505940E+03   -0.11525E-02   -0.10597E-04  7560   0.365E-02    0.131E-02
DAV:  24    -0.186845058253E+03   -0.55231E-03   -0.23909E-05  6760   0.153E-02    0.477E-03
DAV:  25    -0.186845453549E+03   -0.39530E-03   -0.16106E-05  5480   0.959E-03    0.320E-03
DAV:  26    -0.186845695336E+03   -0.24179E-03   -0.93062E-06  6840   0.702E-03    0.166E-03
DAV:  27    -0.186845783877E+03   -0.88541E-04   -0.32914E-06  7360   0.405E-03
   1 F= -.18684578E+03 E0= -.18667481E+03  d E =-.186846E+03
       N       E                     dE             d eps       ncg     rms          rms(c)
DAV:   1    -0.187499876812E+03   -0.65418E+00   -0.27222E+02  8160   0.350E+01    0.460E+00
DAV:   2    -0.189346021763E+03   -0.18461E+01   -0.19880E+01 12240   0.150E+01    0.856E+00
DAV:   3    -0.189359869086E+03   -0.13847E-01   -0.39308E+00 12440   0.120E+01    0.659E+00
DAV:   4    -0.188757104631E+03    0.60276E+00   -0.64181E-01 12520   0.476E+00    0.198E+00
DAV:   5    -0.188848443075E+03   -0.91338E-01   -0.41409E-01 11800   0.339E+00    0.484E+00
DAV:   6    -0.188755979900E+03    0.92463E-01   -0.73376E-01 12560   0.436E+00    0.270E+00
DAV:   7    -0.188676230219E+03    0.79750E-01   -0.21307E-01 12480   0.162E+00    0.101E+00
DAV:   8    -0.188661793779E+03    0.14436E-01   -0.50095E-02 11440   0.737E-01    0.659E-01
DAV:   9    -0.188657216889E+03    0.45769E-02   -0.12280E-02 12760   0.444E-01    0.441E-01
DAV:  10    -0.188657194507E+03    0.22381E-04   -0.57470E-03 11920   0.414E-01    0.412E-01
DAV:  11    -0.188655861080E+03    0.13334E-02   -0.36959E-03 12920   0.305E-01    0.128E-01
DAV:  12    -0.188655862900E+03   -0.18195E-05   -0.96797E-04 11760   0.990E-02
   2 F= -.18865586E+03 E0= -.18851712E+03  d E =-.181008E+01
       N       E                     dE             d eps       ncg     rms          rms(c)
DAV:   1    -0.190582356412E+03   -0.19265E+01   -0.31125E+01  9200   0.142E+01    0.445E+00
DAV:   2    -0.190528467770E+03    0.53889E-01   -0.27746E+00 11520   0.945E+00    0.718E+00
DAV:   3    -0.190064447318E+03    0.46402E+00   -0.12911E+00 12320   0.862E+00    0.425E+00
DAV:   4    -0.189852637314E+03    0.21181E+00   -0.68010E-01 13000   0.432E+00    0.253E+00
DAV:   5    -0.189822020193E+03    0.30617E-01   -0.36780E-01 12240   0.307E+00    0.281E+00
DAV:   6    -0.189751375770E+03    0.70644E-01   -0.15827E-01 12680   0.250E+00    0.752E-01
DAV:   7    -0.189745528195E+03    0.58476E-02   -0.15742E-02 11600   0.608E-01    0.384E-01
DAV:   8    -0.189745460612E+03    0.67583E-04   -0.58631E-03 12640   0.467E-01    0.346E-01
DAV:   9    -0.189744584819E+03    0.87579E-03   -0.21733E-03 11400   0.252E-01    0.121E-01
DAV:  10    -0.189745016626E+03   -0.43181E-03   -0.99507E-04 10680   0.106E-01    0.138E-01
DAV:  11    -0.189744708624E+03    0.30800E-03   -0.55722E-04  9560   0.843E-02    0.194E-02
DAV:  12    -0.189744731074E+03   -0.22450E-04   -0.64624E-05  7120   0.249E-02
   3 F= -.18974473E+03 E0= -.18962846E+03  d E =-.108887E+01
       N       E                     dE             d eps       ncg     rms          rms(c)
DAV:   1    -0.191299801004E+03   -0.15551E+01   -0.74223E+01  8160   0.196E+01    0.456E+00
DAV:   2    -0.191106028455E+03    0.19377E+00   -0.52549E+00 13440   0.750E+00    0.438E+00
DAV:   3    -0.191306318750E+03   -0.20029E+00   -0.14857E+00 12200   0.903E+00    0.733E+00
DAV:   4    -0.190898783189E+03    0.40754E+00   -0.16779E+00 11920   0.851E+00    0.352E+00
DAV:   5    -0.190903793862E+03   -0.50107E-02   -0.69537E-01 10960   0.545E+00    0.355E+00
DAV:   6    -0.190729019455E+03    0.17477E+00   -0.20363E-01 11400   0.313E+00    0.610E-01
DAV:   7    -0.190731721975E+03   -0.27025E-02   -0.34583E-02 12400   0.889E-01    0.737E-01
DAV:   8    -0.190728341807E+03    0.33802E-02   -0.17633E-02 11680   0.903E-01    0.534E-01
DAV:   9    -0.190725332296E+03    0.30095E-02   -0.46758E-03 11360   0.444E-01    0.150E-01
DAV:  10    -0.190725651345E+03   -0.31905E-03   -0.14574E-03 10080   0.138E-01    0.105E-01
DAV:  11    -0.190725499870E+03    0.15147E-03   -0.58571E-04  9880   0.909E-02    0.439E-02
DAV:  12    -0.190725498338E+03    0.15329E-05   -0.10340E-04  7120   0.359E-02
   4 F= -.19072550E+03 E0= -.19062790E+03  d E =-.980767E+00
       N       E                     dE             d eps       ncg     rms          rms(c)
DAV:   1    -0.192199862543E+03   -0.14744E+01   -0.17532E+02  8160   0.295E+01    0.587E+00
DAV:   2    -0.191896920824E+03    0.30294E+00   -0.98632E+00 10960   0.810E+00    0.404E+00
DAV:   3    -0.192373385608E+03   -0.47646E+00   -0.28128E+00 12200   0.109E+01    0.867E+00
DAV:   4    -0.191688124968E+03    0.68526E+00   -0.23513E+00 11560   0.110E+01    0.351E+00
DAV:   5    -0.191633696313E+03    0.54429E-01   -0.58680E-01 12200   0.565E+00    0.442E+00
DAV:   6    -0.191476130583E+03    0.15757E+00   -0.63444E-01 12320   0.524E+00    0.164E+00
DAV:   7    -0.191464909957E+03    0.11221E-01   -0.10146E-01 12480   0.188E+00    0.121E+00
DAV:   8    -0.191448725279E+03    0.16185E-01   -0.33590E-02 12240   0.139E+00    0.473E-01
DAV:   9    -0.191445920538E+03    0.28047E-02   -0.74304E-03 11360   0.493E-01    0.199E-01
DAV:  10    -0.191446055739E+03   -0.13520E-03   -0.28581E-03 11560   0.214E-01    0.104E-01
DAV:  11    -0.191445973272E+03    0.82467E-04   -0.61046E-04 10560   0.934E-02
   5 F= -.19144597E+03 E0= -.19135290E+03  d E =-.720475E+00
       N       E                     dE             d eps       ncg     rms          rms(c)
DAV:   1    -0.191519179248E+03   -0.73124E-01   -0.60997E+00  8160   0.520E+00    0.735E-01
DAV:   2    -0.191593020518E+03   -0.73841E-01   -0.31211E-01 13120   0.342E+00    0.241E+00
DAV:   3    -0.191528048213E+03    0.64972E-01   -0.11313E-01 12600   0.257E+00    0.334E-01
DAV:   4    -0.191530616306E+03   -0.25681E-02   -0.12124E-02 11520   0.738E-01    0.679E-01
DAV:   5    -0.191526400187E+03    0.42161E-02   -0.95802E-03 10800   0.702E-01    0.238E-01
DAV:   6    -0.191526708513E+03   -0.30833E-03   -0.37308E-03 11400   0.328E-01    0.275E-01
DAV:   7    -0.191526348984E+03    0.35953E-03   -0.34491E-03 11360   0.399E-01    0.232E-01
DAV:   8    -0.191525794933E+03    0.55405E-03   -0.10999E-03  9920   0.217E-01    0.414E-02
DAV:   9    -0.191525793416E+03    0.15170E-05   -0.10005E-04  6520   0.424E-02
   6 F= -.19152579E+03 E0= -.19143090E+03  d E =-.798201E-01
       N       E                     dE             d eps       ncg     rms          rms(c)
DAV:   1    -0.191626143384E+03   -0.10035E+00   -0.16463E+01  8160   0.846E+00    0.967E-01
DAV:   2    -0.191727158831E+03   -0.10102E+00   -0.46154E-01 13080   0.368E+00    0.278E+00
DAV:   3    -0.191641327802E+03    0.85831E-01   -0.18122E-01 12520   0.323E+00    0.641E-01
DAV:   4    -0.191648252943E+03   -0.69251E-02   -0.32565E-02 12000   0.123E+00    0.109E+00
DAV:   5    -0.191636792731E+03    0.11460E-01   -0.24058E-02 11800   0.109E+00    0.314E-01
DAV:   6    -0.191638282241E+03   -0.14895E-02   -0.79659E-03 11320   0.535E-01    0.480E-01
DAV:   7    -0.191636728965E+03    0.15533E-02   -0.77417E-03 11640   0.616E-01    0.289E-01
DAV:   8    -0.191635790137E+03    0.93883E-03   -0.19227E-03 10360   0.271E-01    0.553E-02
DAV:   9    -0.191635767200E+03    0.22937E-04   -0.22256E-04  7640   0.568E-02
   7 F= -.19163577E+03 E0= -.19154016E+03  d E =-.109974E+00
       N       E                     dE             d eps       ncg     rms          rms(c)
DAV:   1    -0.191665181916E+03   -0.29392E-01   -0.96481E-01  8160   0.216E+00    0.377E-01
DAV:   2    -0.191672473133E+03   -0.72912E-02   -0.49651E-02 12040   0.123E+00    0.863E-01
DAV:   3    -0.191664245250E+03    0.82279E-02   -0.17998E-02 11760   0.103E+00    0.220E-01
DAV:   4    -0.191664373711E+03   -0.12846E-03   -0.41786E-03 11880   0.393E-01    0.335E-01
DAV:   5    -0.191663592479E+03    0.78123E-03   -0.38005E-03 11080   0.443E-01    0.217E-01
DAV:   6    -0.191663113925E+03    0.47855E-03   -0.13676E-03 10360   0.221E-01    0.676E-02
DAV:   7    -0.191663105376E+03    0.85492E-05   -0.38572E-04  7880   0.111E-01
   8 F= -.19166311E+03 E0= -.19156703E+03  d E =-.273382E-01
       N       E                     dE             d eps       ncg     rms          rms(c)
DAV:   1    -0.191719443363E+03   -0.56329E-01   -0.59853E+00  8160   0.514E+00    0.548E-01
DAV:   2    -0.191746925997E+03   -0.27483E-01   -0.17247E-01 12760   0.203E+00    0.134E+00
DAV:   3    -0.191727153092E+03    0.19773E-01   -0.47972E-02 12480   0.163E+00    0.396E-01
DAV:   4    -0.191728384246E+03   -0.12312E-02   -0.10019E-02 12400   0.672E-01    0.556E-01
DAV:   5    -0.191725428753E+03    0.29555E-02   -0.68477E-03 10680   0.622E-01    0.220E-01
DAV:   6    -0.191725341497E+03    0.87256E-04   -0.23969E-03 11200   0.256E-01    0.145E-01
DAV:   7    -0.191725068855E+03    0.27264E-03   -0.11797E-03 10720   0.181E-01    0.121E-01
DAV:   8    -0.191724951170E+03    0.11768E-03   -0.44990E-04  8920   0.139E-01    0.545E-02
DAV:   9    -0.191724928037E+03    0.23133E-04   -0.72477E-05  5960   0.519E-02
   9 F= -.19172493E+03 E0= -.19162930E+03  d E =-.618227E-01
       N       E                     dE             d eps       ncg     rms          rms(c)
DAV:   1    -0.191750852218E+03   -0.25901E-01   -0.96054E-01  8160   0.212E+00    0.307E-01
DAV:   2    -0.191756656004E+03   -0.58038E-02   -0.40965E-02 13000   0.104E+00    0.706E-01
DAV:   3    -0.191751322997E+03    0.53330E-02   -0.12682E-02 11640   0.842E-01    0.208E-01
DAV:   4    -0.191751955473E+03   -0.63248E-03   -0.40611E-03 11680   0.421E-01    0.369E-01
DAV:   5    -0.191750688005E+03    0.12675E-02   -0.30863E-03 10960   0.401E-01    0.133E-01
DAV:   6    -0.191750593685E+03    0.94320E-04   -0.90959E-04  9880   0.163E-01
  10 F= -.19175059E+03 E0= -.19165505E+03  d E =-.256656E-01
       N       E                     dE             d eps       ncg     rms          rms(c)
DAV:   1    -0.191808928038E+03   -0.58240E-01   -0.67321E+00  8160   0.552E+00    0.605E-01
DAV:   2    -0.191837545326E+03   -0.28617E-01   -0.21905E-01 12440   0.206E+00    0.142E+00
DAV:   3    -0.191820238641E+03    0.17307E-01   -0.62215E-02 12400   0.167E+00    0.584E-01
DAV:   4    -0.191821763759E+03   -0.15251E-02   -0.18951E-02 12200   0.952E-01    0.715E-01
DAV:   5    -0.191816006996E+03    0.57568E-02   -0.97697E-03 11400   0.766E-01    0.197E-01
DAV:   6    -0.191816182814E+03   -0.17582E-03   -0.34634E-03 10920   0.265E-01    0.166E-01
DAV:   7    -0.191815742436E+03    0.44038E-03   -0.14708E-03 10800   0.212E-01    0.132E-01
DAV:   8    -0.191815597861E+03    0.14457E-03   -0.44432E-04  8680   0.150E-01    0.522E-02
DAV:   9    -0.191815568998E+03    0.28864E-04   -0.71499E-05  6040   0.486E-02
  11 F= -.19181557E+03 E0= -.19172086E+03  d E =-.649753E-01
       N       E                     dE             d eps       ncg     rms          rms(c)
DAV:   1    -0.191841689808E+03   -0.26092E-01   -0.10157E+00  8160   0.219E+00    0.303E-01
DAV:   2    -0.191846641765E+03   -0.49520E-02   -0.42293E-02 12200   0.897E-01    0.682E-01
DAV:   3    -0.191842980146E+03    0.36616E-02   -0.14635E-02 11760   0.802E-01    0.315E-01
DAV:   4    -0.191842638801E+03    0.34134E-03   -0.40435E-03 11480   0.433E-01    0.279E-01
DAV:   5    -0.191841873942E+03    0.76486E-03   -0.22515E-03 10560   0.380E-01    0.151E-01
DAV:   6    -0.191841666119E+03    0.20782E-03   -0.10867E-03  9800   0.193E-01    0.783E-02
DAV:   7    -0.191841635908E+03    0.30211E-04   -0.40038E-04  8400   0.126E-01
  12 F= -.19184164E+03 E0= -.19174711E+03  d E =-.260669E-01
       N       E                     dE             d eps       ncg     rms          rms(c)
DAV:   1    -0.191893832267E+03   -0.52166E-01   -0.52754E+00  8160   0.491E+00    0.537E-01
DAV:   2    -0.191915142860E+03   -0.21311E-01   -0.17423E-01 11600   0.163E+00    0.125E+00
DAV:   3    -0.191903958972E+03    0.11184E-01   -0.50223E-02 12520   0.145E+00    0.567E-01
DAV:   4    -0.191900966973E+03    0.29920E-02   -0.82982E-03 12000   0.517E-01    0.265E-01
DAV:   5    -0.191900206674E+03    0.76030E-03   -0.33788E-03 11720   0.375E-01    0.225E-01
DAV:   6    -0.191900524689E+03   -0.31801E-03   -0.34441E-03 12520   0.457E-01    0.256E-01
DAV:   7    -0.191899720692E+03    0.80400E-03   -0.15527E-03 10080   0.275E-01    0.110E-01
DAV:   8    -0.191899631635E+03    0.89057E-04   -0.32865E-04  8640   0.132E-01
  13 F= -.19189963E+03 E0= -.19180615E+03  d E =-.579957E-01
       N       E                     dE             d eps       ncg     rms          rms(c)
DAV:   1    -0.191916989466E+03   -0.17269E-01   -0.46339E-01  8160   0.148E+00    0.204E-01
DAV:   2    -0.191919734906E+03   -0.27454E-02   -0.20364E-02 11200   0.609E-01    0.500E-01
DAV:   3    -0.191917739577E+03    0.19953E-02   -0.71777E-03 11760   0.568E-01    0.202E-01
DAV:   4    -0.191917313657E+03    0.42592E-03   -0.11308E-03 10040   0.180E-01    0.788E-02
DAV:   5    -0.191917236856E+03    0.76801E-04   -0.41827E-04  9560   0.872E-02
  14 F= -.19191724E+03 E0= -.19182406E+03  d E =-.176052E-01
       N       E                     dE             d eps       ncg     rms          rms(c)
DAV:   1    -0.191973102557E+03   -0.55789E-01   -0.60847E+00  8160   0.531E+00    0.657E-01
DAV:   2    -0.192010507710E+03   -0.37405E-01   -0.23271E-01 11200   0.213E+00    0.182E+00
DAV:   3    -0.191983226868E+03    0.27281E-01   -0.81719E-02 12400   0.192E+00    0.571E-01
DAV:   4    -0.191981432015E+03    0.17949E-02   -0.12540E-02 11440   0.676E-01    0.488E-01
DAV:   5    -0.191979226560E+03    0.22055E-02   -0.84594E-03 12560   0.704E-01    0.324E-01
DAV:   6    -0.191979338454E+03   -0.11189E-03   -0.52287E-03 11640   0.508E-01    0.330E-01
DAV:   7    -0.191978650457E+03    0.68800E-03   -0.34290E-03 10920   0.457E-01    0.218E-01
DAV:   8    -0.191978026897E+03    0.62356E-03   -0.94454E-04 10000   0.223E-01    0.368E-02
DAV:   9    -0.191978019389E+03    0.75085E-05   -0.92223E-05  6720   0.391E-02
  15 F= -.19197802E+03 E0= -.19188600E+03  d E =-.607825E-01
       N       E                     dE             d eps       ncg     rms          rms(c)
DAV:   1    -0.192048524418E+03   -0.70498E-01   -0.22591E+01  8160   0.102E+01    0.122E+00
DAV:   2    -0.192191221570E+03   -0.14270E+00   -0.86947E-01 11200   0.410E+00    0.337E+00
DAV:   3    -0.192096326614E+03    0.94895E-01   -0.29063E-01 12240   0.371E+00    0.114E+00
DAV:   4    -0.192091258137E+03    0.50685E-02   -0.50360E-02 12160   0.164E+00    0.104E+00
DAV:   5    -0.192078187877E+03    0.13070E-01   -0.29682E-02 12400   0.140E+00    0.421E-01
DAV:   6    -0.192077756675E+03    0.43120E-03   -0.10740E-02 11840   0.584E-01    0.367E-01
DAV:   7    -0.192077998826E+03   -0.24215E-03   -0.82378E-03 12000   0.677E-01    0.480E-01
DAV:   8    -0.192075571715E+03    0.24271E-02   -0.35890E-03 11520   0.476E-01    0.720E-02
DAV:   9    -0.192075524602E+03    0.47113E-04   -0.32643E-04  8880   0.739E-02
  16 F= -.19207552E+03 E0= -.19198561E+03  d E =-.975052E-01
       N       E                     dE             d eps       ncg     rms          rms(c)
DAV:   1    -0.192100736168E+03   -0.25164E-01   -0.30005E+00  8160   0.373E+00    0.499E-01
DAV:   2    -0.192121531183E+03   -0.20795E-01   -0.14095E-01 11240   0.159E+00    0.129E+00
DAV:   3    -0.192107970646E+03    0.13561E-01   -0.42322E-02 12240   0.148E+00    0.474E-01
DAV:   4    -0.192105751180E+03    0.22195E-02   -0.63775E-03 11040   0.463E-01    0.269E-01
DAV:   5    -0.192105130657E+03    0.62052E-03   -0.35627E-03 12800   0.456E-01    0.214E-01
DAV:   6    -0.192104880664E+03    0.24999E-03   -0.21340E-03 11880   0.333E-01    0.149E-01
DAV:   7    -0.192104720610E+03    0.16005E-03   -0.11760E-03 10800   0.226E-01    0.133E-01
DAV:   8    -0.192104553285E+03    0.16732E-03   -0.38520E-04  8920   0.161E-01    0.501E-02
DAV:   9    -0.192104522613E+03    0.30671E-04   -0.54174E-05  6480   0.493E-02
  17 F= -.19210452E+03 E0= -.19201531E+03  d E =-.289980E-01
       N       E                     dE             d eps       ncg     rms          rms(c)
DAV:   1    -0.192128540230E+03   -0.23987E-01   -0.59458E+00  8160   0.518E+00    0.626E-01
DAV:   2    -0.192166421014E+03   -0.37881E-01   -0.23043E-01 11000   0.219E+00    0.160E+00
DAV:   3    -0.192141413939E+03    0.25007E-01   -0.63500E-02 12240   0.194E+00    0.587E-01
DAV:   4    -0.192140726611E+03    0.68733E-03   -0.12951E-02 11720   0.866E-01    0.551E-01
DAV:   5    -0.192137218399E+03    0.35082E-02   -0.71583E-03 12480   0.689E-01    0.198E-01
DAV:   6    -0.192137122419E+03    0.95981E-04   -0.25778E-03 11880   0.241E-01    0.136E-01
DAV:   7    -0.192136823213E+03    0.29921E-03   -0.11540E-03 10440   0.156E-01    0.878E-02
DAV:   8    -0.192136772170E+03    0.51043E-04   -0.29437E-04  9440   0.133E-01
  18 F= -.19213677E+03 E0= -.19204887E+03  d E =-.322496E-01
       N       E                     dE             d eps       ncg     rms          rms(c)
DAV:   1    -0.192146407699E+03   -0.95845E-02   -0.55490E-01  8160   0.161E+00    0.190E-01
DAV:   2    -0.192148098764E+03   -0.16911E-02   -0.18713E-02 11280   0.469E-01    0.288E-01
DAV:   3    -0.192147812273E+03    0.28649E-03   -0.36802E-03 12280   0.481E-01    0.250E-01
DAV:   4    -0.192147247563E+03    0.56471E-03   -0.10066E-03  9880   0.253E-01    0.111E-01
DAV:   5    -0.192147197096E+03    0.50467E-04   -0.55282E-04  8840   0.195E-01
  19 F= -.19214720E+03 E0= -.19206023E+03  d E =-.104249E-01
       N       E                     dE             d eps       ncg     rms          rms(c)
DAV:   1    -0.192153601278E+03   -0.63537E-02   -0.23171E-01  8160   0.104E+00    0.140E-01
DAV:   2    -0.192155158647E+03   -0.15574E-02   -0.85259E-03 11280   0.436E-01    0.344E-01
DAV:   3    -0.192153922294E+03    0.12364E-02   -0.25402E-03 12160   0.412E-01    0.113E-01
DAV:   4    -0.192153940030E+03   -0.17736E-04   -0.43704E-04  8600   0.172E-01
  20 F= -.19215394E+03 E0= -.19206670E+03  d E =-.674293E-02
       N       E                     dE             d eps       ncg     rms          rms(c)
DAV:   1    -0.192163045571E+03   -0.91233E-02   -0.45432E-01  8160   0.146E+00    0.183E-01
DAV:   2    -0.192164098349E+03   -0.10528E-02   -0.13081E-02 11560   0.431E-01    0.254E-01
DAV:   3    -0.192163897786E+03    0.20056E-03   -0.27762E-03 12240   0.430E-01    0.228E-01
DAV:   4    -0.192163509653E+03    0.38813E-03   -0.98150E-04  9920   0.259E-01    0.134E-01
DAV:   5    -0.192163384242E+03    0.12541E-03   -0.61599E-04  9200   0.212E-01    0.912E-02
DAV:   6    -0.192163356779E+03    0.27463E-04   -0.35254E-04  9320   0.128E-01
  21 F= -.19216336E+03 E0= -.19207664E+03  d E =-.941675E-02
       N       E                     dE             d eps       ncg     rms          rms(c)
DAV:   1    -0.192179465052E+03   -0.16081E-01   -0.14601E+00  8160   0.261E+00    0.311E-01
DAV:   2    -0.192184171540E+03   -0.47065E-02   -0.45377E-02 11200   0.811E-01    0.504E-01
DAV:   3    -0.192182075983E+03    0.20956E-02   -0.92967E-03 12040   0.784E-01    0.320E-01
DAV:   4    -0.192181716757E+03    0.35923E-03   -0.25577E-03 11480   0.435E-01    0.282E-01
DAV:   5    -0.192180915719E+03    0.80104E-03   -0.16962E-03 10160   0.365E-01    0.112E-01
DAV:   6    -0.192180912497E+03    0.32230E-05   -0.62251E-04 10440   0.138E-01
  22 F= -.19218091E+03 E0= -.19209444E+03  d E =-.175557E-01
       N       E                     dE             d eps       ncg     rms          rms(c)
DAV:   1    -0.192180881256E+03    0.34463E-04   -0.32873E-04  9960   0.142E-01    0.823E-02
DAV:   2    -0.192182592608E+03   -0.17114E-02   -0.27419E-03 11160   0.461E-01    0.402E-01
DAV:   3    -0.192180784381E+03    0.18082E-02   -0.19133E-03 10160   0.384E-01    0.212E-02
DAV:   4    -0.192180808480E+03   -0.24099E-04   -0.30117E-05  6000   0.330E-02
  23 F= -.19218081E+03 E0= -.19209453E+03  d E =0.104017E-03
       N       E                     dE             d eps       ncg     rms          rms(c)
DAV:   1    -0.192181705458E+03   -0.92108E-03   -0.58424E-02  8160   0.519E-01    0.760E-02
DAV:   2    -0.192182418833E+03   -0.71338E-03   -0.27635E-03 12440   0.309E-01    0.247E-01
DAV:   3    -0.192181768595E+03    0.65024E-03   -0.99586E-04  9720   0.265E-01    0.579E-02
DAV:   4    -0.192181748107E+03    0.20487E-04   -0.10504E-04  6120   0.693E-02
  24 F= -.19218175E+03 E0= -.19209549E+03  d E =-.939627E-03
       N       E                     dE             d eps       ncg     rms          rms(c)
DAV:   1    -0.192193377115E+03   -0.11609E-01   -0.67555E-01  8160   0.177E+00    0.221E-01
DAV:   2    -0.192195903146E+03   -0.25260E-02   -0.22114E-02 10840   0.619E-01    0.404E-01
DAV:   3    -0.192194528765E+03    0.13744E-02   -0.50399E-03 12640   0.568E-01    0.218E-01
DAV:   4    -0.192194287471E+03    0.24129E-03   -0.12861E-03  9800   0.289E-01    0.169E-01
DAV:   5    -0.192193989252E+03    0.29822E-03   -0.72710E-04  9920   0.247E-01    0.813E-02
DAV:   6    -0.192193993014E+03   -0.37617E-05   -0.27657E-04  8840   0.113E-01
  25 F= -.19219399E+03 E0= -.19210785E+03  d E =-.122449E-01
       N       E                     dE             d eps       ncg     rms          rms(c)
DAV:   1    -0.192192745119E+03    0.12441E-02   -0.66606E-03  8400   0.200E-01    0.480E-02
DAV:   2    -0.192193257712E+03   -0.51259E-03   -0.93722E-04 11200   0.248E-01    0.217E-01
DAV:   3    -0.192192726382E+03    0.53133E-03   -0.53549E-04  8840   0.212E-01    0.175E-02
DAV:   4    -0.192192733963E+03   -0.75812E-05   -0.24441E-05  5880   0.207E-02
  26 F= -.19219273E+03 E0= -.19210653E+03  d E =0.125905E-02
       N       E                     dE             d eps       ncg     rms          rms(c)
DAV:   1    -0.192188615390E+03    0.41110E-02   -0.15038E-01  8160   0.833E-01    0.142E-01
DAV:   2    -0.192191425358E+03   -0.28100E-02   -0.97574E-03 11720   0.632E-01    0.499E-01
DAV:   3    -0.192188762400E+03    0.26630E-02   -0.35098E-03 11400   0.513E-01    0.812E-02
DAV:   4    -0.192188757761E+03    0.46387E-05   -0.34238E-04  8760   0.141E-01
  27 F= -.19218876E+03 E0= -.19210276E+03  d E =0.397620E-02
       N       E                     dE             d eps       ncg     rms          rms(c)
DAV:   1    -0.192173225443E+03    0.15537E-01   -0.13195E+00  8160   0.248E+00    0.397E-01
DAV:   2    -0.192189406150E+03   -0.16181E-01   -0.66106E-02 12360   0.149E+00    0.122E+00
DAV:   3    -0.192174310269E+03    0.15096E-01   -0.24141E-02 12280   0.132E+00    0.265E-01
DAV:   4    -0.192173633257E+03    0.67701E-03   -0.28467E-03 11120   0.284E-01    0.169E-01
DAV:   5    -0.192173040998E+03    0.59226E-03   -0.15834E-03 10680   0.157E-01    0.814E-02
DAV:   6    -0.192173205366E+03   -0.16437E-03   -0.71268E-04 11480   0.190E-01    0.153E-01
DAV:   7    -0.192172965696E+03    0.23967E-03   -0.44928E-04  8760   0.179E-01    0.467E-02
DAV:   8    -0.192172949630E+03    0.16066E-04   -0.60236E-05  5960   0.529E-02
  28 F= -.19217295E+03 E0= -.19208712E+03  d E =0.158081E-01
       N       E                     dE             d eps       ncg     rms          rms(c)
DAV:   1    -0.192202584516E+03   -0.29619E-01   -0.46959E+00  8160   0.467E+00    0.664E-01
DAV:   2    -0.192247205818E+03   -0.44621E-01   -0.21080E-01 12040   0.251E+00    0.184E+00
DAV:   3    -0.192208779876E+03    0.38426E-01   -0.57237E-02 12000   0.206E+00    0.451E-01
DAV:   4    -0.192208367667E+03    0.41221E-03   -0.89734E-03 11320   0.738E-01    0.463E-01
DAV:   5    -0.192205977712E+03    0.23900E-02   -0.67051E-03 12640   0.679E-01    0.257E-01
DAV:   6    -0.192205883301E+03    0.94411E-04   -0.34368E-03 11960   0.402E-01    0.248E-01
DAV:   7    -0.192205678592E+03    0.20471E-03   -0.22428E-03 11520   0.398E-01    0.223E-01
DAV:   8    -0.192205069873E+03    0.60872E-03   -0.84143E-04  9600   0.227E-01    0.315E-02
DAV:   9    -0.192205069993E+03   -0.11983E-06   -0.72402E-05  6480   0.344E-02
  29 F= -.19220507E+03 E0= -.19211864E+03  d E =-.321204E-01
       N       E                     dE             d eps       ncg     rms          rms(c)
DAV:   1    -0.192211527315E+03   -0.64574E-02   -0.20412E-01  8160   0.971E-01    0.120E-01
DAV:   2    -0.192212270609E+03   -0.74329E-03   -0.63447E-03 10600   0.348E-01    0.219E-01
DAV:   3    -0.192211783556E+03    0.48705E-03   -0.16333E-03 11520   0.312E-01    0.105E-01
DAV:   4    -0.192211804820E+03   -0.21265E-04   -0.39834E-04  8520   0.166E-01
  30 F= -.19221180E+03 E0= -.19212511E+03  d E =-.673483E-02
       N       E                     dE             d eps       ncg     rms          rms(c)
DAV:   1    -0.192192692979E+03    0.19091E-01   -0.14807E+00  8160   0.262E+00    0.316E-01
DAV:   2    -0.192198380053E+03   -0.56871E-02   -0.45774E-02 11320   0.913E-01    0.573E-01
DAV:   3    -0.192194663479E+03    0.37166E-02   -0.10258E-02 12240   0.857E-01    0.236E-01
DAV:   4    -0.192194267474E+03    0.39600E-03   -0.17305E-03 10760   0.307E-01    0.198E-01
DAV:   5    -0.192194039695E+03    0.22778E-03   -0.14307E-03 10400   0.307E-01    0.152E-01
DAV:   6    -0.192193894041E+03    0.14565E-03   -0.66135E-04  9480   0.178E-01    0.709E-02
DAV:   7    -0.192193799151E+03    0.94889E-04   -0.21314E-04  7440   0.764E-02
  31 F= -.19219380E+03 E0= -.19210779E+03  d E =0.180057E-01
       N       E                     dE             d eps       ncg     rms          rms(c)
DAV:   1    -0.192101030598E+03    0.92863E-01   -0.29335E+01  8160   0.117E+01    0.145E+00
DAV:   2    -0.192221182251E+03   -0.12015E+00   -0.95449E-01 11720   0.455E+00    0.278E+00
DAV:   3    -0.192144597414E+03    0.76585E-01   -0.26207E-01 12280   0.406E+00    0.119E+00
DAV:   4    -0.192145869010E+03   -0.12716E-02   -0.62820E-02 11520   0.178E+00    0.148E+00
DAV:   5    -0.192126347707E+03    0.19521E-01   -0.52342E-02 12240   0.176E+00    0.626E-01
DAV:   6    -0.192123894736E+03    0.24530E-02   -0.14389E-02 12600   0.670E-01    0.325E-01
DAV:   7    -0.192122615720E+03    0.12790E-02   -0.62070E-03 11800   0.504E-01    0.324E-01
DAV:   8    -0.192121584498E+03    0.10312E-02   -0.21156E-03 11440   0.370E-01    0.900E-02
DAV:   9    -0.192121500865E+03    0.83634E-04   -0.28946E-04  8240   0.885E-02
  32 F= -.19212150E+03 E0= -.19203407E+03  d E =0.722983E-01
       N       E                     dE             d eps       ncg     rms          rms(c)
DAV:   1    -0.192169299602E+03   -0.47715E-01   -0.26914E+01  8160   0.113E+01    0.136E+00
DAV:   2    -0.192284753838E+03   -0.11545E+00   -0.85270E-01 11520   0.392E+00    0.276E+00
DAV:   3    -0.192216307796E+03    0.68446E-01   -0.20720E-01 12240   0.374E+00    0.135E+00
DAV:   4    -0.192209850066E+03    0.64577E-02   -0.50138E-02 11240   0.185E+00    0.120E+00
DAV:   5    -0.192193289365E+03    0.16561E-01   -0.36943E-02 12200   0.164E+00    0.466E-01
DAV:   6    -0.192192015470E+03    0.12739E-02   -0.11115E-02 12720   0.566E-01    0.260E-01
DAV:   7    -0.192190489852E+03    0.15256E-02   -0.35428E-03 10800   0.282E-01    0.139E-01
DAV:   8    -0.192190462192E+03    0.27660E-04   -0.94397E-04 10840   0.238E-01
  33 F= -.19219046E+03 E0= -.19210463E+03  d E =-.689613E-01
       N       E                     dE             d eps       ncg     rms          rms(c)
DAV:   1    -0.192163401645E+03    0.27088E-01   -0.35854E+00  8160   0.408E+00    0.490E-01
DAV:   2    -0.192172770279E+03   -0.93686E-02   -0.96740E-02 11200   0.125E+00    0.771E-01
DAV:   3    -0.192167907784E+03    0.48625E-02   -0.24710E-02 12240   0.124E+00    0.495E-01
DAV:   4    -0.192166969431E+03    0.93835E-03   -0.75691E-03 12200   0.678E-01    0.441E-01
DAV:   5    -0.192164986562E+03    0.19829E-02   -0.46028E-03 10320   0.592E-01    0.210E-01
DAV:   6    -0.192164776961E+03    0.20960E-03   -0.17368E-03 11440   0.265E-01    0.140E-01
DAV:   7    -0.192164695744E+03    0.81217E-04   -0.87307E-04 11560   0.236E-01
  34 F= -.19216470E+03 E0= -.19207962E+03  d E =0.257664E-01
       N       E                     dE             d eps       ncg     rms          rms(c)
DAV:   1    -0.192169427285E+03   -0.46503E-02   -0.15364E-01  8160   0.865E-01    0.108E-01
DAV:   2    -0.192170062934E+03   -0.63565E-03   -0.48735E-03 11960   0.324E-01    0.222E-01
DAV:   3    -0.192169599016E+03    0.46392E-03   -0.12834E-03 10880   0.299E-01    0.107E-01
DAV:   4    -0.192169502997E+03    0.96020E-04   -0.28408E-04  8200   0.130E-01
  35 F= -.19216950E+03 E0= -.19208386E+03  d E =-.480725E-02
       N       E                     dE             d eps       ncg     rms          rms(c)
DAV:   1    -0.192174362350E+03   -0.47633E-02   -0.15125E-01  8160   0.844E-01    0.121E-01
DAV:   2    -0.192175634254E+03   -0.12719E-02   -0.55235E-03 12480   0.416E-01    0.342E-01
DAV:   3    -0.192174456377E+03    0.11779E-02   -0.19740E-03 11440   0.376E-01    0.867E-02
DAV:   4    -0.192174404291E+03    0.52086E-04   -0.24027E-04  8080   0.938E-02
  36 F= -.19217440E+03 E0= -.19208910E+03  d E =-.490129E-02
       N       E                     dE             d eps       ncg     rms          rms(c)
DAV:   1    -0.192176866798E+03   -0.24104E-02   -0.35149E-02  8160   0.431E-01    0.105E-01
DAV:   2    -0.192178292530E+03   -0.14257E-02   -0.34239E-03 11800   0.443E-01    0.371E-01
DAV:   3    -0.192176747948E+03    0.15446E-02   -0.18959E-03 10160   0.382E-01    0.628E-02
DAV:   4    -0.192176792583E+03   -0.44634E-04   -0.23245E-04  8400   0.125E-01
  37 F= -.19217679E+03 E0= -.19209141E+03  d E =-.238829E-02
       N       E                     dE             d eps       ncg     rms          rms(c)
DAV:   1    -0.192187046715E+03   -0.10299E-01   -0.56518E-01  8160   0.162E+00    0.201E-01
DAV:   2    -0.192188063071E+03   -0.10164E-02   -0.15651E-02 11160   0.412E-01    0.225E-01
DAV:   3    -0.192188023160E+03    0.39911E-04   -0.32354E-03 12360   0.450E-01    0.237E-01
DAV:   4    -0.192187519298E+03    0.50386E-03   -0.11878E-03 10280   0.281E-01    0.137E-01
DAV:   5    -0.192187448346E+03    0.70951E-04   -0.63517E-04  9400   0.237E-01
  38 F= -.19218745E+03 E0= -.19210246E+03  d E =-.106558E-01
       N       E                     dE             d eps       ncg     rms          rms(c)
DAV:   1    -0.192192539159E+03   -0.50199E-02   -0.13920E-01  8160   0.820E-01    0.116E-01
DAV:   2    -0.192193184163E+03   -0.64500E-03   -0.46230E-03 12200   0.324E-01    0.215E-01
DAV:   3    -0.192192644496E+03    0.53967E-03   -0.13750E-03 11360   0.302E-01    0.887E-02
DAV:   4    -0.192192669111E+03   -0.24615E-04   -0.35898E-04  8920   0.140E-01
  39 F= -.19219267E+03 E0= -.19210744E+03  d E =-.522076E-02
       N       E                     dE             d eps       ncg     rms          rms(c)
DAV:   1    -0.192189122680E+03    0.35218E-02   -0.57765E-02  8160   0.539E-01    0.837E-02
DAV:   2    -0.192190263092E+03   -0.11404E-02   -0.33189E-03 12000   0.386E-01    0.307E-01
DAV:   3    -0.192189187637E+03    0.10755E-02   -0.14275E-03 10120   0.332E-01    0.560E-02
DAV:   4    -0.192189189643E+03   -0.20062E-05   -0.14960E-04  7240   0.927E-02
  40 F= -.19218919E+03 E0= -.19210412E+03  d E =0.347947E-02
       N       E                     dE             d eps       ncg     rms          rms(c)
DAV:   1    -0.192192240547E+03   -0.30529E-02   -0.99121E-02  8160   0.706E-01    0.149E-01
DAV:   2    -0.192192628800E+03   -0.38825E-03   -0.59522E-03 10840   0.395E-01    0.263E-01
DAV:   3    -0.192192052600E+03    0.57620E-03   -0.22602E-03 11440   0.379E-01    0.147E-01
DAV:   4    -0.192191903502E+03    0.14910E-03   -0.74688E-04  8560   0.216E-01    0.119E-01
DAV:   5    -0.192191811713E+03    0.91789E-04   -0.47807E-04  8720   0.191E-01
  41 F= -.19219181E+03 E0= -.19210709E+03  d E =-.262207E-02
       N       E                     dE             d eps       ncg     rms          rms(c)
DAV:   1    -0.192175014236E+03    0.16889E-01   -0.17004E+00  8160   0.285E+00    0.451E-01
DAV:   2    -0.192185255875E+03   -0.10242E-01   -0.60893E-02 12480   0.130E+00    0.103E+00
DAV:   3    -0.192175128536E+03    0.10127E-01   -0.23411E-02 11520   0.130E+00    0.387E-01
DAV:   4    -0.192175341957E+03   -0.21342E-03   -0.70414E-03 11400   0.623E-01    0.438E-01
DAV:   5    -0.192172986600E+03    0.23554E-02   -0.43336E-03 11560   0.554E-01    0.136E-01
DAV:   6    -0.192172967704E+03    0.18897E-04   -0.11887E-03 10720   0.219E-01    0.143E-01
DAV:   7    -0.192172856139E+03    0.11156E-03   -0.72351E-04 11240   0.224E-01    0.104E-01
DAV:   8    -0.192172744285E+03    0.11185E-03   -0.18456E-04  7600   0.106E-01    0.241E-02
DAV:   9    -0.192172742774E+03    0.15105E-05   -0.35366E-05  6880   0.242E-02
  42 F= -.19217274E+03 E0= -.19208862E+03  d E =0.190689E-01
       N       E                     dE             d eps       ncg     rms          rms(c)
DAV:   1    -0.192209748958E+03   -0.37005E-01   -0.52102E+00  8160   0.501E+00    0.685E-01
DAV:   2    -0.192226435442E+03   -0.16686E-01   -0.15594E-01 11400   0.169E+00    0.115E+00
DAV:   3    -0.192213995893E+03    0.12440E-01   -0.38096E-02 12080   0.171E+00    0.677E-01
DAV:   4    -0.192212947927E+03    0.10480E-02   -0.16593E-02 12280   0.984E-01    0.667E-01
DAV:   5    -0.192208051670E+03    0.48963E-02   -0.10713E-02 12080   0.847E-01    0.231E-01
DAV:   6    -0.192207562079E+03    0.48959E-03   -0.25923E-03 11440   0.294E-01    0.127E-01
DAV:   7    -0.192207590477E+03   -0.28398E-04   -0.10789E-03 11360   0.255E-01    0.166E-01
DAV:   8    -0.192207297360E+03    0.29312E-03   -0.45355E-04  8960   0.188E-01    0.449E-02
DAV:   9    -0.192207274391E+03    0.22968E-04   -0.70732E-05  6120   0.448E-02
  43 F= -.19220727E+03 E0= -.19212182E+03  d E =-.345316E-01
       N       E                     dE             d eps       ncg     rms          rms(c)
DAV:   1    -0.192222147547E+03   -0.14850E-01   -0.11434E+00  8160   0.231E+00    0.281E-01
DAV:   2    -0.192225255732E+03   -0.31082E-02   -0.31603E-02 11320   0.678E-01    0.441E-01
DAV:   3    -0.192223517835E+03    0.17379E-02   -0.80799E-03 12480   0.696E-01    0.276E-01
DAV:   4    -0.192223281560E+03    0.23627E-03   -0.23303E-03 11720   0.386E-01    0.252E-01
DAV:   5    -0.192222652324E+03    0.62924E-03   -0.14029E-03 10280   0.344E-01    0.115E-01
DAV:   6    -0.192222573872E+03    0.78451E-04   -0.50229E-04 10200   0.132E-01
  44 F= -.19222257E+03 E0= -.19213619E+03  d E =-.152995E-01
       N       E                     dE             d eps       ncg     rms          rms(c)
DAV:   1    -0.192231837365E+03   -0.91850E-02   -0.45074E-01  8160   0.144E+00    0.187E-01
DAV:   2    -0.192233874551E+03   -0.20372E-02   -0.14884E-02 10960   0.549E-01    0.380E-01
DAV:   3    -0.192232397781E+03    0.14768E-02   -0.42032E-03 12320   0.507E-01    0.164E-01
DAV:   4    -0.192232428278E+03   -0.30497E-04   -0.96298E-04 10040   0.256E-01
  45 F= -.19223243E+03 E0= -.19214545E+03  d E =-.985441E-02
       N       E                     dE             d eps       ncg     rms          rms(c)
DAV:   1    -0.192224951921E+03    0.74459E-02   -0.27757E-01  8160   0.118E+00    0.150E-01
DAV:   2    -0.192226675918E+03   -0.17240E-02   -0.96811E-03 11920   0.508E-01    0.343E-01
DAV:   3    -0.192225189491E+03    0.14864E-02   -0.27766E-03 11360   0.464E-01    0.103E-01
DAV:   4    -0.192225255119E+03   -0.65628E-04   -0.53199E-04  8640   0.181E-01
  46 F= -.19222526E+03 E0= -.19213936E+03  d E =0.717316E-02
       N       E                     dE             d eps       ncg     rms          rms(c)
DAV:   1    -0.192230746663E+03   -0.55572E-02   -0.24443E-01  8160   0.108E+00    0.174E-01
DAV:   2    -0.192231707276E+03   -0.96061E-03   -0.11660E-02 11400   0.496E-01    0.300E-01
DAV:   3    -0.192230796825E+03    0.91045E-03   -0.31668E-03 11680   0.442E-01    0.147E-01
DAV:   4    -0.192230723300E+03    0.73525E-04   -0.96919E-04  9560   0.237E-01
  47 F= -.19223072E+03 E0= -.19214472E+03  d E =-.546818E-02
       N       E                     dE             d eps       ncg     rms          rms(c)
DAV:   1    -0.192236751552E+03   -0.59547E-02   -0.18518E-01  8160   0.964E-01    0.163E-01
DAV:   2    -0.192238399638E+03   -0.16481E-02   -0.76779E-03 11240   0.506E-01    0.415E-01
DAV:   3    -0.192236567515E+03    0.18321E-02   -0.32908E-03 11320   0.487E-01    0.121E-01
DAV:   4    -0.192236545936E+03    0.21579E-04   -0.62912E-04  9520   0.180E-01
  48 F= -.19223655E+03 E0= -.19214987E+03  d E =-.582264E-02
       N       E                     dE             d eps       ncg     rms          rms(c)
DAV:   1    -0.192251969369E+03   -0.15402E-01   -0.12144E+00  8160   0.244E+00    0.366E-01
DAV:   2    -0.192256636462E+03   -0.46671E-02   -0.45344E-02 11720   0.891E-01    0.656E-01
DAV:   3    -0.192252824199E+03    0.38123E-02   -0.17217E-02 12320   0.971E-01    0.394E-01
DAV:   4    -0.192251735310E+03    0.10889E-02   -0.38181E-03 11720   0.475E-01    0.255E-01
DAV:   5    -0.192251082340E+03    0.65297E-03   -0.22294E-03 11880   0.422E-01    0.172E-01
DAV:   6    -0.192250774140E+03    0.30820E-03   -0.10737E-03 10440   0.235E-01    0.779E-02
DAV:   7    -0.192250689751E+03    0.84389E-04   -0.36040E-04  9360   0.101E-01
  49 F= -.19225069E+03 E0= -.19216223E+03  d E =-.141438E-01
       N       E                     dE             d eps       ncg     rms          rms(c)
DAV:   1    -0.192255579460E+03   -0.48053E-02   -0.12454E-01  8160   0.773E-01    0.147E-01
DAV:   2    -0.192257031554E+03   -0.14521E-02   -0.71988E-03 10200   0.529E-01    0.370E-01
DAV:   3    -0.192255452900E+03    0.15787E-02   -0.27233E-03 11400   0.438E-01    0.994E-02
DAV:   4    -0.192255499519E+03   -0.46619E-04   -0.55337E-04  8400   0.194E-01
  50 F= -.19225550E+03 E0= -.19216694E+03  d E =-.480977E-02
       N       E                     dE             d eps       ncg     rms          rms(c)
DAV:   1    -0.192267526728E+03   -0.12074E-01   -0.10871E+00  8160   0.223E+00    0.293E-01
DAV:   2    -0.192271909139E+03   -0.43824E-02   -0.38021E-02 11520   0.885E-01    0.544E-01
DAV:   3    -0.192268774651E+03    0.31345E-02   -0.10942E-02 12360   0.768E-01    0.256E-01
DAV:   4    -0.192268724616E+03    0.50035E-04   -0.26395E-03 11440   0.402E-01    0.253E-01
DAV:   5    -0.192268149289E+03    0.57533E-03   -0.16163E-03  9960   0.367E-01    0.143E-01
DAV:   6    -0.192267947958E+03    0.20133E-03   -0.74311E-04 10760   0.174E-01    0.603E-02
DAV:   7    -0.192267896926E+03    0.51031E-04   -0.18624E-04  7240   0.668E-02
  51 F= -.19226790E+03 E0= -.19217861E+03  d E =-.123974E-01
       N       E                     dE             d eps       ncg     rms          rms(c)
DAV:   1    -0.192275838616E+03   -0.78907E-02   -0.50334E-01  8160   0.152E+00    0.193E-01
DAV:   2    -0.192277913964E+03   -0.20753E-02   -0.18630E-02 11160   0.544E-01    0.361E-01
DAV:   3    -0.192276784566E+03    0.11294E-02   -0.47886E-03 12520   0.525E-01    0.196E-01
DAV:   4    -0.192276439408E+03    0.34516E-03   -0.84917E-04 10000   0.214E-01    0.960E-02
DAV:   5    -0.192276373740E+03    0.65668E-04   -0.42378E-04  9800   0.168E-01
  52 F= -.19227637E+03 E0= -.19218660E+03  d E =-.847681E-02
       N       E                     dE             d eps       ncg     rms          rms(c)
DAV:   1    -0.192282578273E+03   -0.61389E-02   -0.33399E-01  8160   0.124E+00    0.176E-01
DAV:   2    -0.192284801082E+03   -0.22228E-02   -0.12538E-02 10760   0.597E-01    0.406E-01
DAV:   3    -0.192282852282E+03    0.19488E-02   -0.38035E-03 12080   0.512E-01    0.116E-01
DAV:   4    -0.192282994637E+03   -0.14236E-03   -0.77123E-04 10040   0.234E-01    0.161E-01
DAV:   5    -0.192282693164E+03    0.30147E-03   -0.45693E-04  8680   0.204E-01    0.507E-02
DAV:   6    -0.192282690832E+03    0.23320E-05   -0.13072E-04  6280   0.631E-02
  53 F= -.19228269E+03 E0= -.19219257E+03  d E =-.631709E-02
       N       E                     dE             d eps       ncg     rms          rms(c)
DAV:   1    -0.192290463647E+03   -0.77705E-02   -0.66293E-01  8160   0.173E+00    0.211E-01
DAV:   2    -0.192293024465E+03   -0.25608E-02   -0.23155E-02 11080   0.573E-01    0.379E-01
DAV:   3    -0.192291681624E+03    0.13428E-02   -0.63980E-03 12560   0.571E-01    0.213E-01
DAV:   4    -0.192291477621E+03    0.20400E-03   -0.12704E-03  9880   0.283E-01    0.164E-01
DAV:   5    -0.192291186037E+03    0.29158E-03   -0.62453E-04  9840   0.232E-01    0.792E-02
DAV:   6    -0.192291170591E+03    0.15446E-04   -0.32230E-04  8800   0.109E-01
  54 F= -.19229117E+03 E0= -.19220070E+03  d E =-.847976E-02
       N       E                     dE             d eps       ncg     rms          rms(c)
DAV:   1    -0.192300169344E+03   -0.89833E-02   -0.19019E+01  8160   0.931E+00    0.104E+00
DAV:   2    -0.192351991916E+03   -0.51823E-01   -0.58995E-01 11280   0.255E+00    0.139E+00
DAV:   3    -0.192337909145E+03    0.14083E-01   -0.11258E-01 12280   0.245E+00    0.105E+00
DAV:   4    -0.192329027421E+03    0.88817E-02   -0.33175E-02 12520   0.137E+00    0.734E-01
DAV:   5    -0.192324790998E+03    0.42364E-02   -0.17147E-02 11680   0.114E+00    0.484E-01
DAV:   6    -0.192323232126E+03    0.15589E-02   -0.93882E-03 12400   0.617E-01    0.253E-01
DAV:   7    -0.192321844374E+03    0.13878E-02   -0.29387E-03 10720   0.235E-01    0.616E-02
DAV:   8    -0.192321834538E+03    0.98361E-05   -0.38541E-04 10400   0.960E-02
  55 F= -.19232183E+03 E0= -.19223396E+03  d E =-.306639E-01
       N       E                     dE             d eps       ncg     rms          rms(c)
DAV:   1    -0.192323753852E+03   -0.19095E-02   -0.11090E-01  8160   0.713E-01    0.882E-02
DAV:   2    -0.192324253045E+03   -0.49919E-03   -0.44775E-03 12800   0.231E-01    0.155E-01
DAV:   3    -0.192324042765E+03    0.21028E-03   -0.91257E-04 10200   0.245E-01    0.962E-02
DAV:   4    -0.192323961119E+03    0.81646E-04   -0.19772E-04  7360   0.105E-01
  56 F= -.19232396E+03 E0= -.19223674E+03  d E =-.212658E-02
       N       E                     dE             d eps       ncg     rms          rms(c)
DAV:   1    -0.192325635704E+03   -0.15929E-02   -0.27563E-01  8160   0.114E+00    0.169E-01
DAV:   2    -0.192326995927E+03   -0.13602E-02   -0.96759E-03 12200   0.477E-01    0.340E-01
DAV:   3    -0.192325818121E+03    0.11778E-02   -0.29400E-03 12480   0.474E-01    0.146E-01
DAV:   4    -0.192325649019E+03    0.16910E-03   -0.62901E-04 10080   0.169E-01    0.954E-02
DAV:   5    -0.192325573410E+03    0.75609E-04   -0.42404E-04  9360   0.167E-01
  57 F= -.19232557E+03 E0= -.19223922E+03  d E =-.161229E-02
       N       E                     dE             d eps       ncg     rms          rms(c)
DAV:   1    -0.192328284165E+03   -0.26351E-02   -0.54354E-01  8160   0.157E+00    0.170E-01
DAV:   2    -0.192329410394E+03   -0.11262E-02   -0.16015E-02 12080   0.384E-01    0.168E-01
DAV:   3    -0.192329567415E+03   -0.15702E-03   -0.20640E-03 12480   0.387E-01    0.214E-01
DAV:   4    -0.192329034798E+03    0.53262E-03   -0.70225E-04 10080   0.247E-01    0.793E-02
DAV:   5    -0.192329077588E+03   -0.42791E-04   -0.40465E-04  9040   0.171E-01
  58 F= -.19232908E+03 E0= -.19224382E+03  d E =-.350418E-02
       N       E                     dE             d eps       ncg     rms          rms(c)
DAV:   1    -0.192330214892E+03   -0.11801E-02   -0.78926E-02  8160   0.606E-01    0.754E-02
DAV:   2    -0.192330427759E+03   -0.21287E-03   -0.26494E-03 13160   0.186E-01    0.975E-02
DAV:   3    -0.192330392252E+03    0.35507E-04   -0.42608E-04  9920   0.182E-01
  59 F= -.19233039E+03 E0= -.19224579E+03  d E =-.131466E-02
       N       E                     dE             d eps       ncg     rms          rms(c)
DAV:   1    -0.192332163164E+03   -0.17354E-02   -0.18978E-01  8160   0.932E-01    0.117E-01
DAV:   2    -0.192332564611E+03   -0.40145E-03   -0.57399E-03 12440   0.242E-01    0.118E-01
DAV:   3    -0.192332448069E+03    0.11654E-03   -0.10017E-03 11120   0.210E-01    0.104E-01
DAV:   4    -0.192332378814E+03    0.69255E-04   -0.33262E-04  9160   0.163E-01
  60 F= -.19233238E+03 E0= -.19224872E+03  d E =-.198656E-02
       N       E                     dE             d eps       ncg     rms          rms(c)
DAV:   1    -0.192333046052E+03   -0.59798E-03   -0.27871E-02  8240   0.365E-01    0.608E-02
DAV:   2    -0.192333220587E+03   -0.17454E-03   -0.10862E-03 12760   0.164E-01    0.122E-01
DAV:   3    -0.192333064567E+03    0.15602E-03   -0.32247E-04  8920   0.167E-01    0.504E-02
DAV:   4    -0.192333046895E+03    0.17672E-04   -0.47671E-05  6040   0.537E-02
  61 F= -.19233305E+03 E0= -.19224977E+03  d E =-.668082E-03
       N       E                     dE             d eps       ncg     rms          rms(c)
DAV:   1    -0.192334187425E+03   -0.11229E-02   -0.78406E-02  8160   0.598E-01    0.730E-02
DAV:   2    -0.192334471402E+03   -0.28398E-03   -0.25761E-03 12440   0.199E-01    0.124E-01
DAV:   3    -0.192334326500E+03    0.14490E-03   -0.50881E-04  9320   0.191E-01    0.701E-02
DAV:   4    -0.192334304463E+03    0.22038E-04   -0.14586E-04  6480   0.993E-02
  62 F= -.19233430E+03 E0= -.19225156E+03  d E =-.125757E-02
       N       E                     dE             d eps       ncg     rms          rms(c)
DAV:   1    -0.192335856895E+03   -0.15304E-02   -0.19297E-01  8160   0.938E-01    0.113E-01
DAV:   2    -0.192336286197E+03   -0.42930E-03   -0.58313E-03 12240   0.243E-01    0.121E-01
DAV:   3    -0.192336252367E+03    0.33830E-04   -0.92855E-04 11120   0.245E-01
  63 F= -.19233625E+03 E0= -.19225465E+03  d E =-.194790E-02
       N       E                     dE             d eps       ncg     rms          rms(c)
DAV:   1    -0.192335541737E+03    0.74446E-03   -0.17316E-02  8160   0.326E-01    0.688E-02
DAV:   2    -0.192336383026E+03   -0.84129E-03   -0.21070E-03 11720   0.332E-01    0.260E-01
DAV:   3    -0.192335547069E+03    0.83596E-03   -0.10604E-03 10120   0.289E-01    0.339E-02
DAV:   4    -0.192335547294E+03   -0.22489E-06   -0.60280E-05  6040   0.434E-02
  64 F= -.19233555E+03 E0= -.19225352E+03  d E =0.705073E-03
       N       E                     dE             d eps       ncg     rms          rms(c)
DAV:   1    -0.192336287273E+03   -0.74020E-03   -0.44024E-02  8160   0.448E-01    0.536E-02
DAV:   2    -0.192336486812E+03   -0.19954E-03   -0.17001E-03 12280   0.158E-01    0.100E-01
DAV:   3    -0.192336390985E+03    0.95827E-04   -0.36592E-04  8920   0.149E-01
  65 F= -.19233639E+03 E0= -.19225489E+03  d E =-.843691E-03
       N       E                     dE             d eps       ncg     rms          rms(c)
DAV:   1    -0.192337233117E+03   -0.74630E-03   -0.68597E-02  8160   0.560E-01    0.795E-02
DAV:   2    -0.192337500009E+03   -0.26689E-03   -0.23667E-03 12720   0.223E-01    0.133E-01
DAV:   3    -0.192337299595E+03    0.20041E-03   -0.66966E-04 10800   0.200E-01    0.729E-02
DAV:   4    -0.192337279622E+03    0.19973E-04   -0.19456E-04  7680   0.106E-01
  66 F= -.19233728E+03 E0= -.19225632E+03  d E =-.888637E-03
       N       E                     dE             d eps       ncg     rms          rms(c)
DAV:   1    -0.192338420253E+03   -0.11207E-02   -0.15612E-01  8160   0.851E-01    0.108E-01
DAV:   2    -0.192338904015E+03   -0.48376E-03   -0.52883E-03 12520   0.252E-01    0.158E-01
DAV:   3    -0.192338732847E+03    0.17117E-03   -0.12483E-03 10680   0.272E-01    0.128E-01
DAV:   4    -0.192338594308E+03    0.13854E-03   -0.39032E-04  8560   0.149E-01    0.584E-02
DAV:   5    -0.192338557639E+03    0.36669E-04   -0.15109E-04  7240   0.833E-02
  67 F= -.19233856E+03 E0= -.19225860E+03  d E =-.127802E-02
       N       E                     dE             d eps       ncg     rms          rms(c)
DAV:   1    -0.192337594517E+03    0.99979E-03   -0.10079E-01  8160   0.678E-01    0.104E-01
DAV:   2    -0.192338437912E+03   -0.84340E-03   -0.51722E-03 11560   0.399E-01    0.241E-01
DAV:   3    -0.192337676581E+03    0.76133E-03   -0.15140E-03 10440   0.319E-01    0.644E-02
DAV:   4    -0.192337679798E+03   -0.32166E-05   -0.26690E-04  8160   0.120E-01
  68 F= -.19233768E+03 E0= -.19225685E+03  d E =0.877841E-03
