<?xml version="1.0" encoding="ISO-8859-1"?>
<modeling>
 <generator>
  <i name="program" type="string">vasp </i>
  <i name="version" type="string">5.4.1  </i>
  <i name="subversion" type="string">05Feb16 (build Jul 05 2020 17:13:04) complex                          parallel </i>
  <i name="platform" type="string">IFC91_ompi </i>
  <i name="date" type="string">2024 04 21 </i>
  <i name="time" type="string">05:10:50 </i>
 </generator>
 <incar>
  <i type="int" name="ISTART">     0</i>
  <i type="string" name="PREC">normal</i>
  <i type="string" name="ALGO"> Normal</i>
  <i type="int" name="ISPIN">     1</i>
  <i type="int" name="ICHARG">     2</i>
  <i type="int" name="IBRION">     1</i>
  <i type="int" name="NSW">   100</i>
  <i type="int" name="ISIF">     3</i>
  <i type="int" name="ISYM">     0</i>
  <i name="SYMPREC">      0.00000001</i>
  <i name="POTIM">      0.50000000</i>
  <i type="logical" name="LREAL"> F  </i>
  <i type="logical" name="LPLANE"> F  </i>
  <i type="int" name="ISMEAR">     0</i>
  <i type="logical" name="LWAVE"> F  </i>
  <i type="logical" name="LCHARG"> F  </i>
  <v type="int" name="KPOINT_BSE">    -1     0     0     0</v>
 </incar>
 <kpoints>
  <generation param="Gamma">
   <v type="int" name="divisions">       8        8        1 </v>
   <v name="usershift">      0.00000000       0.00000000       0.00000000 </v>
   <v name="genvec1">      0.12500000       0.00000000       0.00000000 </v>
   <v name="genvec2">     -0.00000000       0.12500000       0.00000000 </v>
   <v name="genvec3">      0.00000000       0.00000000       1.00000000 </v>
   <v name="shift">      0.00000000       0.00000000       0.00000000 </v>
  </generation>
  <varray name="kpointlist" >
   <v>       0.00000000       0.00000000       0.00000000 </v>
   <v>       0.12500000       0.00000000       0.00000000 </v>
   <v>       0.25000000       0.00000000       0.00000000 </v>
   <v>       0.37500000       0.00000000       0.00000000 </v>
   <v>       0.50000000       0.00000000       0.00000000 </v>
   <v>       0.00000000       0.12500000       0.00000000 </v>
   <v>       0.12500000       0.12500000       0.00000000 </v>
   <v>       0.25000000       0.12500000       0.00000000 </v>
   <v>       0.37500000       0.12500000       0.00000000 </v>
   <v>       0.50000000       0.12500000       0.00000000 </v>
   <v>      -0.37500000       0.12500000       0.00000000 </v>
   <v>      -0.25000000       0.12500000       0.00000000 </v>
   <v>      -0.12500000       0.12500000       0.00000000 </v>
   <v>       0.00000000       0.25000000       0.00000000 </v>
   <v>       0.12500000       0.25000000       0.00000000 </v>
   <v>       0.25000000       0.25000000       0.00000000 </v>
   <v>       0.37500000       0.25000000       0.00000000 </v>
   <v>       0.50000000       0.25000000       0.00000000 </v>
   <v>      -0.37500000       0.25000000       0.00000000 </v>
   <v>      -0.25000000       0.25000000       0.00000000 </v>
   <v>      -0.12500000       0.25000000       0.00000000 </v>
   <v>      -0.00000000       0.37500000       0.00000000 </v>
   <v>       0.12500000       0.37500000       0.00000000 </v>
   <v>       0.25000000       0.37500000       0.00000000 </v>
   <v>       0.37500000       0.37500000       0.00000000 </v>
   <v>       0.50000000       0.37500000       0.00000000 </v>
   <v>      -0.37500000       0.37500000       0.00000000 </v>
   <v>      -0.25000000       0.37500000       0.00000000 </v>
   <v>      -0.12500000       0.37500000       0.00000000 </v>
   <v>       0.00000000       0.50000000       0.00000000 </v>
   <v>       0.12500000       0.50000000       0.00000000 </v>
   <v>       0.25000000       0.50000000       0.00000000 </v>
   <v>       0.37500000       0.50000000       0.00000000 </v>
   <v>       0.50000000       0.50000000       0.00000000 </v>
  </varray>
  <varray name="weights" >
   <v>       0.01562500 </v>
   <v>       0.03125000 </v>
   <v>       0.03125000 </v>
   <v>       0.03125000 </v>
   <v>       0.01562500 </v>
   <v>       0.03125000 </v>
   <v>       0.03125000 </v>
   <v>       0.03125000 </v>
   <v>       0.03125000 </v>
   <v>       0.03125000 </v>
   <v>       0.03125000 </v>
   <v>       0.03125000 </v>
   <v>       0.03125000 </v>
   <v>       0.03125000 </v>
   <v>       0.03125000 </v>
   <v>       0.03125000 </v>
   <v>       0.03125000 </v>
   <v>       0.03125000 </v>
   <v>       0.03125000 </v>
   <v>       0.03125000 </v>
   <v>       0.03125000 </v>
   <v>       0.03125000 </v>
   <v>       0.03125000 </v>
   <v>       0.03125000 </v>
   <v>       0.03125000 </v>
   <v>       0.03125000 </v>
   <v>       0.03125000 </v>
   <v>       0.03125000 </v>
   <v>       0.03125000 </v>
   <v>       0.01562500 </v>
   <v>       0.03125000 </v>
   <v>       0.03125000 </v>
   <v>       0.03125000 </v>
   <v>       0.01562500 </v>
  </varray>
 </kpoints>
 <parameters>
  <separator name="general" >
   <i type="string" name="SYSTEM">unknown system</i>
   <i type="logical" name="LCOMPAT"> F  </i>
  </separator>
  <separator name="electronic" >
   <i type="string" name="PREC">normal</i>
   <i name="ENMAX">    280.00000000</i>
   <i name="ENAUG">    373.43800000</i>
   <i name="EDIFF">      0.00010000</i>
   <i type="int" name="IALGO">    38</i>
   <i type="int" name="IWAVPR">    11</i>
   <i type="int" name="NBANDS">   120</i>
   <i name="NELECT">    159.00000000</i>
   <i type="int" name="TURBO">     0</i>
   <i type="int" name="IRESTART">     0</i>
   <i type="int" name="NREBOOT">     0</i>
   <i type="int" name="NMIN">     0</i>
   <i name="EREF">      0.00000000</i>
   <separator name="electronic smearing" >
    <i type="int" name="ISMEAR">     0</i>
    <i name="SIGMA">      0.20000000</i>
    <i name="KSPACING">      0.50000000</i>
    <i type="logical" name="KGAMMA"> T  </i>
   </separator>
   <separator name="electronic projectors" >
    <i type="logical" name="LREAL"> F  </i>
    <v name="ROPT">      0.00000000      0.00000000      0.00000000      0.00000000</v>
    <i type="int" name="LMAXPAW">  -100</i>
    <i type="int" name="LMAXMIX">     2</i>
    <i type="logical" name="NLSPLINE"> F  </i>
   </separator>
   <separator name="electronic startup" >
    <i type="int" name="ISTART">     0</i>
    <i type="int" name="ICHARG">     2</i>
    <i type="int" name="INIWAV">     1</i>
   </separator>
   <separator name="electronic spin" >
    <i type="int" name="ISPIN">     1</i>
    <i type="logical" name="LNONCOLLINEAR"> F  </i>
    <v name="MAGMOM">      1.00000000      1.00000000      1.00000000      1.00000000      1.00000000      1.00000000      1.00000000      1.00000000      1.00000000      1.00000000      1.00000000      1.00000000      1.00000000      1.00000000      1.00000000      1.00000000      1.00000000      1.00000000      1.00000000      1.00000000
      1.00000000      1.00000000      1.00000000      1.00000000      1.00000000      1.00000000      1.00000000</v>
    <i name="NUPDOWN">     -1.00000000</i>
    <i type="logical" name="LSORBIT"> F  </i>
    <v name="SAXIS">      0.00000000      0.00000000      1.00000000</v>
    <i type="logical" name="LSPIRAL"> F  </i>
    <v name="QSPIRAL">      0.00000000      0.00000000      0.00000000</v>
    <i type="logical" name="LZEROZ"> F  </i>
   </separator>
   <separator name="electronic exchange-correlation" >
    <i type="logical" name="LASPH"> F  </i>
    <i type="logical" name="LMETAGGA"> F  </i>
   </separator>
   <separator name="electronic convergence" >
    <i type="int" name="NELM">    60</i>
    <i type="int" name="NELMDL">    -5</i>
    <i type="int" name="NELMIN">     2</i>
    <i name="ENINI">    280.00000000</i>
    <separator name="electronic convergence detail" >
     <i type="logical" name="LDIAG"> T  </i>
     <i type="logical" name="LSUBROT"> F  </i>
     <i name="WEIMIN">      0.00100000</i>
     <i name="EBREAK">      0.00000021</i>
     <i name="DEPER">      0.30000000</i>
     <i type="int" name="NRMM">     4</i>
     <i name="TIME">      0.40000000</i>
    </separator>
   </separator>
   <separator name="electronic mixer" >
    <i name="AMIX">      0.40000000</i>
    <i name="BMIX">      1.00000000</i>
    <i name="AMIN">      0.10000000</i>
    <i name="AMIX_MAG">      1.60000000</i>
    <i name="BMIX_MAG">      1.00000000</i>
    <separator name="electronic mixer details" >
     <i type="int" name="IMIX">     4</i>
     <i type="logical" name="MIXFIRST"> F  </i>
     <i type="int" name="MAXMIX">   -45</i>
     <i name="WC">    100.00000000</i>
     <i type="int" name="INIMIX">     1</i>
     <i type="int" name="MIXPRE">     1</i>
     <i type="int" name="MREMOVE">     5</i>
    </separator>
   </separator>
   <separator name="electronic dipolcorrection" >
    <i type="logical" name="LDIPOL"> F  </i>
    <i type="logical" name="LMONO"> F  </i>
    <i type="int" name="IDIPOL">     0</i>
    <i name="EPSILON">      1.00000000</i>
    <v name="DIPOL">   -100.00000000   -100.00000000   -100.00000000</v>
    <i name="EFIELD">      0.00000000</i>
   </separator>
  </separator>
  <separator name="grids" >
   <i type="int" name="NGX">    42</i>
   <i type="int" name="NGY">    42</i>
   <i type="int" name="NGZ">   126</i>
   <i type="int" name="NGXF">    84</i>
   <i type="int" name="NGYF">    84</i>
   <i type="int" name="NGZF">   252</i>
   <i type="logical" name="ADDGRID"> F  </i>
  </separator>
  <separator name="ionic" >
   <i type="int" name="NSW">   100</i>
   <i type="int" name="IBRION">     1</i>
   <i type="int" name="ISIF">     3</i>
   <i name="PSTRESS">      0.00000000</i>
   <i name="EDIFFG">      0.00100000</i>
   <i type="int" name="NFREE">     0</i>
   <i name="POTIM">      0.50000000</i>
   <i name="SMASS">     -3.00000000</i>
   <i name="SCALEE">      1.00000000</i>
  </separator>
  <separator name="ionic md" >
   <i name="TEBEG">      0.00010000</i>
   <i name="TEEND">      0.00010000</i>
   <i type="int" name="NBLOCK">     1</i>
   <i type="int" name="KBLOCK">   100</i>
   <i type="int" name="NPACO">   256</i>
   <i name="APACO">     16.00000000</i>
  </separator>
  <separator name="symmetry" >
   <i type="int" name="ISYM">     0</i>
   <i name="SYMPREC">      0.00000001</i>
  </separator>
  <separator name="dos" >
   <i type="logical" name="LORBIT"> F  </i>
   <v name="RWIGS">     -1.00000000     -1.00000000     -1.00000000     -1.00000000</v>
   <i type="int" name="NEDOS">   301</i>
   <i name="EMIN">     10.00000000</i>
   <i name="EMAX">    -10.00000000</i>
   <i name="EFERMI">      0.00000000</i>
  </separator>
  <separator name="writing" >
   <i type="int" name="NWRITE">     2</i>
   <i type="logical" name="LWAVE"> F  </i>
   <i type="logical" name="LCHARG"> F  </i>
   <i type="logical" name="LPARD"> F  </i>
   <i type="logical" name="LVTOT"> F  </i>
   <i type="logical" name="LVHAR"> F  </i>
   <i type="logical" name="LELF"> F  </i>
   <i type="logical" name="LOPTICS"> F  </i>
   <v name="STM">      0.00000000      0.00000000      0.00000000      0.00000000      0.00000000      0.00000000      0.00000000</v>
  </separator>
  <separator name="performance" >
   <i type="int" name="NPAR">    40</i>
   <i type="int" name="NSIM">     4</i>
   <i type="int" name="NBLK">    -1</i>
   <i type="logical" name="LPLANE"> F  </i>
   <i type="logical" name="LSCALAPACK"> T  </i>
   <i type="logical" name="LSCAAWARE"> F  </i>
   <i type="logical" name="LSCALU"> F  </i>
   <i type="logical" name="LASYNC"> F  </i>
   <i type="logical" name="LORBITALREAL"> F  </i>
  </separator>
  <separator name="miscellaneous" >
   <i type="int" name="IDIOT">     3</i>
   <i type="logical" name="LMUSIC"> F  </i>
   <v name="POMASS">     50.94100000     95.94000000    183.85000000     32.06600000</v>
   <v name="DARWINR">      0.00000000      0.00000000      0.00000000      0.00000000</v>
   <v name="DARWINV">      1.00000000      1.00000000      1.00000000      1.00000000</v>
   <i type="logical" name="LCORR"> T  </i>
  </separator>
  <i type="logical" name="GGA_COMPAT"> T  </i>
  <i type="logical" name="LBERRY"> F  </i>
  <i type="int" name="ICORELEVEL">     0</i>
  <i type="logical" name="LDAU"> F  </i>
  <i type="int" name="I_CONSTRAINED_M">     0</i>
  <separator name="electronic exchange-correlation" >
   <i type="string" name="GGA">--</i>
   <i type="int" name="VOSKOWN">     0</i>
   <i type="logical" name="LHFCALC"> F  </i>
   <i type="string" name="PRECFOCK"></i>
   <i type="logical" name="LSYMGRAD"> F  </i>
   <i type="logical" name="LHFONE"> F  </i>
   <i type="logical" name="LRHFCALC"> F  </i>
   <i type="logical" name="LTHOMAS"> F  </i>
   <i type="logical" name="LMODELHF"> F  </i>
   <i name="ENCUT4O">     -1.00000000</i>
   <i type="int" name="EXXOEP">     0</i>
   <i type="int" name="FOURORBIT">     0</i>
   <i name="AEXX">      0.00000000</i>
   <i name="HFALPHA">      0.00000000</i>
   <i name="MCALPHA">      0.00000000</i>
   <i name="ALDAX">      1.00000000</i>
   <i name="AGGAX">      1.00000000</i>
   <i name="ALDAC">      1.00000000</i>
   <i name="AGGAC">      1.00000000</i>
   <i type="int" name="NKREDX">     1</i>
   <i type="int" name="NKREDY">     1</i>
   <i type="int" name="NKREDZ">     1</i>
   <i type="logical" name="SHIFTRED"> F  </i>
   <i type="logical" name="ODDONLY"> F  </i>
   <i type="logical" name="EVENONLY"> F  </i>
   <i type="int" name="LMAXFOCK">     0</i>
   <i type="int" name="NMAXFOCKAE">     0</i>
   <i type="logical" name="LFOCKAEDFT"> F  </i>
   <i name="HFSCREEN">      0.00000000</i>
   <i name="HFSCREENC">      0.00000000</i>
   <i type="int" name="NBANDSGWLOW">     0</i>
  </separator>
  <separator name="vdW DFT" >
   <i type="logical" name="LUSE_VDW"> F  </i>
   <i name="Zab_VDW">     -0.84910000</i>
   <i name="PARAM1">      0.12340000</i>
   <i name="PARAM2">      1.00000000</i>
   <i name="PARAM3">      0.00000000</i>
  </separator>
  <separator name="model GW" >
   <i type="int" name="MODEL_GW">     0</i>
   <i name="MODEL_EPS0">     58.26239943</i>
   <i name="MODEL_ALPHA">      1.00000000</i>
  </separator>
  <separator name="linear response parameters" >
   <i type="logical" name="LEPSILON"> F  </i>
   <i type="logical" name="LRPA"> F  </i>
   <i type="logical" name="LNABLA"> F  </i>
   <i type="logical" name="LVEL"> F  </i>
   <i type="int" name="KINTER">     0</i>
   <i name="CSHIFT">      0.10000000</i>
   <i name="OMEGAMAX">     -1.00000000</i>
   <i name="DEG_THRESHOLD">      0.00200000</i>
  </separator>
  <separator name="orbital magnetization" >
   <i type="logical" name="NUCIND"> F  </i>
   <v name="MAGPOS">      0.00000000      0.00000000      0.00000000</v>
   <i type="logical" name="LNICSALL"> T  </i>
   <i type="logical" name="ORBITALMAG"> F  </i>
   <i type="logical" name="LMAGBLOCH"> F  </i>
   <i type="logical" name="LCHIMAG"> F  </i>
   <i type="logical" name="LGAUGE"> T  </i>
   <i type="int" name="MAGATOM">     0</i>
   <v name="MAGDIPOL">      0.00000000      0.00000000      0.00000000</v>
   <v name="AVECCONST">      0.00000000      0.00000000      0.00000000</v>
  </separator>
  <separator name="response functions" >
   <i type="logical" name="LADDER"> F  </i>
   <i type="logical" name="LFXC"> F  </i>
   <i type="logical" name="LHARTREE"> T  </i>
   <i type="int" name="IBSE">     0</i>
   <v type="int" name="KPOINT">    -1     0     0     0</v>
   <i type="logical" name="LTCTE"> F  </i>
   <i type="logical" name="LTETE"> F  </i>
   <i type="logical" name="LTRIPLET"> F  </i>
   <i type="logical" name="LFXCEPS"> F  </i>
   <i type="logical" name="LFXHEG"> F  </i>
   <i type="int" name="NATURALO">     0</i>
   <i type="logical" name="L2ORDER"> F  </i>
   <i type="logical" name="LUSEW"> F  </i>
   <i name="ENCUTGW">     -2.00000000</i>
   <i name="ENCUTGWSOFT">     -2.00000000</i>
   <i name="ENCUTLF">     -1.00000000</i>
   <i type="int" name="LMAXMP2">    -1</i>
   <i name="SCISSOR">      0.00000000</i>
   <i type="int" name="NOMEGA">     0</i>
   <i type="int" name="NOMEGAR">     0</i>
   <i type="int" name="NBANDSGW">    -1</i>
   <i type="int" name="NBANDSO">    -1</i>
   <i type="int" name="NBANDSV">    -1</i>
   <i type="int" name="NELM">     1</i>
   <i type="int" name="NELMHF">     1</i>
   <i type="int" name="DIM">     3</i>
   <i type="int" name="ANTIRES">     0</i>
   <i name="OMEGAMAX">    -30.00000000</i>
   <i name="OMEGAMIN">    -30.00000000</i>
   <i name="OMEGATL">   -200.00000000</i>
   <i type="int" name="OMEGAGRID">     0</i>
   <i name="CSHIFT">     -0.10000000</i>
   <i type="logical" name="SELFENERGY"> F  </i>
   <i type="logical" name="LSPECTRAL"> F  </i>
   <i type="logical" name="LSPECTRALGW"> F  </i>
   <i type="logical" name="LSINGLES"> F  </i>
   <i type="logical" name="LFERMIGW"> F  </i>
   <i type="logical" name="ODDONLYGW"> F  </i>
   <i type="logical" name="EVENONLYGW"> F  </i>
   <i type="int" name="NKREDLFX">     1</i>
   <i type="int" name="NKREDLFY">     1</i>
   <i type="int" name="NKREDLFZ">     1</i>
   <i type="int" name="MAXMEM">  1800</i>
   <i type="int" name="TELESCOPE">     0</i>
   <i type="int" name="TAUPAR">     1</i>
   <i type="int" name="OMEGAPAR">    -1</i>
   <i name="LAMBDA">      1.00000000</i>
  </separator>
  <separator name="External order field" >
   <i name="OFIELD_KAPPA">      0.00000000</i>
   <v name="OFIELD_K">      0.00000000      0.00000000      0.00000000</v>
   <i name="OFIELD_Q6_NEAR">      0.00000000</i>
   <i name="OFIELD_Q6_FAR">      0.00000000</i>
   <i name="OFIELD_A">      0.00000000</i>
  </separator>
 </parameters>
 <atominfo>
  <atoms>      27 </atoms>
  <types>       4 </types>
  <array name="atoms" >
   <dimension dim="1">ion</dimension>
   <field type="string">element</field>
   <field type="int">atomtype</field>
   <set>
    <rc><c>V </c><c>   1</c></rc>
    <rc><c>V </c><c>   1</c></rc>
    <rc><c>V </c><c>   1</c></rc>
    <rc><c>Mo</c><c>   2</c></rc>
    <rc><c>Mo</c><c>   2</c></rc>
    <rc><c>Mo</c><c>   2</c></rc>
    <rc><c>W </c><c>   3</c></rc>
    <rc><c>W </c><c>   3</c></rc>
    <rc><c>W </c><c>   3</c></rc>
    <rc><c>S </c><c>   4</c></rc>
    <rc><c>S </c><c>   4</c></rc>
    <rc><c>S </c><c>   4</c></rc>
    <rc><c>S </c><c>   4</c></rc>
    <rc><c>S </c><c>   4</c></rc>
    <rc><c>S </c><c>   4</c></rc>
    <rc><c>S </c><c>   4</c></rc>
    <rc><c>S </c><c>   4</c></rc>
    <rc><c>S </c><c>   4</c></rc>
    <rc><c>S </c><c>   4</c></rc>
    <rc><c>S </c><c>   4</c></rc>
    <rc><c>S </c><c>   4</c></rc>
    <rc><c>S </c><c>   4</c></rc>
    <rc><c>S </c><c>   4</c></rc>
    <rc><c>S </c><c>   4</c></rc>
    <rc><c>S </c><c>   4</c></rc>
    <rc><c>S </c><c>   4</c></rc>
    <rc><c>S </c><c>   4</c></rc>
   </set>
  </array>
  <array name="atomtypes" >
   <dimension dim="1">type</dimension>
   <field type="int">atomspertype</field>
   <field type="string">element</field>
   <field>mass</field>
   <field>valence</field>
   <field type="string">pseudopotential</field>
   <set>
    <rc><c>   3</c><c>V </c><c>     50.94100000</c><c>      5.00000000</c><c> PAW_PBE V 08Apr2002                    </c></rc>
    <rc><c>   3</c><c>Mo</c><c>     95.94000000</c><c>      6.00000000</c><c> PAW_PBE Mo 08Apr2002                   </c></rc>
    <rc><c>   3</c><c>W </c><c>    183.85000000</c><c>      6.00000000</c><c> PAW_PBE W 08Apr2002                    </c></rc>
    <rc><c>  18</c><c>S </c><c>     32.06600000</c><c>      6.00000000</c><c>  PAW_PBE S 17Jan2003                   </c></rc>
   </set>
  </array>
 </atominfo>
 <structure name="initialpos" >
  <crystal>
   <varray name="basis" >
    <v>       8.66999996       5.03999989       0.00000000 </v>
    <v>      -8.66999982       5.04000013       0.00000000 </v>
    <v>       0.00000000       0.00000000      30.00000000 </v>
   </varray>
   <i name="volume">   2621.80797419 </i>
   <varray name="rec_basis" >
    <v>       0.05767013       0.09920635       0.00000000 </v>
    <v>      -0.05767013       0.09920635       0.00000000 </v>
    <v>       0.00000000       0.00000000       0.03333333 </v>
   </varray>
  </crystal>
  <varray name="positions" >
   <v>       1.00000000       0.33333334       0.00000000 </v>
   <v>       0.66666669       0.00000000       0.00000000 </v>
   <v>       0.00000000       0.00000000       0.00000000 </v>
   <v>       0.33333334       0.66666669       0.00000000 </v>
   <v>       0.33333334       0.00000000       0.00000000 </v>
   <v>       0.66666669       0.33333334       0.00000000 </v>
   <v>       0.00000000       0.66666669       0.00000000 </v>
   <v>       0.33333334       0.33333334       0.00000000 </v>
   <v>       0.66666669       0.66666669       0.00000000 </v>
   <v>       0.11068511       0.22244981       0.95539999 </v>
   <v>       0.22244981       0.11068511       0.04460000 </v>
   <v>       0.11068511       0.55578315       0.95539999 </v>
   <v>       0.22244981       0.44401845       0.04460000 </v>
   <v>       0.11068511       0.88911647       0.95539999 </v>
   <v>       0.22244981       0.77735180       0.04460000 </v>
   <v>       0.44401845       0.22244981       0.95539999 </v>
   <v>       0.55578315       0.11068511       0.04460000 </v>
   <v>       0.44401845       0.55578315       0.95539999 </v>
   <v>       0.55578315       0.44401845       0.04460000 </v>
   <v>       0.44401845       0.88911647       0.95539999 </v>
   <v>       0.55578315       0.77735180       0.04460000 </v>
   <v>       0.77735180       0.22244981       0.95539999 </v>
   <v>       0.88911647       0.11068511       0.04460000 </v>
   <v>       0.77735180       0.55578315       0.95539999 </v>
   <v>       0.88911647       0.44401845       0.04460000 </v>
   <v>       0.77735180       0.88911647       0.95539999 </v>
   <v>       0.88911647       0.77735180       0.04460000 </v>
  </varray>
 </structure>
 <calculation>
  <scstep>
   <time name="dav">   21.48   21.53</time>
   <time name="total">   21.52   21.58</time>
   <energy>
    <i name="alphaZ">     81.65567618 </i>
    <i name="ewald">  41891.17177387 </i>
    <i name="hartreedc"> -47723.81656504 </i>
    <i name="XCdc">   -242.92509788 </i>
    <i name="pawpsdc">   3467.42045192 </i>
    <i name="pawaedc">  -2871.19716117 </i>
    <i name="eentropy">     -0.53007007 </i>
    <i name="bandstr">   -237.14308188 </i>
    <i name="atom">   6761.44252427 </i>
    <i name="e_fr_energy">   1126.07845020 </i>
    <i name="e_wo_entrp">   1126.60852028 </i>
    <i name="e_0_energy">   1126.34348524 </i>
   </energy>
  </scstep>
  <scstep>
   <time name="dav">   27.18   27.25</time>
   <time name="total">   27.19   27.26</time>
   <energy>
    <i name="e_fr_energy">      2.02929647 </i>
    <i name="e_wo_entrp">      2.21246270 </i>
    <i name="e_0_energy">      2.12087958 </i>
   </energy>
  </scstep>
  <scstep>
   <time name="dav">   27.31   27.38</time>
   <time name="total">   27.31   27.39</time>
   <energy>
    <i name="e_fr_energy">   -199.42398441 </i>
    <i name="e_wo_entrp">   -199.17746675 </i>
    <i name="e_0_energy">   -199.30072558 </i>
   </energy>
  </scstep>
  <scstep>
   <time name="dav">   29.33   29.40</time>
   <time name="total">   29.33   29.41</time>
   <energy>
    <i name="e_fr_energy">   -208.94658170 </i>
    <i name="e_wo_entrp">   -208.66040774 </i>
    <i name="e_0_energy">   -208.80349472 </i>
   </energy>
  </scstep>
  <scstep>
   <time name="dav">   28.96   29.04</time>
   <time name="total">   29.43   29.51</time>
   <energy>
    <i name="e_fr_energy">   -209.32167460 </i>
    <i name="e_wo_entrp">   -209.03923533 </i>
    <i name="e_0_energy">   -209.18045497 </i>
   </energy>
  </scstep>
  <scstep>
   <time name="dav">   30.43   30.50</time>
   <time name="total">   30.93   31.01</time>
   <energy>
    <i name="e_fr_energy">   -237.94283462 </i>
    <i name="e_wo_entrp">   -237.68342994 </i>
    <i name="e_0_energy">   -237.81313228 </i>
   </energy>
  </scstep>
  <scstep>
   <time name="dav">   32.69   32.76</time>
   <time name="total">   33.19   33.28</time>
   <energy>
    <i name="e_fr_energy">   -196.56772587 </i>
    <i name="e_wo_entrp">   -196.22676991 </i>
    <i name="e_0_energy">   -196.39724789 </i>
   </energy>
  </scstep>
  <scstep>
   <time name="dav">   29.34   29.41</time>
   <time name="total">   29.86   29.94</time>
   <energy>
    <i name="e_fr_energy">   -189.49005584 </i>
    <i name="e_wo_entrp">   -189.17834741 </i>
    <i name="e_0_energy">   -189.33420162 </i>
   </energy>
  </scstep>
  <scstep>
   <time name="dav">   32.52   32.60</time>
   <time name="total">   33.03   33.12</time>
   <energy>
    <i name="e_fr_energy">   -188.16792256 </i>
    <i name="e_wo_entrp">   -187.85163044 </i>
    <i name="e_0_energy">   -188.00977650 </i>
   </energy>
  </scstep>
  <scstep>
   <time name="dav">   32.18   32.25</time>
   <time name="total">   32.71   32.80</time>
   <energy>
    <i name="e_fr_energy">   -186.95793031 </i>
    <i name="e_wo_entrp">   -186.60582795 </i>
    <i name="e_0_energy">   -186.78187913 </i>
   </energy>
  </scstep>
  <scstep>
   <time name="dav">   32.68   32.76</time>
   <time name="total">   33.22   33.30</time>
   <energy>
    <i name="e_fr_energy">   -187.06234690 </i>
    <i name="e_wo_entrp">   -186.71984036 </i>
    <i name="e_0_energy">   -186.89109363 </i>
   </energy>
  </scstep>
  <scstep>
   <time name="dav">   30.84   30.91</time>
   <time name="total">   31.37   31.45</time>
   <energy>
    <i name="e_fr_energy">   -187.00471522 </i>
    <i name="e_wo_entrp">   -186.67385425 </i>
    <i name="e_0_energy">   -186.83928474 </i>
   </energy>
  </scstep>
  <scstep>
   <time name="dav">   32.01   32.08</time>
   <time name="total">   32.54   32.63</time>
   <energy>
    <i name="e_fr_energy">   -186.88717558 </i>
    <i name="e_wo_entrp">   -186.55302835 </i>
    <i name="e_0_energy">   -186.72010196 </i>
   </energy>
  </scstep>
  <scstep>
   <time name="dav">   31.98   32.06</time>
   <time name="total">   32.51   32.60</time>
   <energy>
    <i name="e_fr_energy">   -186.85027912 </i>
    <i name="e_wo_entrp">   -186.50570071 </i>
    <i name="e_0_energy">   -186.67798992 </i>
   </energy>
  </scstep>
  <scstep>
   <time name="dav">   30.93   31.00</time>
   <time name="total">   31.46   31.54</time>
   <energy>
    <i name="e_fr_energy">   -186.84814367 </i>
    <i name="e_wo_entrp">   -186.50428259 </i>
    <i name="e_0_energy">   -186.67621313 </i>
   </energy>
  </scstep>
  <scstep>
   <time name="dav">   32.09   32.16</time>
   <time name="total">   32.62   32.70</time>
   <energy>
    <i name="e_fr_energy">   -186.84244976 </i>
    <i name="e_wo_entrp">   -186.49936310 </i>
    <i name="e_0_energy">   -186.67090643 </i>
   </energy>
  </scstep>
  <scstep>
   <time name="dav">   31.11   31.18</time>
   <time name="total">   31.64   31.73</time>
   <energy>
    <i name="e_fr_energy">   -186.84124887 </i>
    <i name="e_wo_entrp">   -186.49951012 </i>
    <i name="e_0_energy">   -186.67037950 </i>
   </energy>
  </scstep>
  <scstep>
   <time name="dav">   28.85   28.91</time>
   <time name="total">   29.38   29.46</time>
   <energy>
    <i name="e_fr_energy">   -186.84101801 </i>
    <i name="e_wo_entrp">   -186.49880491 </i>
    <i name="e_0_energy">   -186.66991146 </i>
   </energy>
  </scstep>
  <scstep>
   <time name="dav">   27.34   27.40</time>
   <time name="total">   27.87   27.94</time>
   <energy>
    <i name="e_fr_energy">   -186.84081977 </i>
    <i name="e_wo_entrp">   -186.49853343 </i>
    <i name="e_0_energy">   -186.66967660 </i>
   </energy>
  </scstep>
  <scstep>
   <time name="dav">   23.25   23.31</time>
   <time name="total">   23.79   23.85</time>
   <energy>
    <i name="e_fr_energy">   -186.84157027 </i>
    <i name="e_wo_entrp">   -186.49971291 </i>
    <i name="e_0_energy">   -186.67064159 </i>
   </energy>
  </scstep>
  <scstep>
   <time name="dav">   21.55   21.60</time>
   <time name="total">   22.08   22.14</time>
   <energy>
    <i name="e_fr_energy">   -186.84240870 </i>
    <i name="e_wo_entrp">   -186.50048946 </i>
    <i name="e_0_energy">   -186.67144908 </i>
   </energy>
  </scstep>
  <scstep>
   <time name="dav">   20.29   20.34</time>
   <time name="total">   20.82   20.88</time>
   <energy>
    <i name="e_fr_energy">   -186.84335340 </i>
    <i name="e_wo_entrp">   -186.50135614 </i>
    <i name="e_0_energy">   -186.67235477 </i>
   </energy>
  </scstep>
  <scstep>
   <time name="dav">   20.31   20.36</time>
   <time name="total">   20.85   20.90</time>
   <energy>
    <i name="e_fr_energy">   -186.84450594 </i>
    <i name="e_wo_entrp">   -186.50263512 </i>
    <i name="e_0_energy">   -186.67357053 </i>
   </energy>
  </scstep>
  <scstep>
   <time name="dav">   18.77   18.81</time>
   <time name="total">   19.30   19.36</time>
   <energy>
    <i name="e_fr_energy">   -186.84505825 </i>
    <i name="e_wo_entrp">   -186.50311560 </i>
    <i name="e_0_energy">   -186.67408692 </i>
   </energy>
  </scstep>
  <scstep>
   <time name="dav">   16.15   16.19</time>
   <time name="total">   16.68   16.73</time>
   <energy>
    <i name="e_fr_energy">   -186.84545355 </i>
    <i name="e_wo_entrp">   -186.50349979 </i>
    <i name="e_0_energy">   -186.67447667 </i>
   </energy>
  </scstep>
  <scstep>
   <time name="dav">   18.91   18.95</time>
   <time name="total">   19.45   19.50</time>
   <energy>
    <i name="e_fr_energy">   -186.84569534 </i>
    <i name="e_wo_entrp">   -186.50375962 </i>
    <i name="e_0_energy">   -186.67472748 </i>
   </energy>
  </scstep>
  <scstep>
   <time name="dav">   20.08   20.13</time>
   <time name="total">   20.11   20.17</time>
   <energy>
    <i name="alphaZ">     81.65567618 </i>
    <i name="ewald">  41891.17177387 </i>
    <i name="hartreedc"> -47833.65760405 </i>
    <i name="XCdc">   -231.60478565 </i>
    <i name="pawpsdc">   4192.08117578 </i>
    <i name="pawaedc">  -3610.08229279 </i>
    <i name="eentropy">     -0.34194216 </i>
    <i name="bandstr">  -1437.51030934 </i>
    <i name="atom">   6761.44252427 </i>
    <i name="e_fr_energy">   -186.84578388 </i>
    <i name="e_wo_entrp">   -186.50384172 </i>
    <i name="e_0_energy">   -186.67481280 </i>
   </energy>
  </scstep>
  <structure>
   <crystal>
    <varray name="basis" >
     <v>       8.66999996       5.03999989       0.00000000 </v>
     <v>      -8.66999982       5.04000013       0.00000000 </v>
     <v>       0.00000000       0.00000000      30.00000000 </v>
    </varray>
    <i name="volume">   2621.80797419 </i>
    <varray name="rec_basis" >
     <v>       0.05767013       0.09920635       0.00000000 </v>
     <v>      -0.05767013       0.09920635       0.00000000 </v>
     <v>       0.00000000       0.00000000       0.03333333 </v>
    </varray>
   </crystal>
   <varray name="positions" >
    <v>       1.00000000       0.33333334       0.00000000 </v>
    <v>       0.66666669       0.00000000       0.00000000 </v>
    <v>       0.00000000       0.00000000       0.00000000 </v>
    <v>       0.33333334       0.66666669       0.00000000 </v>
    <v>       0.33333334       0.00000000       0.00000000 </v>
    <v>       0.66666669       0.33333334       0.00000000 </v>
    <v>       0.00000000       0.66666669       0.00000000 </v>
    <v>       0.33333334       0.33333334       0.00000000 </v>
    <v>       0.66666669       0.66666669       0.00000000 </v>
    <v>       0.11068511       0.22244981       0.95539999 </v>
    <v>       0.22244981       0.11068511       0.04460000 </v>
    <v>       0.11068511       0.55578315       0.95539999 </v>
    <v>       0.22244981       0.44401845       0.04460000 </v>
    <v>       0.11068511       0.88911647       0.95539999 </v>
    <v>       0.22244981       0.77735180       0.04460000 </v>
    <v>       0.44401845       0.22244981       0.95539999 </v>
    <v>       0.55578315       0.11068511       0.04460000 </v>
    <v>       0.44401845       0.55578315       0.95539999 </v>
    <v>       0.55578315       0.44401845       0.04460000 </v>
    <v>       0.44401845       0.88911647       0.95539999 </v>
    <v>       0.55578315       0.77735180       0.04460000 </v>
    <v>       0.77735180       0.22244981       0.95539999 </v>
    <v>       0.88911647       0.11068511       0.04460000 </v>
    <v>       0.77735180       0.55578315       0.95539999 </v>
    <v>       0.88911647       0.44401845       0.04460000 </v>
    <v>       0.77735180       0.88911647       0.95539999 </v>
    <v>       0.88911647       0.77735180       0.04460000 </v>
   </varray>
  </structure>
  <varray name="forces" >
   <v>      -0.13186064      -0.05551286       0.04088828 </v>
   <v>      -0.34687525      -0.07128624       0.01634313 </v>
   <v>       0.02745420       0.10717273       0.03769731 </v>
   <v>      -0.24895810       0.15588967      -0.09133384 </v>
   <v>       0.29436322       0.13179804      -0.11873890 </v>
   <v>       0.03251736      -0.28628373       0.05002575 </v>
   <v>       0.32268500       0.17712138      -0.14870295 </v>
   <v>       0.21994471       0.07021471       0.13510787 </v>
   <v>      -0.09618816      -0.23887445       0.07715658 </v>
   <v>      -0.24698867      -0.53131084      -1.40882352 </v>
   <v>      -0.63771295      -0.52674825       2.12151269 </v>
   <v>       0.34220469      -0.68511865      -2.19410958 </v>
   <v>      -0.34835399      -0.69867634       2.10892367 </v>
   <v>      -0.64593384      -0.15482867      -2.10893102 </v>
   <v>      -0.21981363      -0.14459466       2.88726792 </v>
   <v>      -0.02872680      -0.03087736      -2.89498242 </v>
   <v>       0.74624389       0.02283014       2.13684040 </v>
   <v>       0.23233397       0.00019535      -2.89985780 </v>
   <v>      -0.27657165      -0.00016940       2.97859039 </v>
   <v>       0.50944295       0.68251322      -2.19144110 </v>
   <v>      -0.34468922       0.70621686       2.15031342 </v>
   <v>       0.90599989      -0.00370797      -1.45755353 </v>
   <v>      -0.06155189       0.00970111       0.76095778 </v>
   <v>       0.07224531       0.16358575      -2.84745187 </v>
   <v>       0.64952504       0.12769282       2.10985011 </v>
   <v>      -0.23545783       0.52553968      -1.39862147 </v>
   <v>      -0.48527760       0.54751794       2.14907273 </v>
  </varray>
  <varray name="stress" >
   <v>       7.33382861       0.09190547      -1.53691076 </v>
   <v>       0.09190538       4.41912207       0.06366980 </v>
   <v>      -1.53691080       0.06366993      30.31863698 </v>
  </varray>
  <energy>
   <i name="e_fr_energy">   -186.84578388 </i>
   <i name="e_wo_entrp">   -186.67481280 </i>
   <i name="e_0_energy">     -0.34194216 </i>
  </energy>
  <time name="totalsc">  781.82  783.91</time>
 </calculation>
 <calculation>
  <scstep>
   <time name="dav">   21.45   21.50</time>
   <time name="total">   22.00   22.05</time>
   <energy>
    <i name="alphaZ">     78.92174282 </i>
    <i name="ewald">  39379.28041947 </i>
    <i name="hartreedc"> -45336.58611481 </i>
    <i name="XCdc">   -239.06888950 </i>
    <i name="pawpsdc">   4192.06765062 </i>
    <i name="pawaedc">  -3610.06887288 </i>
    <i name="eentropy">     -0.27905818 </i>
    <i name="bandstr">  -1413.20927862 </i>
    <i name="atom">   6761.44252427 </i>
    <i name="e_fr_energy">   -187.49987681 </i>
    <i name="e_wo_entrp">   -187.22081863 </i>
    <i name="e_0_energy">   -187.36034772 </i>
   </energy>
  </scstep>
  <scstep>
   <time name="dav">   30.00   30.08</time>
   <time name="total">   30.54   30.62</time>
   <energy>
    <i name="e_fr_energy">   -189.34602176 </i>
    <i name="e_wo_entrp">   -189.02350513 </i>
    <i name="e_0_energy">   -189.18476345 </i>
   </energy>
  </scstep>
  <scstep>
   <time name="dav">   30.22   30.30</time>
   <time name="total">   30.77   30.85</time>
   <energy>
    <i name="e_fr_energy">   -189.35986909 </i>
    <i name="e_wo_entrp">   -189.10274776 </i>
    <i name="e_0_energy">   -189.23130842 </i>
   </energy>
  </scstep>
  <scstep>
   <time name="dav">   30.44   30.51</time>
   <time name="total">   30.98   31.06</time>
   <energy>
    <i name="e_fr_energy">   -188.75710463 </i>
    <i name="e_wo_entrp">   -188.47465707 </i>
    <i name="e_0_energy">   -188.61588085 </i>
   </energy>
  </scstep>
  <scstep>
   <time name="dav">   29.00   29.07</time>
   <time name="total">   29.54   29.62</time>
   <energy>
    <i name="e_fr_energy">   -188.84844308 </i>
    <i name="e_wo_entrp">   -188.56371710 </i>
    <i name="e_0_energy">   -188.70608009 </i>
   </energy>
  </scstep>
  <scstep>
   <time name="dav">   30.51   30.59</time>
   <time name="total">   31.06   31.14</time>
   <energy>
    <i name="e_fr_energy">   -188.75597990 </i>
    <i name="e_wo_entrp">   -188.47356038 </i>
    <i name="e_0_energy">   -188.61477014 </i>
   </energy>
  </scstep>
  <scstep>
   <time name="dav">   30.36   30.43</time>
   <time name="total">   30.91   30.99</time>
   <energy>
    <i name="e_fr_energy">   -188.67623022 </i>
    <i name="e_wo_entrp">   -188.39645604 </i>
    <i name="e_0_energy">   -188.53634313 </i>
   </energy>
  </scstep>
  <scstep>
   <time name="dav">   28.25   28.32</time>
   <time name="total">   28.80   28.87</time>
   <energy>
    <i name="e_fr_energy">   -188.66179378 </i>
    <i name="e_wo_entrp">   -188.38191991 </i>
    <i name="e_0_energy">   -188.52185684 </i>
   </energy>
  </scstep>
  <scstep>
   <time name="dav">   31.06   31.13</time>
   <time name="total">   31.60   31.68</time>
   <energy>
    <i name="e_fr_energy">   -188.65721689 </i>
    <i name="e_wo_entrp">   -188.37859607 </i>
    <i name="e_0_energy">   -188.51790648 </i>
   </energy>
  </scstep>
  <scstep>
   <time name="dav">   29.23   29.31</time>
   <time name="total">   29.78   29.86</time>
   <energy>
    <i name="e_fr_energy">   -188.65719451 </i>
    <i name="e_wo_entrp">   -188.37825895 </i>
    <i name="e_0_energy">   -188.51772673 </i>
   </energy>
  </scstep>
  <scstep>
   <time name="dav">   31.32   31.40</time>
   <time name="total">   31.87   31.96</time>
   <energy>
    <i name="e_fr_energy">   -188.65586108 </i>
    <i name="e_wo_entrp">   -188.37832097 </i>
    <i name="e_0_energy">   -188.51709103 </i>
   </energy>
  </scstep>
  <scstep>
   <time name="dav">   28.93   29.00</time>
   <time name="total">   28.97   29.04</time>
   <energy>
    <i name="alphaZ">     78.92174282 </i>
    <i name="ewald">  39379.28041947 </i>
    <i name="hartreedc"> -45347.61763881 </i>
    <i name="XCdc">   -237.97528656 </i>
    <i name="pawpsdc">   3952.75876826 </i>
    <i name="pawaedc">  -3367.28862579 </i>
    <i name="eentropy">     -0.27748631 </i>
    <i name="bandstr">  -1407.90028025 </i>
    <i name="atom">   6761.44252427 </i>
    <i name="e_fr_energy">   -188.65586290 </i>
    <i name="e_wo_entrp">   -188.37837659 </i>
    <i name="e_0_energy">   -188.51711974 </i>
   </energy>
  </scstep>
  <structure>
   <crystal>
    <varray name="basis" >
     <v>       8.85726637       5.10745117       0.00000000 </v>
     <v>      -8.85455754       5.10279182       0.00000000 </v>
     <v>       0.00000000       0.00000000      30.00000000 </v>
    </varray>
    <i name="volume">   2712.63019901 </i>
    <varray name="rec_basis" >
     <v>       0.05643370       0.09792589       0.00000000 </v>
     <v>      -0.05648523       0.09795585       0.00000000 </v>
     <v>       0.00000000       0.00000000       0.03333333 </v>
    </varray>
   </crystal>
   <varray name="positions" >
    <v>       0.99936746       0.33343452       0.00006575 </v>
    <v>       0.66536045       0.00062389       0.00002628 </v>
    <v>       0.00058931       0.00043654       0.00006062 </v>
    <v>       0.33338679       0.66810541      -0.00014687 </v>
    <v>       0.33478309      -0.00018818      -0.00019094 </v>
    <v>       0.66538701       0.33187273       0.00008045 </v>
    <v>       0.00174546       0.66661662      -0.00023913 </v>
    <v>       0.33428131       0.33305747       0.00021727 </v>
    <v>       0.66525583       0.66579105       0.00012407 </v>
    <v>       0.10745511       0.22059413       0.95313448 </v>
    <v>       0.21815458       0.10993832       0.04801158 </v>
    <v>       0.10835822       0.55155212       0.95187167 </v>
    <v>       0.21813678       0.44164378       0.04799133 </v>
    <v>       0.10814701       0.89017255       0.95200864 </v>
    <v>       0.22114623       0.77727133       0.04924298 </v>
    <v>       0.44379075       0.22238195       0.95074460 </v>
    <v>       0.55796859       0.10871820       0.04803623 </v>
    <v>       0.44466578       0.55513770       0.95073676 </v>
    <v>       0.55501288       0.44478711       0.04938984 </v>
    <v>       0.44870230       0.89096561       0.95187596 </v>
    <v>       0.55820411       0.78169072       0.04805789 </v>
    <v>       0.77985469       0.21991143       0.95305612 </v>
    <v>       0.88899165       0.11090279       0.04582369 </v>
    <v>       0.77833571       0.55636507       0.95082104 </v>
    <v>       0.89153468       0.44282251       0.04799282 </v>
    <v>       0.77921194       0.89228677       0.95315088 </v>
    <v>       0.89038675       0.78132233       0.04805590 </v>
   </varray>
  </structure>
  <varray name="forces" >
   <v>      -0.14449673       0.03147424       0.07987553 </v>
   <v>      -0.30414059      -0.12726216      -0.00944236 </v>
   <v>       0.06955220       0.07796203       0.01016207 </v>
   <v>      -0.32175438       0.12128934       0.04134647 </v>
   <v>       0.26962231       0.07842313      -0.03138046 </v>
   <v>      -0.33175457      -0.30303518      -0.03566949 </v>
   <v>       0.31907119       0.24107196      -0.03810278 </v>
   <v>       0.35763856       0.35229078       0.05650396 </v>
   <v>       0.05313804      -0.46242748      -0.04629220 </v>
   <v>       0.04842708       0.06329676       0.16171226 </v>
   <v>      -0.06563582       0.06353393      -0.04856760 </v>
   <v>      -0.10668690      -0.05408601      -0.09520757 </v>
   <v>       0.11084360      -0.05049100      -0.14029265 </v>
   <v>       0.02937147      -0.09850256      -0.01139943 </v>
   <v>      -0.06621986      -0.10031055       0.09702303 </v>
   <v>      -0.14425427      -0.01688036      -0.12688099 </v>
   <v>       0.07468224       0.00148204       0.16192132 </v>
   <v>       0.09816004      -0.01233097       0.00662126 </v>
   <v>      -0.10672501      -0.01279492       0.18773606 </v>
   <v>       0.03115452       0.09041105      -0.19548348 </v>
   <v>       0.10003840       0.06630529      -0.03518310 </v>
   <v>       0.05916093      -0.01262896       0.08507414 </v>
   <v>      -0.02836482      -0.00184563      -0.19648558 </v>
   <v>      -0.07938122       0.10734516       0.10878705 </v>
   <v>      -0.02314760       0.09717111      -0.04064674 </v>
   <v>       0.04149550      -0.06236120       0.22829547 </v>
   <v>       0.06020571      -0.07709983      -0.17402419 </v>
  </varray>
  <varray name="stress" >
   <v>     -20.06710933       0.00584441       0.07444262 </v>
   <v>       0.00584464     -19.60615971      -0.02200273 </v>
   <v>       0.07444260      -0.02200258      -1.84775676 </v>
  </varray>
  <energy>
   <i name="e_fr_energy">   -188.65586290 </i>
   <i name="e_wo_entrp">   -188.51711974 </i>
   <i name="e_0_energy">     -0.27748631 </i>
  </energy>
  <time name="totalsc">  398.37  399.43</time>
 </calculation>
 <calculation>
  <scstep>
   <time name="dav">   23.59   23.64</time>
   <time name="total">   24.12   24.18</time>
   <energy>
    <i name="alphaZ">     82.35430734 </i>
    <i name="ewald">  41307.02987339 </i>
    <i name="hartreedc"> -47305.98459562 </i>
    <i name="XCdc">   -233.84657853 </i>
    <i name="pawpsdc">   3950.44455008 </i>
    <i name="pawaedc">  -3364.94684015 </i>
    <i name="eentropy">     -0.23201018 </i>
    <i name="bandstr">  -1386.84358703 </i>
    <i name="atom">   6761.44252427 </i>
    <i name="e_fr_energy">   -190.58235641 </i>
    <i name="e_wo_entrp">   -190.35034623 </i>
    <i name="e_0_energy">   -190.46635132 </i>
   </energy>
  </scstep>
  <scstep>
   <time name="dav">   28.36   28.43</time>
   <time name="total">   28.88   28.96</time>
   <energy>
    <i name="e_fr_energy">   -190.52846777 </i>
    <i name="e_wo_entrp">   -190.31179320 </i>
    <i name="e_0_energy">   -190.42013048 </i>
   </energy>
  </scstep>
  <scstep>
   <time name="dav">   29.98   30.05</time>
   <time name="total">   30.51   30.59</time>
   <energy>
    <i name="e_fr_energy">   -190.06444732 </i>
    <i name="e_wo_entrp">   -189.81460714 </i>
    <i name="e_0_energy">   -189.93952723 </i>
   </energy>
  </scstep>
  <scstep>
   <time name="dav">   31.49   31.56</time>
   <time name="total">   32.01   32.10</time>
   <energy>
    <i name="e_fr_energy">   -189.85263731 </i>
    <i name="e_wo_entrp">   -189.63025066 </i>
    <i name="e_0_energy">   -189.74144399 </i>
   </energy>
  </scstep>
  <scstep>
   <time name="dav">   29.79   29.86</time>
   <time name="total">   30.32   30.40</time>
   <energy>
    <i name="e_fr_energy">   -189.82202019 </i>
    <i name="e_wo_entrp">   -189.58082596 </i>
    <i name="e_0_energy">   -189.70142308 </i>
   </energy>
  </scstep>
  <scstep>
   <time name="dav">   30.78   30.85</time>
   <time name="total">   31.30   31.38</time>
   <energy>
    <i name="e_fr_energy">   -189.75137577 </i>
    <i name="e_wo_entrp">   -189.52070137 </i>
    <i name="e_0_energy">   -189.63603857 </i>
   </energy>
  </scstep>
  <scstep>
   <time name="dav">   28.56   28.63</time>
   <time name="total">   29.09   29.16</time>
   <energy>
    <i name="e_fr_energy">   -189.74552820 </i>
    <i name="e_wo_entrp">   -189.51288539 </i>
    <i name="e_0_energy">   -189.62920679 </i>
   </energy>
  </scstep>
  <scstep>
   <time name="dav">   30.67   30.74</time>
   <time name="total">   31.19   31.28</time>
   <energy>
    <i name="e_fr_energy">   -189.74546061 </i>
    <i name="e_wo_entrp">   -189.51314732 </i>
    <i name="e_0_energy">   -189.62930397 </i>
   </energy>
  </scstep>
  <scstep>
   <time name="dav">   28.10   28.17</time>
   <time name="total">   28.63   28.71</time>
   <energy>
    <i name="e_fr_energy">   -189.74458482 </i>
    <i name="e_wo_entrp">   -189.51232288 </i>
    <i name="e_0_energy">   -189.62845385 </i>
   </energy>
  </scstep>
  <scstep>
   <time name="dav">   26.64   26.70</time>
   <time name="total">   27.16   27.24</time>
   <energy>
    <i name="e_fr_energy">   -189.74501663 </i>
    <i name="e_wo_entrp">   -189.51244544 </i>
    <i name="e_0_energy">   -189.62873103 </i>
   </energy>
  </scstep>
  <scstep>
   <time name="dav">   24.35   24.41</time>
   <time name="total">   24.88   24.95</time>
   <energy>
    <i name="e_fr_energy">   -189.74470862 </i>
    <i name="e_wo_entrp">   -189.51215336 </i>
    <i name="e_0_energy">   -189.62843099 </i>
   </energy>
  </scstep>
  <scstep>
   <time name="dav">   19.57   19.62</time>
   <time name="total">   19.61   19.66</time>
   <energy>
    <i name="alphaZ">     82.35430734 </i>
    <i name="ewald">  41307.02987339 </i>
    <i name="hartreedc"> -47279.26814021 </i>
    <i name="XCdc">   -235.24510761 </i>
    <i name="pawpsdc">   4038.81522975 </i>
    <i name="pawaedc">  -3454.51276518 </i>
    <i name="eentropy">     -0.23254237 </i>
    <i name="bandstr">  -1410.12811047 </i>
    <i name="atom">   6761.44252427 </i>
    <i name="e_fr_energy">   -189.74473107 </i>
    <i name="e_wo_entrp">   -189.51218870 </i>
    <i name="e_0_energy">   -189.62845989 </i>
   </energy>
  </scstep>
  <structure>
   <crystal>
    <varray name="basis" >
     <v>       8.66857886       5.00118286       0.00000000 </v>
     <v>      -8.66586438       4.99651059       0.00000000 </v>
     <v>       0.00000000       0.00000000      30.00000000 </v>
    </varray>
    <i name="volume">   2599.56655384 </i>
    <varray name="rec_basis" >
     <v>       0.05766166       0.10000742       0.00000000 </v>
     <v>      -0.05771558       0.10003874       0.00000000 </v>
     <v>       0.00000000       0.00000000       0.03333333 </v>
    </varray>
   </crystal>
   <varray name="positions" >
    <v>       0.99928157       0.33362492       0.00011083 </v>
    <v>       0.66485881       0.00070370       0.00002095 </v>
    <v>       0.00078504       0.00049933       0.00006636 </v>
    <v>       0.33328044       0.66861432      -0.00012354 </v>
    <v>       0.33517076      -0.00031598      -0.00020865 </v>
    <v>       0.66456753       0.33168741       0.00006031 </v>
    <v>       0.00245007       0.66671130      -0.00026063 </v>
    <v>       0.33520719       0.33329973       0.00024916 </v>
    <v>       0.66453985       0.66497324       0.00009795 </v>
    <v>       0.10760633       0.22065280       0.95322575 </v>
    <v>       0.21819721       0.11010648       0.04798417 </v>
    <v>       0.10816659       0.55156445       0.95181793 </v>
    <v>       0.21815898       0.44145402       0.04791215 </v>
    <v>       0.10801175       0.88998108       0.95200221 </v>
    <v>       0.22091662       0.77716828       0.04929774 </v>
    <v>       0.44362492       0.22249192       0.95067299 </v>
    <v>       0.55804241       0.10864924       0.04812762 </v>
    <v>       0.44473913       0.55502336       0.95074050 </v>
    <v>       0.55488968       0.44486796       0.04949580 </v>
    <v>       0.44888198       0.89108577       0.95176563 </v>
    <v>       0.55840964       0.78170501       0.04803804 </v>
    <v>       0.77989028       0.21983390       0.95310413 </v>
    <v>       0.88896148       0.11092685       0.04571279 </v>
    <v>       0.77843785       0.55661904       0.95088244 </v>
    <v>       0.89167369       0.44300581       0.04796988 </v>
    <v>       0.77914819       0.89214365       0.95327974 </v>
    <v>       0.89031644       0.78113686       0.04795768 </v>
   </varray>
  </structure>
  <varray name="forces" >
   <v>      -0.17056733       0.08822981       0.06853560 </v>
   <v>      -0.29911049      -0.16752141      -0.01597114 </v>
   <v>       0.11473897       0.06121553      -0.00080011 </v>
   <v>      -0.34539179       0.09842051       0.05547466 </v>
   <v>       0.25965029       0.04123586      -0.00186890 </v>
   <v>      -0.45757546      -0.28834727      -0.03862730 </v>
   <v>       0.31313940       0.25752280       0.00175039 </v>
   <v>       0.40562090       0.44866050       0.02305966 </v>
   <v>       0.12402189      -0.54128144      -0.06080184 </v>
   <v>      -0.02679246      -0.05543456      -0.27680790 </v>
   <v>      -0.04932160      -0.06893497       0.44670297 </v>
   <v>       0.03396998      -0.12282513      -0.61695551 </v>
   <v>      -0.00484154      -0.10935282       0.33932140 </v>
   <v>      -0.08566420      -0.02005180      -0.51402590 </v>
   <v>      -0.03705651      -0.02578806       0.65378235 </v>
   <v>      -0.06623613      -0.02611013      -0.68790509 </v>
   <v>       0.14568573       0.00401862       0.65565528 </v>
   <v>       0.01292668      -0.02537992      -0.54582017 </v>
   <v>      -0.02229349      -0.00571214       0.79508245 </v>
   <v>       0.07825430       0.16541283      -0.70900344 </v>
   <v>      -0.01769604       0.13423977       0.46006772 </v>
   <v>       0.12718596      -0.00941624      -0.35052779 </v>
   <v>      -0.03074828      -0.00729672       0.21118365 </v>
   <v>      -0.03592939       0.04823534      -0.42949564 </v>
   <v>       0.07574568       0.02089787       0.43619462 </v>
   <v>      -0.03617051       0.06580797      -0.20859227 </v>
   <v>      -0.00554456       0.03955516       0.31039225 </v>
  </varray>
  <varray name="stress" >
   <v>     -10.17628797      -0.02031675       0.04850775 </v>
   <v>      -0.02031666      -9.83673731      -0.03668451 </v>
   <v>       0.04850755      -0.03668452       6.48210332 </v>
  </varray>
  <energy>
   <i name="e_fr_energy">   -189.74473107 </i>
   <i name="e_wo_entrp">   -189.62845989 </i>
   <i name="e_0_energy">     -0.23254237 </i>
  </energy>
  <time name="totalsc">  379.35  380.36</time>
 </calculation>
 <calculation>
  <scstep>
   <time name="dav">   21.48   21.53</time>
   <time name="total">   22.00   22.06</time>
   <energy>
    <i name="alphaZ">     85.80526961 </i>
    <i name="ewald">  42824.90726671 </i>
    <i name="hartreedc"> -48841.35219253 </i>
    <i name="XCdc">   -232.98325955 </i>
    <i name="pawpsdc">   4038.74824865 </i>
    <i name="pawaedc">  -3454.44185266 </i>
    <i name="eentropy">     -0.19050962 </i>
    <i name="bandstr">  -1373.23529588 </i>
    <i name="atom">   6761.44252427 </i>
    <i name="e_fr_energy">   -191.29980100 </i>
    <i name="e_wo_entrp">   -191.10929139 </i>
    <i name="e_0_energy">   -191.20454620 </i>
   </energy>
  </scstep>
  <scstep>
   <time name="dav">   32.43   32.51</time>
   <time name="total">   32.94   33.03</time>
   <energy>
    <i name="e_fr_energy">   -191.10602845 </i>
    <i name="e_wo_entrp">   -190.91685338 </i>
    <i name="e_0_energy">   -191.01144092 </i>
   </energy>
  </scstep>
  <scstep>
   <time name="dav">   29.75   29.83</time>
   <time name="total">   30.27   30.35</time>
   <energy>
    <i name="e_fr_energy">   -191.30631875 </i>
    <i name="e_wo_entrp">   -191.09145153 </i>
    <i name="e_0_energy">   -191.19888514 </i>
   </energy>
  </scstep>
  <scstep>
   <time name="dav">   29.14   29.21</time>
   <time name="total">   29.65   29.73</time>
   <energy>
    <i name="e_fr_energy">   -190.89878319 </i>
    <i name="e_wo_entrp">   -190.70010017 </i>
    <i name="e_0_energy">   -190.79944168 </i>
   </energy>
  </scstep>
  <scstep>
   <time name="dav">   27.21   27.27</time>
   <time name="total">   27.72   27.80</time>
   <energy>
    <i name="e_fr_energy">   -190.90379386 </i>
    <i name="e_wo_entrp">   -190.72036515 </i>
    <i name="e_0_energy">   -190.81207951 </i>
   </energy>
  </scstep>
  <scstep>
   <time name="dav">   28.08   28.15</time>
   <time name="total">   28.60   28.67</time>
   <energy>
    <i name="e_fr_energy">   -190.72901945 </i>
    <i name="e_wo_entrp">   -190.53369025 </i>
    <i name="e_0_energy">   -190.63135485 </i>
   </energy>
  </scstep>
  <scstep>
   <time name="dav">   30.19   30.26</time>
   <time name="total">   30.70   30.78</time>
   <energy>
    <i name="e_fr_energy">   -190.73172198 </i>
    <i name="e_wo_entrp">   -190.53661541 </i>
    <i name="e_0_energy">   -190.63416869 </i>
   </energy>
  </scstep>
  <scstep>
   <time name="dav">   28.73   28.80</time>
   <time name="total">   29.25   29.33</time>
   <energy>
    <i name="e_fr_energy">   -190.72834181 </i>
    <i name="e_wo_entrp">   -190.53352238 </i>
    <i name="e_0_energy">   -190.63093209 </i>
   </energy>
  </scstep>
  <scstep>
   <time name="dav">   28.05   28.11</time>
   <time name="total">   28.57   28.64</time>
   <energy>
    <i name="e_fr_energy">   -190.72533230 </i>
    <i name="e_wo_entrp">   -190.53032757 </i>
    <i name="e_0_energy">   -190.62782993 </i>
   </energy>
  </scstep>
  <scstep>
   <time name="dav">   25.40   25.46</time>
   <time name="total">   25.91   25.98</time>
   <energy>
    <i name="e_fr_energy">   -190.72565135 </i>
    <i name="e_wo_entrp">   -190.53054025 </i>
    <i name="e_0_energy">   -190.62809580 </i>
   </energy>
  </scstep>
  <scstep>
   <time name="dav">   25.06   25.12</time>
   <time name="total">   25.58   25.65</time>
   <energy>
    <i name="e_fr_energy">   -190.72549987 </i>
    <i name="e_wo_entrp">   -190.53035726 </i>
    <i name="e_0_energy">   -190.62792856 </i>
   </energy>
  </scstep>
  <scstep>
   <time name="dav">   19.52   19.57</time>
   <time name="total">   19.56   19.61</time>
   <energy>
    <i name="alphaZ">     85.80526961 </i>
    <i name="ewald">  42824.90726671 </i>
    <i name="hartreedc"> -48812.89568628 </i>
    <i name="XCdc">   -234.30870816 </i>
    <i name="pawpsdc">   4063.06306580 </i>
    <i name="pawaedc">  -3478.92577002 </i>
    <i name="eentropy">     -0.19520296 </i>
    <i name="bandstr">  -1399.61825732 </i>
    <i name="atom">   6761.44252427 </i>
    <i name="e_fr_energy">   -190.72549834 </i>
    <i name="e_wo_entrp">   -190.53029538 </i>
    <i name="e_0_energy">   -190.62789686 </i>
   </energy>
  </scstep>
  <structure>
   <crystal>
    <varray name="basis" >
     <v>       8.48748542       4.90111732       0.00000000 </v>
     <v>      -8.48598803       4.89854983       0.00000000 </v>
     <v>       0.00000000       0.00000000      30.00000000 </v>
    </varray>
    <i name="volume">   2495.01579456 </i>
    <varray name="rec_basis" >
     <v>       0.05890003       0.10203528       0.00000000 </v>
     <v>      -0.05893090       0.10205329       0.00000000 </v>
     <v>       0.00000000       0.00000000       0.03333333 </v>
    </varray>
   </crystal>
   <varray name="positions" >
    <v>       0.99932154       0.33496832       0.00024271 </v>
    <v>       0.66264352       0.00062862      -0.00001750 </v>
    <v>       0.00160335       0.00036222       0.00005547 </v>
    <v>       0.33256107       0.67045090       0.00000283 </v>
    <v>       0.33625688      -0.00107200      -0.00018766 </v>
    <v>       0.66097669       0.33175150      -0.00002188 </v>
    <v>       0.00521761       0.66724029      -0.00022346 </v>
    <v>       0.33977565       0.33481000       0.00026858 </v>
    <v>       0.66151290       0.66084945      -0.00003973 </v>
    <v>       0.10676280       0.22021666       0.95228529 </v>
    <v>       0.21728479       0.10950261       0.04932299 </v>
    <v>       0.10755252       0.55030412       0.95010550 </v>
    <v>       0.21714827       0.44080793       0.04901621 </v>
    <v>       0.10760820       0.89052286       0.95051828 </v>
    <v>       0.22084813       0.77728357       0.05111564 </v>
    <v>       0.44331181       0.22243340       0.94878109 </v>
    <v>       0.55869954       0.10805425       0.04989631 </v>
    <v>       0.44447342       0.55490760       0.94914901 </v>
    <v>       0.55491164       0.44480968       0.05164786 </v>
    <v>       0.45044918       0.89195521       0.94987019 </v>
    <v>       0.55918426       0.78294329       0.04940442 </v>
    <v>       0.78039435       0.21922760       0.95201401 </v>
    <v>       0.88878833       0.11098201       0.04649185 </v>
    <v>       0.77852536       0.55684150       0.94954290 </v>
    <v>       0.89202918       0.44253349       0.04927150 </v>
    <v>       0.77963517       0.89311300       0.95248141 </v>
    <v>       0.89073829       0.78178638       0.04900608 </v>
   </varray>
  </structure>
  <varray name="forces" >
   <v>      -0.14821157       0.09980039       0.01939278 </v>
   <v>      -0.25005495      -0.14716338      -0.02423552 </v>
   <v>       0.09697228       0.06406354      -0.02045007 </v>
   <v>      -0.43479054       0.07317307       0.02343671 </v>
   <v>       0.24449891      -0.05164642       0.03202949 </v>
   <v>      -0.61122905      -0.28918759      -0.01909837 </v>
   <v>       0.33721620       0.37357945       0.03449773 </v>
   <v>       0.47823411       0.50218195      -0.02424130 </v>
   <v>       0.20520800      -0.61962304      -0.03328394 </v>
   <v>       0.01699696       0.03786657      -0.14402617 </v>
   <v>       0.01987426       0.02361348       0.27525350 </v>
   <v>       0.04909199      -0.02701587      -0.46149675 </v>
   <v>       0.02456019      -0.00212397       0.18001623 </v>
   <v>       0.01748460       0.02628982      -0.37419271 </v>
   <v>      -0.01759618       0.04596203       0.50096315 </v>
   <v>       0.01146729      -0.06724575      -0.51652856 </v>
   <v>       0.03246796       0.01372252       0.43673120 </v>
   <v>      -0.07051260      -0.05685445      -0.35592541 </v>
   <v>       0.02611466      -0.00317575       0.72024771 </v>
   <v>       0.03211673       0.07133956      -0.52923327 </v>
   <v>      -0.01704097       0.04526260       0.26915870 </v>
   <v>      -0.01894933      -0.02181644      -0.23308647 </v>
   <v>      -0.03999182      -0.01826446       0.21955670 </v>
   <v>       0.03534526       0.01680417      -0.25475191 </v>
   <v>      -0.01760342      -0.03521907       0.23318889 </v>
   <v>      -0.01316675      -0.03037838      -0.09395794 </v>
   <v>       0.01149779      -0.02394459       0.14003559 </v>
  </varray>
  <varray name="stress" >
   <v>      -5.85474127       0.11723683      -0.03451384 </v>
   <v>       0.11723692      -5.86695190       0.10107009 </v>
   <v>      -0.03451382       0.10107023       4.52302228 </v>
  </varray>
  <energy>
   <i name="e_fr_energy">   -190.72549834 </i>
   <i name="e_wo_entrp">   -190.62789686 </i>
   <i name="e_0_energy">     -0.19520296 </i>
  </energy>
  <time name="totalsc">  372.29  373.28</time>
 </calculation>
 <calculation>
  <scstep>
   <time name="dav">   21.46   21.52</time>
   <time name="total">   21.98   22.03</time>
   <energy>
    <i name="alphaZ">     90.27188200 </i>
    <i name="ewald">  44714.63078889 </i>
    <i name="hartreedc"> -50758.79393140 </i>
    <i name="XCdc">   -231.75155529 </i>
    <i name="pawpsdc">   4063.01082301 </i>
    <i name="pawaedc">  -3478.87017456 </i>
    <i name="eentropy">     -0.17685421 </i>
    <i name="bandstr">  -1351.96336526 </i>
    <i name="atom">   6761.44252427 </i>
    <i name="e_fr_energy">   -192.19986254 </i>
    <i name="e_wo_entrp">   -192.02300833 </i>
    <i name="e_0_energy">   -192.11143544 </i>
   </energy>
  </scstep>
  <scstep>
   <time name="dav">   27.20   27.27</time>
   <time name="total">   27.70   27.78</time>
   <energy>
    <i name="e_fr_energy">   -191.89692082 </i>
    <i name="e_wo_entrp">   -191.70419124 </i>
    <i name="e_0_energy">   -191.80055603 </i>
   </energy>
  </scstep>
  <scstep>
   <time name="dav">   29.72   29.80</time>
   <time name="total">   30.23   30.33</time>
   <energy>
    <i name="e_fr_energy">   -192.37338561 </i>
    <i name="e_wo_entrp">   -192.18928718 </i>
    <i name="e_0_energy">   -192.28133640 </i>
   </energy>
  </scstep>
  <scstep>
   <time name="dav">   28.41   28.48</time>
   <time name="total">   28.91   28.99</time>
   <energy>
    <i name="e_fr_energy">   -191.68812497 </i>
    <i name="e_wo_entrp">   -191.50744541 </i>
    <i name="e_0_energy">   -191.59778519 </i>
   </energy>
  </scstep>
  <scstep>
   <time name="dav">   29.73   29.80</time>
   <time name="total">   30.23   30.31</time>
   <energy>
    <i name="e_fr_energy">   -191.63369631 </i>
    <i name="e_wo_entrp">   -191.43707707 </i>
    <i name="e_0_energy">   -191.53538669 </i>
   </energy>
  </scstep>
  <scstep>
   <time name="dav">   29.97   30.04</time>
   <time name="total">   30.47   30.55</time>
   <energy>
    <i name="e_fr_energy">   -191.47613058 </i>
    <i name="e_wo_entrp">   -191.29101497 </i>
    <i name="e_0_energy">   -191.38357278 </i>
   </energy>
  </scstep>
  <scstep>
   <time name="dav">   30.36   30.44</time>
   <time name="total">   30.87   30.96</time>
   <energy>
    <i name="e_fr_energy">   -191.46490996 </i>
    <i name="e_wo_entrp">   -191.28231964 </i>
    <i name="e_0_energy">   -191.37361480 </i>
   </energy>
  </scstep>
  <scstep>
   <time name="dav">   29.85   29.92</time>
   <time name="total">   30.35   30.43</time>
   <energy>
    <i name="e_fr_energy">   -191.44872528 </i>
    <i name="e_wo_entrp">   -191.26213993 </i>
    <i name="e_0_energy">   -191.35543261 </i>
   </energy>
  </scstep>
  <scstep>
   <time name="dav">   28.04   28.10</time>
   <time name="total">   28.54   28.62</time>
   <energy>
    <i name="e_fr_energy">   -191.44592054 </i>
    <i name="e_wo_entrp">   -191.26033229 </i>
    <i name="e_0_energy">   -191.35312642 </i>
   </energy>
  </scstep>
  <scstep>
   <time name="dav">   28.50   28.57</time>
   <time name="total">   29.01   29.08</time>
   <energy>
    <i name="e_fr_energy">   -191.44605574 </i>
    <i name="e_wo_entrp">   -191.25992486 </i>
    <i name="e_0_energy">   -191.35299030 </i>
   </energy>
  </scstep>
  <scstep>
   <time name="dav">   26.46   26.52</time>
   <time name="total">   26.49   26.57</time>
   <energy>
    <i name="alphaZ">     90.27188200 </i>
    <i name="ewald">  44714.63078889 </i>
    <i name="hartreedc"> -50723.97639593 </i>
    <i name="XCdc">   -233.29702610 </i>
    <i name="pawpsdc">   4087.96276447 </i>
    <i name="pawaedc">  -3503.94973598 </i>
    <i name="eentropy">     -0.18614178 </i>
    <i name="bandstr">  -1384.34463311 </i>
    <i name="atom">   6761.44252427 </i>
    <i name="e_fr_energy">   -191.44597327 </i>
    <i name="e_wo_entrp">   -191.25983149 </i>
    <i name="e_0_energy">   -191.35290238 </i>
   </energy>
  </scstep>
  <structure>
   <crystal>
    <varray name="basis" >
     <v>       8.27818982       4.78366840       0.00000000 </v>
     <v>      -8.27043257       4.77025914       0.00000000 </v>
     <v>       0.00000000       0.00000000      30.00000000 </v>
    </varray>
    <i name="volume">   2371.56352768 </i>
    <varray name="rec_basis" >
     <v>       0.06034322       0.10462000       0.00000000 </v>
     <v>      -0.06051284       0.10471813       0.00000000 </v>
     <v>       0.00000000       0.00000000       0.03333333 </v>
    </varray>
   </crystal>
   <varray name="positions" >
    <v>       0.99957860       0.33747572       0.00033607 </v>
    <v>       0.65884375       0.00048197      -0.00011735 </v>
    <v>       0.00312925       0.00031562      -0.00002739 </v>
    <v>       0.33038135       0.67439599       0.00012858 </v>
    <v>       0.33740970      -0.00341143      -0.00004731 </v>
    <v>       0.65300760       0.33264856      -0.00011236 </v>
    <v>       0.01207524       0.66934281      -0.00006229 </v>
    <v>       0.34961449       0.33779018       0.00016295 </v>
    <v>       0.65524864       0.65156771      -0.00020318 </v>
    <v>       0.10668352       0.22023112       0.95119840 </v>
    <v>       0.21713990       0.10915204       0.05101644 </v>
    <v>       0.10743024       0.54903669       0.94764272 </v>
    <v>       0.21672482       0.44047810       0.05030328 </v>
    <v>       0.10791739       0.89116705       0.94843516 </v>
    <v>       0.22141882       0.77804567       0.05377098 </v>
    <v>       0.44265887       0.22150425       0.94604876 </v>
    <v>       0.55932091       0.10775480       0.05226539 </v>
    <v>       0.44321731       0.55478494       0.94706345 </v>
    <v>       0.55517035       0.44450488       0.05519655 </v>
    <v>       0.45206097       0.89286101       0.94712916 </v>
    <v>       0.55977111       0.78417046       0.05108368 </v>
    <v>       0.78027367       0.21886785       0.95057880 </v>
    <v>       0.88828364       0.11103935       0.04777738 </v>
    <v>       0.77887075       0.55667300       0.94788781 </v>
    <v>       0.89159471       0.44183876       0.05079383 </v>
    <v>       0.77954605       0.89351727       0.95160794 </v>
    <v>       0.89084280       0.78198008       0.05014247 </v>
   </varray>
  </structure>
  <varray name="forces" >
   <v>      -0.04400468       0.02228427       0.03669018 </v>
   <v>      -0.14438074      -0.01566357       0.01008861 </v>
   <v>      -0.02040763       0.11057096       0.01428218 </v>
   <v>      -0.37764186       0.01965155      -0.04289535 </v>
   <v>       0.11244477      -0.19449605      -0.00351738 </v>
   <v>      -0.37681826      -0.16403440       0.01887973 </v>
   <v>       0.23432092       0.46694513       0.02287120 </v>
   <v>       0.29639971       0.18052720      -0.05400168 </v>
   <v>       0.19478724      -0.40369448       0.04865048 </v>
   <v>       0.09336892       0.19841452       0.07137765 </v>
   <v>       0.05790053       0.14541301      -0.00836948 </v>
   <v>       0.00349105       0.09132738      -0.14554525 </v>
   <v>       0.13027550       0.13535714      -0.15217853 </v>
   <v>       0.12948162       0.03163891      -0.09747285 </v>
   <v>       0.00571133       0.10892369       0.32506746 </v>
   <v>       0.07587597      -0.14125609      -0.21314311 </v>
   <v>      -0.09855949       0.03511414       0.05393462 </v>
   <v>      -0.15061563      -0.08956096      -0.07080906 </v>
   <v>       0.04629641      -0.00644012       0.45740173 </v>
   <v>      -0.02971382      -0.04066195      -0.15609378 </v>
   <v>       0.04147898      -0.08371536      -0.07753391 </v>
   <v>      -0.23936739      -0.01962350       0.03071558 </v>
   <v>      -0.03615035      -0.01255305       0.01488446 </v>
   <v>       0.11211895       0.02681079       0.07329132 </v>
   <v>      -0.15437496      -0.06091103      -0.13812360 </v>
   <v>       0.07225371      -0.21883132       0.13371285 </v>
   <v>       0.06582917      -0.12153683      -0.15216407 </v>
  </varray>
  <varray name="stress" >
   <v>       0.37498857       0.22917435      -0.01182638 </v>
   <v>       0.22917430       0.28048290       0.33230386 </v>
   <v>      -0.01182642       0.33230370      -0.23919111 </v>
  </varray>
  <energy>
   <i name="e_fr_energy">   -191.44597327 </i>
   <i name="e_wo_entrp">   -191.35290238 </i>
   <i name="e_0_energy">     -0.18614178 </i>
  </energy>
  <time name="totalsc">  356.22  357.17</time>
 </calculation>
 <calculation>
  <scstep>
   <time name="dav">   21.48   21.53</time>
   <time name="total">   21.98   22.04</time>
   <energy>
    <i name="alphaZ">     90.04983019 </i>
    <i name="ewald">  44592.53267469 </i>
    <i name="hartreedc"> -50600.28041830 </i>
    <i name="XCdc">   -233.54220541 </i>
    <i name="pawpsdc">   4088.43726783 </i>
    <i name="pawaedc">  -3504.42274462 </i>
    <i name="eentropy">     -0.18781139 </i>
    <i name="bandstr">  -1385.54829652 </i>
    <i name="atom">   6761.44252427 </i>
    <i name="e_fr_energy">   -191.51917925 </i>
    <i name="e_wo_entrp">   -191.33136786 </i>
    <i name="e_0_energy">   -191.42527355 </i>
   </energy>
  </scstep>
  <scstep>
   <time name="dav">   31.74   31.82</time>
   <time name="total">   32.25   32.33</time>
   <energy>
    <i name="e_fr_energy">   -191.59302052 </i>
    <i name="e_wo_entrp">   -191.39379056 </i>
    <i name="e_0_energy">   -191.49340554 </i>
   </energy>
  </scstep>
  <scstep>
   <time name="dav">   30.60   30.67</time>
   <time name="total">   31.10   31.18</time>
   <energy>
    <i name="e_fr_energy">   -191.52804821 </i>
    <i name="e_wo_entrp">   -191.33921262 </i>
    <i name="e_0_energy">   -191.43363042 </i>
   </energy>
  </scstep>
  <scstep>
   <time name="dav">   28.36   28.43</time>
   <time name="total">   28.87   28.95</time>
   <energy>
    <i name="e_fr_energy">   -191.53061631 </i>
    <i name="e_wo_entrp">   -191.33956632 </i>
    <i name="e_0_energy">   -191.43509131 </i>
   </energy>
  </scstep>
  <scstep>
   <time name="dav">   26.93   26.99</time>
   <time name="total">   27.43   27.50</time>
   <energy>
    <i name="e_fr_energy">   -191.52640019 </i>
    <i name="e_wo_entrp">   -191.33645013 </i>
    <i name="e_0_energy">   -191.43142516 </i>
   </energy>
  </scstep>
  <scstep>
   <time name="dav">   28.12   28.19</time>
   <time name="total">   28.63   28.71</time>
   <energy>
    <i name="e_fr_energy">   -191.52670851 </i>
    <i name="e_wo_entrp">   -191.33672327 </i>
    <i name="e_0_energy">   -191.43171589 </i>
   </energy>
  </scstep>
  <scstep>
   <time name="dav">   28.07   28.14</time>
   <time name="total">   28.58   28.65</time>
   <energy>
    <i name="e_fr_energy">   -191.52634898 </i>
    <i name="e_wo_entrp">   -191.33659765 </i>
    <i name="e_0_energy">   -191.43147332 </i>
   </energy>
  </scstep>
  <scstep>
   <time name="dav">   25.15   25.21</time>
   <time name="total">   25.66   25.73</time>
   <energy>
    <i name="e_fr_energy">   -191.52579493 </i>
    <i name="e_wo_entrp">   -191.33606088 </i>
    <i name="e_0_energy">   -191.43092791 </i>
   </energy>
  </scstep>
  <scstep>
   <time name="dav">   18.35   18.39</time>
   <time name="total">   18.39   18.44</time>
   <energy>
    <i name="alphaZ">     90.04983019 </i>
    <i name="ewald">  44592.53267469 </i>
    <i name="hartreedc"> -50603.30626179 </i>
    <i name="XCdc">   -233.43167104 </i>
    <i name="pawpsdc">   4084.48731381 </i>
    <i name="pawaedc">  -3500.41703735 </i>
    <i name="eentropy">     -0.18978371 </i>
    <i name="bandstr">  -1382.69338249 </i>
    <i name="atom">   6761.44252427 </i>
    <i name="e_fr_energy">   -191.52579342 </i>
    <i name="e_wo_entrp">   -191.33600971 </i>
    <i name="e_0_energy">   -191.43090156 </i>
   </energy>
  </scstep>
  <structure>
   <crystal>
    <varray name="basis" >
     <v>       8.29207429       4.79366191       0.00000000 </v>
     <v>      -8.27891936       4.77090636       0.00000000 </v>
     <v>       0.00000000       0.00000000      30.00000000 </v>
    </varray>
    <i name="volume">   2377.41151186 </i>
    <varray name="rec_basis" >
     <v>       0.06020295       0.10446975       0.00000000 </v>
     <v>      -0.06049010       0.10463575       0.00000000 </v>
     <v>       0.00000000       0.00000000       0.03333333 </v>
    </varray>
   </crystal>
   <varray name="positions" >
    <v>       0.99955524       0.33763396       0.00038960 </v>
    <v>       0.65847358       0.00081489      -0.00009912 </v>
    <v>       0.00356324       0.00090980      -0.00000321 </v>
    <v>       0.32948514       0.67543756       0.00005874 </v>
    <v>       0.33675277      -0.00460043      -0.00005672 </v>
    <v>       0.65138647       0.33288138      -0.00008067 </v>
    <v>       0.01479387       0.67088704      -0.00003194 </v>
    <v>       0.35103747       0.33775056       0.00008303 </v>
    <v>       0.65401580       0.64933206      -0.00012352 </v>
    <v>       0.10791349       0.22093358       0.95134659 </v>
    <v>       0.21801599       0.10971062       0.05094717 </v>
    <v>       0.10788590       0.54951239       0.94749685 </v>
    <v>       0.21776109       0.44077916       0.05002460 </v>
    <v>       0.10842394       0.89093327       0.94835231 </v>
    <v>       0.22194186       0.77853328       0.05418670 </v>
    <v>       0.44220500       0.22063682       0.94580725 </v>
    <v>       0.55919534       0.10821133       0.05227302 </v>
    <v>       0.44240199       0.55477470       0.94702297 </v>
    <v>       0.55525898       0.44435445       0.05579108 </v>
    <v>       0.45172966       0.89271855       0.94697472 </v>
    <v>       0.55946434       0.78360787       0.05090840 </v>
    <v>       0.77951187       0.21945427       0.95067379 </v>
    <v>       0.88813624       0.11107805       0.04775817 </v>
    <v>       0.77930431       0.55649659       0.94805653 </v>
    <v>       0.89088154       0.44200104       0.05052998 </v>
    <v>       0.77868784       0.89223692       0.95184584 </v>
    <v>       0.89043149       0.78119475       0.04986771 </v>
   </varray>
  </structure>
  <varray name="forces" >
   <v>      -0.03391936      -0.00393852       0.04577610 </v>
   <v>      -0.15887167       0.01929790      -0.01384171 </v>
   <v>      -0.04583170       0.14220109      -0.00243408 </v>
   <v>      -0.40028975       0.03669711      -0.01207218 </v>
   <v>       0.12811117      -0.20330531       0.00894138 </v>
   <v>      -0.36739013      -0.23126540       0.00328045 </v>
   <v>       0.23714404       0.48709969       0.03471794 </v>
   <v>       0.33672397       0.22235487      -0.02027249 </v>
   <v>       0.16315518      -0.44238249      -0.00391929 </v>
   <v>       0.06106192       0.12416395       0.05708479 </v>
   <v>       0.04255723       0.07969040      -0.00125352 </v>
   <v>      -0.00015860       0.06264731      -0.11503076 </v>
   <v>       0.08938391       0.09375924      -0.17592138 </v>
   <v>       0.07501883       0.02513163      -0.09770285 </v>
   <v>       0.01178367       0.08406626       0.28330155 </v>
   <v>       0.06309152      -0.10690691      -0.15103427 </v>
   <v>      -0.06361759       0.00772053       0.03385342 </v>
   <v>      -0.08913136      -0.05413955       0.00476895 </v>
   <v>       0.02517430      -0.04768001       0.31711811 </v>
   <v>      -0.01853136      -0.01088720      -0.12151217 </v>
   <v>       0.03239919      -0.06124011      -0.09556539 </v>
   <v>      -0.16293159      -0.00740534       0.05459066 </v>
   <v>      -0.02465156      -0.00651494      -0.01632684 </v>
   <v>       0.09219890       0.04679105       0.12259739 </v>
   <v>      -0.11447223      -0.01947609      -0.16197611 </v>
   <v>       0.06382057      -0.15642512       0.17835293 </v>
   <v>       0.05817252      -0.08005401      -0.15552063 </v>
  </varray>
  <varray name="stress" >
   <v>      -0.02500729       0.05174972      -0.03049644 </v>
   <v>       0.05174974      -0.13089758       0.13370327 </v>
   <v>      -0.03049649       0.13370338      -1.12944401 </v>
  </varray>
  <energy>
   <i name="e_fr_energy">   -191.52579342 </i>
   <i name="e_wo_entrp">   -191.43090156 </i>
   <i name="e_0_energy">     -0.18978371 </i>
  </energy>
  <time name="totalsc">  284.39  285.14</time>
 </calculation>
 <calculation>
  <scstep>
   <time name="dav">   21.46   21.52</time>
   <time name="total">   21.97   22.03</time>
   <energy>
    <i name="alphaZ">     90.12268858 </i>
    <i name="ewald">  44622.32273992 </i>
    <i name="hartreedc"> -50633.69677509 </i>
    <i name="XCdc">   -233.40199211 </i>
    <i name="pawpsdc">   4084.23670517 </i>
    <i name="pawaedc">  -3500.16336387 </i>
    <i name="eentropy">     -0.18718905 </i>
    <i name="bandstr">  -1382.30148122 </i>
    <i name="atom">   6761.44252427 </i>
    <i name="e_fr_energy">   -191.62614338 </i>
    <i name="e_wo_entrp">   -191.43895433 </i>
    <i name="e_0_energy">   -191.53254886 </i>
   </energy>
  </scstep>
  <scstep>
   <time name="dav">   31.63   31.70</time>
   <time name="total">   32.13   32.21</time>
   <energy>
    <i name="e_fr_energy">   -191.72715883 </i>
    <i name="e_wo_entrp">   -191.51973686 </i>
    <i name="e_0_energy">   -191.62344785 </i>
   </energy>
  </scstep>
  <scstep>
   <time name="dav">   30.43   30.50</time>
   <time name="total">   30.93   31.01</time>
   <energy>
    <i name="e_fr_energy">   -191.64132780 </i>
    <i name="e_wo_entrp">   -191.45259794 </i>
    <i name="e_0_energy">   -191.54696287 </i>
   </energy>
  </scstep>
  <scstep>
   <time name="dav">   29.39   29.46</time>
   <time name="total">   29.89   29.97</time>
   <energy>
    <i name="e_fr_energy">   -191.64825294 </i>
    <i name="e_wo_entrp">   -191.45633583 </i>
    <i name="e_0_energy">   -191.55229439 </i>
   </energy>
  </scstep>
  <scstep>
   <time name="dav">   28.96   29.03</time>
   <time name="total">   29.47   29.55</time>
   <energy>
    <i name="e_fr_energy">   -191.63679273 </i>
    <i name="e_wo_entrp">   -191.44606168 </i>
    <i name="e_0_energy">   -191.54142720 </i>
   </energy>
  </scstep>
  <scstep>
   <time name="dav">   27.99   28.06</time>
   <time name="total">   28.50   28.57</time>
   <energy>
    <i name="e_fr_energy">   -191.63828224 </i>
    <i name="e_wo_entrp">   -191.44678111 </i>
    <i name="e_0_energy">   -191.54253168 </i>
   </energy>
  </scstep>
  <scstep>
   <time name="dav">   28.65   28.72</time>
   <time name="total">   29.16   29.24</time>
   <energy>
    <i name="e_fr_energy">   -191.63672896 </i>
    <i name="e_wo_entrp">   -191.44527119 </i>
    <i name="e_0_energy">   -191.54100008 </i>
   </energy>
  </scstep>
  <scstep>
   <time name="dav">   26.01   26.08</time>
   <time name="total">   26.52   26.59</time>
   <energy>
    <i name="e_fr_energy">   -191.63579014 </i>
    <i name="e_wo_entrp">   -191.44450261 </i>
    <i name="e_0_energy">   -191.54014637 </i>
   </energy>
  </scstep>
  <scstep>
   <time name="dav">   20.52   20.57</time>
   <time name="total">   20.56   20.62</time>
   <energy>
    <i name="alphaZ">     90.12268858 </i>
    <i name="ewald">  44622.32273992 </i>
    <i name="hartreedc"> -50634.18376952 </i>
    <i name="XCdc">   -233.36611345 </i>
[...]
      <set comment="kpoint 31">
       <r>  -17.4917    1.0000 </r>
       <r>  -17.3064    1.0000 </r>
       <r>  -16.9154    1.0000 </r>
       <r>  -16.6502    1.0000 </r>
       <r>  -16.5018    1.0000 </r>
       <r>  -16.4598    1.0000 </r>
       <r>  -16.2681    1.0000 </r>
       <r>  -16.1979    1.0000 </r>
       <r>  -16.1470    1.0000 </r>
       <r>  -16.0740    1.0000 </r>
       <r>  -15.9212    1.0000 </r>
       <r>  -15.8645    1.0000 </r>
       <r>  -15.7221    1.0000 </r>
       <r>  -15.6838    1.0000 </r>
       <r>  -15.6218    1.0000 </r>
       <r>  -15.5089    1.0000 </r>
       <r>  -15.4224    1.0000 </r>
       <r>  -15.2778    1.0000 </r>
       <r>   -9.7137    1.0000 </r>
       <r>   -9.4624    1.0000 </r>
       <r>   -9.3280    1.0000 </r>
       <r>   -8.8974    1.0000 </r>
       <r>   -8.8571    1.0000 </r>
       <r>   -8.7385    1.0000 </r>
       <r>   -8.6415    1.0000 </r>
       <r>   -8.6156    1.0000 </r>
       <r>   -8.3823    1.0000 </r>
       <r>   -8.2923    1.0000 </r>
       <r>   -8.2370    1.0000 </r>
       <r>   -8.2030    1.0000 </r>
       <r>   -8.0930    1.0000 </r>
       <r>   -8.0638    1.0000 </r>
       <r>   -8.0217    1.0000 </r>
       <r>   -7.9181    1.0000 </r>
       <r>   -7.7702    1.0000 </r>
       <r>   -7.7216    1.0000 </r>
       <r>   -7.5718    1.0000 </r>
       <r>   -7.4911    1.0000 </r>
       <r>   -7.3561    1.0000 </r>
       <r>   -7.2802    1.0000 </r>
       <r>   -7.1345    1.0000 </r>
       <r>   -7.0540    1.0000 </r>
       <r>   -7.0058    1.0000 </r>
       <r>   -6.8906    1.0000 </r>
       <r>   -6.8452    1.0000 </r>
       <r>   -6.7426    1.0000 </r>
       <r>   -6.6746    1.0000 </r>
       <r>   -6.5922    1.0000 </r>
       <r>   -6.5645    1.0000 </r>
       <r>   -6.4950    1.0000 </r>
       <r>   -6.4470    1.0000 </r>
       <r>   -6.3645    1.0000 </r>
       <r>   -6.2847    1.0000 </r>
       <r>   -6.1755    1.0000 </r>
       <r>   -6.1154    1.0000 </r>
       <r>   -6.0301    1.0000 </r>
       <r>   -5.9836    1.0000 </r>
       <r>   -5.9265    1.0000 </r>
       <r>   -5.8435    1.0000 </r>
       <r>   -5.7759    1.0000 </r>
       <r>   -5.7081    1.0000 </r>
       <r>   -5.6621    1.0000 </r>
       <r>   -5.5243    1.0000 </r>
       <r>   -5.3803    1.0000 </r>
       <r>   -5.2108    1.0000 </r>
       <r>   -5.1464    1.0000 </r>
       <r>   -5.0980    1.0000 </r>
       <r>   -4.8925    1.0000 </r>
       <r>   -4.7332    1.0000 </r>
       <r>   -4.7236    1.0000 </r>
       <r>   -4.6069    1.0000 </r>
       <r>   -4.4857    1.0000 </r>
       <r>   -4.3764    1.0000 </r>
       <r>   -4.2345    1.0000 </r>
       <r>   -4.1516    1.0000 </r>
       <r>   -4.0110    1.0000 </r>
       <r>   -3.8884    1.0000 </r>
       <r>   -3.6997    0.9956 </r>
       <r>   -3.5710    0.9567 </r>
       <r>   -3.2362    0.2565 </r>
       <r>   -2.9576    0.0043 </r>
       <r>   -2.7598    0.0000 </r>
       <r>   -2.6930    0.0000 </r>
       <r>   -2.5986    0.0000 </r>
       <r>   -2.3834    0.0000 </r>
       <r>   -2.3447    0.0000 </r>
       <r>   -2.2922    0.0000 </r>
       <r>   -2.0851    0.0000 </r>
       <r>   -1.9933    0.0000 </r>
       <r>   -1.8766    0.0000 </r>
       <r>   -1.8180    0.0000 </r>
       <r>   -1.6126    0.0000 </r>
       <r>   -1.4517    0.0000 </r>
       <r>   -1.3074    0.0000 </r>
       <r>   -1.2279    0.0000 </r>
       <r>   -1.1959    0.0000 </r>
       <r>   -1.1045    0.0000 </r>
       <r>   -1.0442    0.0000 </r>
       <r>   -0.9546    0.0000 </r>
       <r>   -0.8828    0.0000 </r>
       <r>   -0.7923    0.0000 </r>
       <r>   -0.6927    0.0000 </r>
       <r>   -0.6565    0.0000 </r>
       <r>   -0.5755    0.0000 </r>
       <r>   -0.4550    0.0000 </r>
       <r>   -0.2711    0.0000 </r>
       <r>   -0.2530    0.0000 </r>
       <r>   -0.0885    0.0000 </r>
       <r>   -0.0449    0.0000 </r>
       <r>    0.1011    0.0000 </r>
       <r>    0.4052    0.0000 </r>
       <r>    0.4762    0.0000 </r>
       <r>    0.8008    0.0000 </r>
       <r>    0.8606    0.0000 </r>
       <r>    1.0352    0.0000 </r>
       <r>    1.2855    0.0000 </r>
       <r>    1.5150    0.0000 </r>
       <r>    2.1326    0.0000 </r>
       <r>    2.2894    0.0000 </r>
       <r>    2.3921    0.0000 </r>
      </set>
      <set comment="kpoint 32">
       <r>  -17.5196    1.0000 </r>
       <r>  -17.2037    1.0000 </r>
       <r>  -17.0420    1.0000 </r>
       <r>  -16.6463    1.0000 </r>
       <r>  -16.4771    1.0000 </r>
       <r>  -16.3692    1.0000 </r>
       <r>  -16.2876    1.0000 </r>
       <r>  -16.2361    1.0000 </r>
       <r>  -16.1325    1.0000 </r>
       <r>  -16.0454    1.0000 </r>
       <r>  -15.9719    1.0000 </r>
       <r>  -15.8931    1.0000 </r>
       <r>  -15.7240    1.0000 </r>
       <r>  -15.6786    1.0000 </r>
       <r>  -15.5943    1.0000 </r>
       <r>  -15.5105    1.0000 </r>
       <r>  -15.4423    1.0000 </r>
       <r>  -15.2600    1.0000 </r>
       <r>   -9.6383    1.0000 </r>
       <r>   -9.5923    1.0000 </r>
       <r>   -9.3681    1.0000 </r>
       <r>   -8.9315    1.0000 </r>
       <r>   -8.7655    1.0000 </r>
       <r>   -8.6558    1.0000 </r>
       <r>   -8.6337    1.0000 </r>
       <r>   -8.4853    1.0000 </r>
       <r>   -8.3806    1.0000 </r>
       <r>   -8.3530    1.0000 </r>
       <r>   -8.2493    1.0000 </r>
       <r>   -8.1787    1.0000 </r>
       <r>   -8.1710    1.0000 </r>
       <r>   -8.0764    1.0000 </r>
       <r>   -8.0420    1.0000 </r>
       <r>   -7.9902    1.0000 </r>
       <r>   -7.7647    1.0000 </r>
       <r>   -7.6881    1.0000 </r>
       <r>   -7.5935    1.0000 </r>
       <r>   -7.4336    1.0000 </r>
       <r>   -7.3265    1.0000 </r>
       <r>   -7.2963    1.0000 </r>
       <r>   -7.1916    1.0000 </r>
       <r>   -7.0734    1.0000 </r>
       <r>   -6.9973    1.0000 </r>
       <r>   -6.8977    1.0000 </r>
       <r>   -6.8509    1.0000 </r>
       <r>   -6.7240    1.0000 </r>
       <r>   -6.6536    1.0000 </r>
       <r>   -6.6208    1.0000 </r>
       <r>   -6.5356    1.0000 </r>
       <r>   -6.4982    1.0000 </r>
       <r>   -6.4438    1.0000 </r>
       <r>   -6.3944    1.0000 </r>
       <r>   -6.2795    1.0000 </r>
       <r>   -6.1898    1.0000 </r>
       <r>   -6.1065    1.0000 </r>
       <r>   -6.0271    1.0000 </r>
       <r>   -5.9819    1.0000 </r>
       <r>   -5.9010    1.0000 </r>
       <r>   -5.8607    1.0000 </r>
       <r>   -5.7638    1.0000 </r>
       <r>   -5.6694    1.0000 </r>
       <r>   -5.6226    1.0000 </r>
       <r>   -5.4935    1.0000 </r>
       <r>   -5.4224    1.0000 </r>
       <r>   -5.3068    1.0000 </r>
       <r>   -5.0936    1.0000 </r>
       <r>   -5.0123    1.0000 </r>
       <r>   -4.9837    1.0000 </r>
       <r>   -4.8881    1.0000 </r>
       <r>   -4.7165    1.0000 </r>
       <r>   -4.5990    1.0000 </r>
       <r>   -4.4364    1.0000 </r>
       <r>   -4.3219    1.0000 </r>
       <r>   -4.2469    1.0000 </r>
       <r>   -4.1222    1.0000 </r>
       <r>   -4.0093    1.0000 </r>
       <r>   -3.8819    1.0000 </r>
       <r>   -3.6495    0.9883 </r>
       <r>   -3.5701    0.9561 </r>
       <r>   -3.2697    0.3381 </r>
       <r>   -2.9440    0.0033 </r>
       <r>   -2.7589    0.0000 </r>
       <r>   -2.6954    0.0000 </r>
       <r>   -2.5641    0.0000 </r>
       <r>   -2.4339    0.0000 </r>
       <r>   -2.3662    0.0000 </r>
       <r>   -2.2676    0.0000 </r>
       <r>   -2.1199    0.0000 </r>
       <r>   -1.9804    0.0000 </r>
       <r>   -1.8829    0.0000 </r>
       <r>   -1.8322    0.0000 </r>
       <r>   -1.5691    0.0000 </r>
       <r>   -1.4848    0.0000 </r>
       <r>   -1.3257    0.0000 </r>
       <r>   -1.2308    0.0000 </r>
       <r>   -1.2025    0.0000 </r>
       <r>   -1.0934    0.0000 </r>
       <r>   -1.0294    0.0000 </r>
       <r>   -0.9373    0.0000 </r>
       <r>   -0.9227    0.0000 </r>
       <r>   -0.7843    0.0000 </r>
       <r>   -0.7136    0.0000 </r>
       <r>   -0.6642    0.0000 </r>
       <r>   -0.5289    0.0000 </r>
       <r>   -0.4296    0.0000 </r>
       <r>   -0.3310    0.0000 </r>
       <r>   -0.2215    0.0000 </r>
       <r>   -0.1567    0.0000 </r>
       <r>   -0.0335    0.0000 </r>
       <r>    0.0997    0.0000 </r>
       <r>    0.4343    0.0000 </r>
       <r>    0.5473    0.0000 </r>
       <r>    0.7729    0.0000 </r>
       <r>    0.9022    0.0000 </r>
       <r>    1.0591    0.0000 </r>
       <r>    1.2781    0.0000 </r>
       <r>    1.4360    0.0000 </r>
       <r>    2.1036    0.0000 </r>
       <r>    2.2554    0.0000 </r>
       <r>    2.5630    0.0000 </r>
      </set>
      <set comment="kpoint 33">
       <r>  -17.5127    1.0000 </r>
       <r>  -17.2626    1.0000 </r>
       <r>  -16.9378    1.0000 </r>
       <r>  -16.6440    1.0000 </r>
       <r>  -16.5434    1.0000 </r>
       <r>  -16.4127    1.0000 </r>
       <r>  -16.3429    1.0000 </r>
       <r>  -16.2124    1.0000 </r>
       <r>  -16.0500    1.0000 </r>
       <r>  -15.9983    1.0000 </r>
       <r>  -15.9615    1.0000 </r>
       <r>  -15.9077    1.0000 </r>
       <r>  -15.7507    1.0000 </r>
       <r>  -15.6796    1.0000 </r>
       <r>  -15.5850    1.0000 </r>
       <r>  -15.5247    1.0000 </r>
       <r>  -15.4617    1.0000 </r>
       <r>  -15.2467    1.0000 </r>
       <r>   -9.7422    1.0000 </r>
       <r>   -9.4624    1.0000 </r>
       <r>   -9.2917    1.0000 </r>
       <r>   -9.0070    1.0000 </r>
       <r>   -8.8583    1.0000 </r>
       <r>   -8.7247    1.0000 </r>
       <r>   -8.6351    1.0000 </r>
       <r>   -8.4824    1.0000 </r>
       <r>   -8.4001    1.0000 </r>
       <r>   -8.3067    1.0000 </r>
       <r>   -8.2458    1.0000 </r>
       <r>   -8.1507    1.0000 </r>
       <r>   -8.1355    1.0000 </r>
       <r>   -8.0710    1.0000 </r>
       <r>   -8.0187    1.0000 </r>
       <r>   -7.9158    1.0000 </r>
       <r>   -7.7570    1.0000 </r>
       <r>   -7.7045    1.0000 </r>
       <r>   -7.6098    1.0000 </r>
       <r>   -7.4209    1.0000 </r>
       <r>   -7.3505    1.0000 </r>
       <r>   -7.2526    1.0000 </r>
       <r>   -7.1374    1.0000 </r>
       <r>   -7.0871    1.0000 </r>
       <r>   -7.0089    1.0000 </r>
       <r>   -6.8918    1.0000 </r>
       <r>   -6.8533    1.0000 </r>
       <r>   -6.7962    1.0000 </r>
       <r>   -6.6974    1.0000 </r>
       <r>   -6.6052    1.0000 </r>
       <r>   -6.5241    1.0000 </r>
       <r>   -6.5043    1.0000 </r>
       <r>   -6.4303    1.0000 </r>
       <r>   -6.3569    1.0000 </r>
       <r>   -6.2603    1.0000 </r>
       <r>   -6.1426    1.0000 </r>
       <r>   -6.1132    1.0000 </r>
       <r>   -6.0993    1.0000 </r>
       <r>   -5.9868    1.0000 </r>
       <r>   -5.9296    1.0000 </r>
       <r>   -5.8777    1.0000 </r>
       <r>   -5.7979    1.0000 </r>
       <r>   -5.7343    1.0000 </r>
       <r>   -5.6580    1.0000 </r>
       <r>   -5.5035    1.0000 </r>
       <r>   -5.3469    1.0000 </r>
       <r>   -5.3243    1.0000 </r>
       <r>   -5.1535    1.0000 </r>
       <r>   -5.0776    1.0000 </r>
       <r>   -4.9226    1.0000 </r>
       <r>   -4.8062    1.0000 </r>
       <r>   -4.6930    1.0000 </r>
       <r>   -4.5298    1.0000 </r>
       <r>   -4.4022    1.0000 </r>
       <r>   -4.3147    1.0000 </r>
       <r>   -4.2486    1.0000 </r>
       <r>   -4.1199    1.0000 </r>
       <r>   -4.0216    1.0000 </r>
       <r>   -3.9049    1.0000 </r>
       <r>   -3.6144    0.9783 </r>
       <r>   -3.5625    0.9509 </r>
       <r>   -3.3237    0.4858 </r>
       <r>   -2.8938    0.0011 </r>
       <r>   -2.7717    0.0000 </r>
       <r>   -2.7278    0.0000 </r>
       <r>   -2.5352    0.0000 </r>
       <r>   -2.4800    0.0000 </r>
       <r>   -2.4058    0.0000 </r>
       <r>   -2.2252    0.0000 </r>
       <r>   -2.1618    0.0000 </r>
       <r>   -1.9811    0.0000 </r>
       <r>   -1.8760    0.0000 </r>
       <r>   -1.7545    0.0000 </r>
       <r>   -1.5627    0.0000 </r>
       <r>   -1.4932    0.0000 </r>
       <r>   -1.3255    0.0000 </r>
       <r>   -1.2537    0.0000 </r>
       <r>   -1.2144    0.0000 </r>
       <r>   -1.1071    0.0000 </r>
       <r>   -1.0816    0.0000 </r>
       <r>   -0.9437    0.0000 </r>
       <r>   -0.8592    0.0000 </r>
       <r>   -0.7793    0.0000 </r>
       <r>   -0.7443    0.0000 </r>
       <r>   -0.6697    0.0000 </r>
       <r>   -0.4995    0.0000 </r>
       <r>   -0.4385    0.0000 </r>
       <r>   -0.3981    0.0000 </r>
       <r>   -0.2307    0.0000 </r>
       <r>   -0.1485    0.0000 </r>
       <r>   -0.0859    0.0000 </r>
       <r>    0.1433    0.0000 </r>
       <r>    0.4540    0.0000 </r>
       <r>    0.5896    0.0000 </r>
       <r>    0.7743    0.0000 </r>
       <r>    0.9749    0.0000 </r>
       <r>    1.1150    0.0000 </r>
       <r>    1.2532    0.0000 </r>
       <r>    1.3740    0.0000 </r>
       <r>    2.1339    0.0000 </r>
       <r>    2.2878    0.0000 </r>
       <r>    2.3873    0.0000 </r>
      </set>
      <set comment="kpoint 34">
       <r>  -17.4981    1.0000 </r>
       <r>  -17.3137    1.0000 </r>
       <r>  -16.7918    1.0000 </r>
       <r>  -16.6827    1.0000 </r>
       <r>  -16.6408    1.0000 </r>
       <r>  -16.4357    1.0000 </r>
       <r>  -16.3434    1.0000 </r>
       <r>  -16.2065    1.0000 </r>
       <r>  -16.0346    1.0000 </r>
       <r>  -15.9746    1.0000 </r>
       <r>  -15.9534    1.0000 </r>
       <r>  -15.8515    1.0000 </r>
       <r>  -15.7823    1.0000 </r>
       <r>  -15.6932    1.0000 </r>
       <r>  -15.5956    1.0000 </r>
       <r>  -15.5211    1.0000 </r>
       <r>  -15.4734    1.0000 </r>
       <r>  -15.2422    1.0000 </r>
       <r>   -9.7817    1.0000 </r>
       <r>   -9.3751    1.0000 </r>
       <r>   -9.1670    1.0000 </r>
       <r>   -9.1103    1.0000 </r>
       <r>   -8.9561    1.0000 </r>
       <r>   -8.7874    1.0000 </r>
       <r>   -8.6284    1.0000 </r>
       <r>   -8.5084    1.0000 </r>
       <r>   -8.4188    1.0000 </r>
       <r>   -8.2821    1.0000 </r>
       <r>   -8.2514    1.0000 </r>
       <r>   -8.1267    1.0000 </r>
       <r>   -8.1171    1.0000 </r>
       <r>   -8.0656    1.0000 </r>
       <r>   -7.9308    1.0000 </r>
       <r>   -7.8380    1.0000 </r>
       <r>   -7.8240    1.0000 </r>
       <r>   -7.7410    1.0000 </r>
       <r>   -7.5653    1.0000 </r>
       <r>   -7.4143    1.0000 </r>
       <r>   -7.3172    1.0000 </r>
       <r>   -7.2741    1.0000 </r>
       <r>   -7.1644    1.0000 </r>
       <r>   -7.0541    1.0000 </r>
       <r>   -6.9663    1.0000 </r>
       <r>   -6.9326    1.0000 </r>
       <r>   -6.8980    1.0000 </r>
       <r>   -6.7582    1.0000 </r>
       <r>   -6.7165    1.0000 </r>
       <r>   -6.5804    1.0000 </r>
       <r>   -6.5489    1.0000 </r>
       <r>   -6.5123    1.0000 </r>
       <r>   -6.4345    1.0000 </r>
       <r>   -6.3432    1.0000 </r>
       <r>   -6.2628    1.0000 </r>
       <r>   -6.2134    1.0000 </r>
       <r>   -6.1025    1.0000 </r>
       <r>   -6.0535    1.0000 </r>
       <r>   -5.9739    1.0000 </r>
       <r>   -5.9310    1.0000 </r>
       <r>   -5.8832    1.0000 </r>
       <r>   -5.8658    1.0000 </r>
       <r>   -5.7747    1.0000 </r>
       <r>   -5.6383    1.0000 </r>
       <r>   -5.5127    1.0000 </r>
       <r>   -5.4099    1.0000 </r>
       <r>   -5.3268    1.0000 </r>
       <r>   -5.1008    1.0000 </r>
       <r>   -5.0623    1.0000 </r>
       <r>   -4.9720    1.0000 </r>
       <r>   -4.7566    1.0000 </r>
       <r>   -4.6241    1.0000 </r>
       <r>   -4.4688    1.0000 </r>
       <r>   -4.3898    1.0000 </r>
       <r>   -4.3425    1.0000 </r>
       <r>   -4.2453    1.0000 </r>
       <r>   -4.1293    1.0000 </r>
       <r>   -4.0358    1.0000 </r>
       <r>   -3.9220    1.0000 </r>
       <r>   -3.6094    0.9764 </r>
       <r>   -3.5511    0.9421 </r>
       <r>   -3.3495    0.5585 </r>
       <r>   -2.8384    0.0003 </r>
       <r>   -2.8091    0.0001 </r>
       <r>   -2.7511    0.0000 </r>
       <r>   -2.5249    0.0000 </r>
       <r>   -2.4929    0.0000 </r>
       <r>   -2.4270    0.0000 </r>
       <r>   -2.2042    0.0000 </r>
       <r>   -2.1778    0.0000 </r>
       <r>   -1.9853    0.0000 </r>
       <r>   -1.8633    0.0000 </r>
       <r>   -1.7061    0.0000 </r>
       <r>   -1.5682    0.0000 </r>
       <r>   -1.4847    0.0000 </r>
       <r>   -1.3262    0.0000 </r>
       <r>   -1.2695    0.0000 </r>
       <r>   -1.2301    0.0000 </r>
       <r>   -1.1288    0.0000 </r>
       <r>   -1.0901    0.0000 </r>
       <r>   -0.9444    0.0000 </r>
       <r>   -0.8350    0.0000 </r>
       <r>   -0.7857    0.0000 </r>
       <r>   -0.7350    0.0000 </r>
       <r>   -0.6530    0.0000 </r>
       <r>   -0.5716    0.0000 </r>
       <r>   -0.4357    0.0000 </r>
       <r>   -0.3605    0.0000 </r>
       <r>   -0.2622    0.0000 </r>
       <r>   -0.1774    0.0000 </r>
       <r>   -0.0849    0.0000 </r>
       <r>    0.1696    0.0000 </r>
       <r>    0.4763    0.0000 </r>
       <r>    0.5821    0.0000 </r>
       <r>    0.7822    0.0000 </r>
       <r>    1.0143    0.0000 </r>
       <r>    1.1598    0.0000 </r>
       <r>    1.2296    0.0000 </r>
       <r>    1.3517    0.0000 </r>
       <r>    2.2089    0.0000 </r>
       <r>    2.2478    0.0000 </r>
       <r>    2.3798    0.0000 </r>
      </set>
     </set>
    </set>
   </array>
  </eigenvalues>
  <separator name="orbital magnetization" >
   <v name="MAGDIPOLOUT">      0.00000000      0.00000000      0.00000000</v>
  </separator>
 </calculation>
 <structure name="finalpos" >
  <crystal>
   <varray name="basis" >
    <v>       8.35989444       4.85000402       0.00000000 </v>
    <v>      -8.34033713       4.81590871       0.00000000 </v>
    <v>       0.00000000       0.00000000      30.00000000 </v>
   </varray>
   <i name="volume">   2421.33471204 </i>
   <varray name="rec_basis" >
    <v>       0.05966844       0.10333562       0.00000000 </v>
    <v>      -0.06009087       0.10357793       0.00000000 </v>
    <v>       0.00000000       0.00000000       0.03333333 </v>
   </varray>
  </crystal>
  <varray name="positions" >
   <v>       0.96148923       0.31430241       0.00262527 </v>
   <v>       0.64670548       0.00321852       0.00002190 </v>
   <v>       0.03367613       0.01646418      -0.00179113 </v>
   <v>       0.35037315       0.69852821      -0.00066366 </v>
   <v>       0.33766405       0.00006278      -0.00044045 </v>
   <v>       0.63797188       0.31498491       0.00086661 </v>
   <v>       0.04354835       0.69304738      -0.00176305 </v>
   <v>       0.35113398       0.32286240      -0.00031173 </v>
   <v>       0.62895161       0.63726924       0.00259787 </v>
   <v>       0.10768303       0.22323877       0.95159941 </v>
   <v>       0.22255957       0.11034700       0.05324693 </v>
   <v>       0.11308479       0.55026882       0.94985564 </v>
   <v>       0.21463488       0.44076776       0.04047229 </v>
   <v>       0.11681894       0.89596881       0.94512322 </v>
   <v>       0.23301503       0.78510692       0.05545507 </v>
   <v>       0.44277448       0.21832878       0.94323181 </v>
   <v>       0.55752430       0.10760349       0.05475742 </v>
   <v>       0.43681456       0.54983896       0.94712810 </v>
   <v>       0.54829382       0.43500320       0.05779707 </v>
   <v>       0.45365200       0.89812461       0.94429358 </v>
   <v>       0.56116523       0.78529465       0.05310778 </v>
   <v>       0.77033688       0.21636025       0.94875754 </v>
   <v>       0.88467895       0.10368727       0.04671919 </v>
   <v>       0.78469806       0.55986930       0.95588906 </v>
   <v>       0.88864684       0.45108261       0.04806653 </v>
   <v>       0.77952765       0.88784644       0.95911124 </v>
   <v>       0.89079156       0.77873679       0.04424639 </v>
  </varray>
 </structure>
</modeling>
