unknown system                          
           1
     8.857266    5.107451    0.000000
    -8.854558    5.102792    0.000000
     0.000000    0.000000   30.000000
   V    Mo   W    S 
   3   3   3  18
Direct configuration=     1
   1.00000000  0.33333334  0.00000000
   0.66666669  0.00000000  0.00000000
   0.00000000  0.00000000  0.00000000
   0.33333334  0.66666669  0.00000000
   0.33333334  0.00000000  0.00000000
   0.66666669  0.33333334  0.00000000
   0.00000000  0.66666669  0.00000000
   0.33333334  0.33333334  0.00000000
   0.66666669  0.66666669  0.00000000
   0.11068511  0.22244981  0.95539999
   0.22244981  0.11068511  0.04460000
   0.11068511  0.55578315  0.95539999
   0.22244981  0.44401845  0.04460000
   0.11068511  0.88911647  0.95539999
   0.22244981  0.77735180  0.04460000
   0.44401845  0.22244981  0.95539999
   0.55578315  0.11068511  0.04460000
   0.44401845  0.55578315  0.95539999
   0.55578315  0.44401845  0.04460000
   0.44401845  0.88911647  0.95539999
   0.55578315  0.77735180  0.04460000
   0.77735180  0.22244981  0.95539999
   0.88911647  0.11068511  0.04460000
   0.77735180  0.55578315  0.95539999
   0.88911647  0.44401845  0.04460000
   0.77735180  0.88911647  0.95539999
   0.88911647  0.77735180  0.04460000
unknown system                          
           1
     8.668579    5.001183    0.000000
    -8.665864    4.996511    0.000000
     0.000000    0.000000   30.000000
   V    Mo   W    S 
   3   3   3  18
Direct configuration=     2
   0.99936746  0.33343452  0.00006575
   0.66536045  0.00062389  0.00002628
   0.00058931  0.00043654  0.00006062
   0.33338679  0.66810541 -0.00014687
   0.33478309 -0.00018818 -0.00019094
   0.66538701  0.33187273  0.00008045
   0.00174546  0.66661662 -0.00023913
   0.33428131  0.33305747  0.00021727
   0.66525583  0.66579105  0.00012407
   0.10745511  0.22059413  0.95313448
   0.21815458  0.10993832  0.04801158
   0.10835822  0.55155212  0.95187167
   0.21813678  0.44164378  0.04799133
   0.10814701  0.89017255  0.95200864
   0.22114623  0.77727133  0.04924298
   0.44379075  0.22238195  0.95074460
   0.55796859  0.10871820  0.04803623
   0.44466578  0.55513770  0.95073676
   0.55501288  0.44478711  0.04938984
   0.44870230  0.89096561  0.95187596
   0.55820411  0.78169072  0.04805789
   0.77985469  0.21991143  0.95305612
   0.88899165  0.11090279  0.04582369
   0.77833571  0.55636507  0.95082104
   0.89153468  0.44282251  0.04799282
   0.77921194  0.89228677  0.95315088
   0.89038675  0.78132233  0.04805590
unknown system                          
           1
     8.487485    4.901117    0.000000
    -8.485988    4.898550    0.000000
     0.000000    0.000000   30.000000
   V    Mo   W    S 
   3   3   3  18
Direct configuration=     3
   0.99928157  0.33362492  0.00011083
   0.66485881  0.00070370  0.00002095
   0.00078504  0.00049933  0.00006636
   0.33328044  0.66861432 -0.00012354
   0.33517076 -0.00031598 -0.00020865
   0.66456753  0.33168741  0.00006031
   0.00245007  0.66671130 -0.00026063
   0.33520719  0.33329973  0.00024916
   0.66453985  0.66497324  0.00009795
   0.10760633  0.22065280  0.95322575
   0.21819721  0.11010648  0.04798417
   0.10816659  0.55156445  0.95181793
   0.21815898  0.44145402  0.04791215
   0.10801175  0.88998108  0.95200221
   0.22091662  0.77716828  0.04929774
   0.44362492  0.22249192  0.95067299
   0.55804241  0.10864924  0.04812762
   0.44473913  0.55502336  0.95074050
   0.55488968  0.44486796  0.04949580
   0.44888198  0.89108577  0.95176563
   0.55840964  0.78170501  0.04803804
   0.77989028  0.21983390  0.95310413
   0.88896148  0.11092685  0.04571279
   0.77843785  0.55661904  0.95088244
   0.89167369  0.44300581  0.04796988
   0.77914819  0.89214365  0.95327974
   0.89031644  0.78113686  0.04795768
unknown system                          
           1
     8.278190    4.783668    0.000000
    -8.270433    4.770259    0.000000
     0.000000    0.000000   30.000000
   V    Mo   W    S 
   3   3   3  18
Direct configuration=     4
   0.99932154  0.33496832  0.00024271
   0.66264352  0.00062862 -0.00001750
   0.00160335  0.00036222  0.00005547
   0.33256107  0.67045090  0.00000283
   0.33625688 -0.00107200 -0.00018766
   0.66097669  0.33175150 -0.00002188
   0.00521761  0.66724029 -0.00022346
   0.33977565  0.33481000  0.00026858
   0.66151290  0.66084945 -0.00003973
   0.10676280  0.22021666  0.95228529
   0.21728479  0.10950261  0.04932299
   0.10755252  0.55030412  0.95010550
   0.21714827  0.44080793  0.04901621
   0.10760820  0.89052286  0.95051828
   0.22084813  0.77728357  0.05111564
   0.44331181  0.22243340  0.94878109
   0.55869954  0.10805425  0.04989631
   0.44447342  0.55490760  0.94914901
   0.55491164  0.44480968  0.05164786
   0.45044918  0.89195521  0.94987019
   0.55918426  0.78294329  0.04940442
   0.78039435  0.21922760  0.95201401
   0.88878833  0.11098201  0.04649185
   0.77852536  0.55684150  0.94954290
   0.89202918  0.44253349  0.04927150
   0.77963517  0.89311300  0.95248141
   0.89073829  0.78178638  0.04900608
unknown system                          
           1
     8.292074    4.793662    0.000000
    -8.278919    4.770906    0.000000
     0.000000    0.000000   30.000000
   V    Mo   W    S 
   3   3   3  18
Direct configuration=     5
   0.99957860  0.33747572  0.00033607
   0.65884375  0.00048197 -0.00011735
   0.00312925  0.00031562 -0.00002739
   0.33038135  0.67439599  0.00012858
   0.33740970 -0.00341143 -0.00004731
   0.65300760  0.33264856 -0.00011236
   0.01207524  0.66934281 -0.00006229
   0.34961449  0.33779018  0.00016295
   0.65524864  0.65156771 -0.00020318
   0.10668352  0.22023112  0.95119840
   0.21713990  0.10915204  0.05101644
   0.10743024  0.54903669  0.94764272
   0.21672482  0.44047810  0.05030328
   0.10791739  0.89116705  0.94843516
   0.22141882  0.77804567  0.05377098
   0.44265887  0.22150425  0.94604876
   0.55932091  0.10775480  0.05226539
   0.44321731  0.55478494  0.94706345
   0.55517035  0.44450488  0.05519655
   0.45206097  0.89286101  0.94712916
   0.55977111  0.78417046  0.05108368
   0.78027367  0.21886785  0.95057880
   0.88828364  0.11103935  0.04777738
   0.77887075  0.55667300  0.94788781
   0.89159471  0.44183876  0.05079383
   0.77954605  0.89351727  0.95160794
   0.89084280  0.78198008  0.05014247
unknown system                          
           1
     8.291378    4.792481    0.000000
    -8.276244    4.766306    0.000000
     0.000000    0.000000   30.000000
   V    Mo   W    S 
   3   3   3  18
Direct configuration=     6
   0.99955524  0.33763396  0.00038960
   0.65847358  0.00081489 -0.00009912
   0.00356324  0.00090980 -0.00000321
   0.32948514  0.67543756  0.00005874
   0.33675277 -0.00460043 -0.00005672
   0.65138647  0.33288138 -0.00008067
   0.01479387  0.67088704 -0.00003194
   0.35103747  0.33775056  0.00008303
   0.65401580  0.64933206 -0.00012352
   0.10791349  0.22093358  0.95134659
   0.21801599  0.10971062  0.05094717
   0.10788590  0.54951239  0.94749685
   0.21776109  0.44077916  0.05002460
   0.10842394  0.89093327  0.94835231
   0.22194186  0.77853328  0.05418670
   0.44220500  0.22063682  0.94580725
   0.55919534  0.10821133  0.05227302
   0.44240199  0.55477470  0.94702297
   0.55525898  0.44435445  0.05579108
   0.45172966  0.89271855  0.94697472
   0.55946434  0.78360787  0.05090840
   0.77951187  0.21945427  0.95067379
   0.88813624  0.11107805  0.04775817
   0.77930431  0.55649659  0.94805653
   0.89088154  0.44200104  0.05052998
   0.77868784  0.89223692  0.95184584
   0.89043149  0.78119475  0.04986771
unknown system                          
           1
     8.304662    4.801508    0.000000
    -8.286688    4.770413    0.000000
     0.000000    0.000000   30.000000
   V    Mo   W    S 
   3   3   3  18
Direct configuration=     7
   0.99939010  0.33777125  0.00049545
   0.65791867  0.00161176 -0.00013123
   0.00440890  0.00212228 -0.00000912
   0.32806976  0.67740188  0.00003153
   0.33583007 -0.00661918 -0.00003523
   0.64813393  0.33275833 -0.00007361
   0.01934086  0.67342742  0.00004904
   0.35411489  0.33797483  0.00003478
   0.65145838  0.64538395 -0.00013288
   0.10906331  0.22157678  0.95146627
   0.21876738  0.11010630  0.05096140
   0.10833681  0.54995308  0.94720807
   0.21880522  0.44108056  0.04963464
   0.10892074  0.89080777  0.94810734
   0.22260316  0.77909925  0.05486419
   0.44169012  0.21959182  0.94543254
   0.55899378  0.10853184  0.05237428
   0.44162648  0.55475527  0.94701136
   0.55502655  0.44390458  0.05655594
   0.45158795  0.89272458  0.94666862
   0.55916225  0.78304226  0.05070640
   0.77877894  0.22007830  0.95078407
   0.88798196  0.11113437  0.04773422
   0.78002563  0.55644536  0.94831997
   0.89025875  0.44232875  0.05017414
   0.77782346  0.89084483  0.95224473
   0.89009641  0.78037624  0.04952299
unknown system                          
           1
     8.310510    4.805477    0.000000
    -8.289493    4.769115    0.000000
     0.000000    0.000000   30.000000
   V    Mo   W    S 
   3   3   3  18
Direct configuration=     8
   0.99930184  0.33768990  0.00053598
   0.65789175  0.00202916 -0.00014715
   0.00485501  0.00273620 -0.00001590
   0.32785769  0.67790877  0.00002125
   0.33550637 -0.00713663 -0.00003234
   0.64749423  0.33239070 -0.00006572
   0.02043512  0.67419126  0.00004526
   0.35428996  0.33766940  0.00000472
   0.65091458  0.64468207 -0.00010811
   0.10927007  0.22168262  0.95149978
   0.21883284  0.11012986  0.05096666
   0.10844454  0.55006494  0.94717715
   0.21904841  0.44115731  0.04948033
   0.10898307  0.89080634  0.94805048
   0.22284807  0.77928283  0.05507069
   0.44149705  0.21924349  0.94534913
   0.55893885  0.10855807  0.05238660
   0.44134253  0.55467932  0.94703602
   0.55495044  0.44374016  0.05671223
   0.45158060  0.89273023  0.94661952
   0.55913555  0.78293140  0.05061089
   0.77863814  0.22021773  0.95082616
   0.88797450  0.11116058  0.04770153
   0.78032646  0.55645292  0.94845933
   0.89015969  0.44250051  0.05002419
   0.77763286  0.89048722  0.95241209
   0.89006426  0.78022806  0.04937912
unknown system                          
           1
     8.319517    4.811529    0.000000
    -8.297133    4.772795    0.000000
     0.000000    0.000000   30.000000
   V    Mo   W    S 
   3   3   3  18
Direct configuration=     9
   0.99905169  0.33747970  0.00064065
   0.65776092  0.00302090 -0.00019070
   0.00603073  0.00419100 -0.00003342
   0.32725719  0.67923600  0.00000335
   0.33473283 -0.00839120 -0.00002257
   0.64556833  0.33166819 -0.00005134
   0.02332040  0.67612792  0.00006813
   0.35539218  0.33718948 -0.00002521
   0.64926194  0.64249702 -0.00008465
   0.10977110  0.22193727  0.95157838
   0.21903439  0.11018142  0.05095976
   0.10874499  0.55040107  0.94712342
   0.21965008  0.44135083  0.04910408
   0.10920877  0.89080127  0.94794074
   0.22333024  0.77964130  0.05546806
   0.44111432  0.21850607  0.94519356
   0.55875005  0.10859521  0.05240559
   0.44080090  0.55452578  0.94714201
   0.55466608  0.44328239  0.05700628
   0.45152175  0.89275081  0.94652156
   0.55904948  0.78264237  0.05038052
   0.77829024  0.22054554  0.95092367
   0.88794561  0.11120701  0.04761803
   0.78092128  0.55644593  0.94882141
   0.88989982  0.44290106  0.04965895
   0.77719338  0.88964039  0.95283519
   0.88994577  0.77983975  0.04901446
unknown system                          
           1
     8.329564    4.819333    0.000000
    -8.304245    4.775508    0.000000
     0.000000    0.000000   30.000000
   V    Mo   W    S 
   3   3   3  18
Direct configuration=    10
   0.99891171  0.33737961  0.00069230
   0.65770468  0.00354286 -0.00021606
   0.00670743  0.00496897 -0.00004899
   0.32712174  0.67976499 -0.00000338
   0.33447667 -0.00882295 -0.00001864
   0.64486462  0.33120605 -0.00004339
   0.02438010  0.67685747  0.00006721
   0.35557687  0.33682274 -0.00004627
   0.64858655  0.64171359 -0.00006670
   0.10994022  0.22205452  0.95157363
   0.21908324  0.11016046  0.05100278
   0.10887124  0.55051832  0.94709546
   0.21987745  0.44142393  0.04895093
   0.10930493  0.89084364  0.94786327
   0.22356763  0.77980881  0.05566208
   0.44093438  0.21816021  0.94510141
   0.55866505  0.10857258  0.05244406
   0.44052052  0.55442129  0.94716501
   0.55452386  0.44303995  0.05714501
   0.45153526  0.89278647  0.94646466
   0.55905075  0.78256640  0.05029768
   0.77817822  0.22067468  0.95093779
   0.88792606  0.11123554  0.04760068
   0.78120660  0.55644174  0.94897771
   0.88979196  0.44307881  0.04951303
   0.77701419  0.88929969  0.95302434
   0.88989253  0.77969409  0.04886428
unknown system                          
           1
     8.338333    4.824817    0.000000
    -8.311972    4.779188    0.000000
     0.000000    0.000000   30.000000
   V    Mo   W    S 
   3   3   3  18
Direct configuration=    11
   0.99845183  0.33709707  0.00085328
   0.65749738  0.00510177 -0.00029384
   0.00875686  0.00729468 -0.00009845
   0.32689423  0.68118465 -0.00001285
   0.33398823 -0.00986000 -0.00000944
   0.64295509  0.32985743 -0.00002383
   0.02715343  0.67871560  0.00006282
   0.35610047  0.33582507 -0.00008015
   0.64661740  0.63952830 -0.00001534
   0.11032794  0.22237029  0.95157254
   0.21919936  0.11008453  0.05109235
   0.10924954  0.55090711  0.94711471
   0.22044792  0.44163224  0.04847207
   0.10957873  0.89090604  0.94772496
   0.22413020  0.78016378  0.05604163
   0.44051508  0.21732785  0.94494393
   0.55842151  0.10845527  0.05250355
   0.43982746  0.55406283  0.94730619
   0.55404431  0.44230839  0.05735501
   0.45154913  0.89286305  0.94639253
   0.55908373  0.78240025  0.05001461
   0.77789674  0.22096301  0.95100898
   0.88786799  0.11135826  0.04750315
   0.78187727  0.55639506  0.94949747
   0.88954302  0.44360106  0.04906891
   0.77651424  0.88838628  0.95361993
   0.88972538  0.77928458  0.04838518
unknown system                          
           1
     8.345085    4.830169    0.000000
    -8.316784    4.781173    0.000000
     0.000000    0.000000   30.000000
   V    Mo   W    S 
   3   3   3  18
Direct configuration=    12
   0.99822901  0.33690246  0.00092091
   0.65745228  0.00580560 -0.00033335
   0.00992062  0.00838326 -0.00013133
   0.32697180  0.68169531 -0.00001532
   0.33373178 -0.01008897 -0.00000571
   0.64234381  0.32918838 -0.00001723
   0.02802766  0.67946927  0.00005009
   0.35591438  0.33514732 -0.00009972
   0.64587515  0.63885022  0.00001181
   0.11039664  0.22245097  0.95153063
   0.21916406  0.10997382  0.05116731
   0.10939860  0.55100763  0.94710694
   0.22064507  0.44169295  0.04830815
   0.10968440  0.89099707  0.94766440
   0.22436141  0.78032193  0.05619567
   0.44034016  0.21697164  0.94485652
   0.55829595  0.10837138  0.05258102
   0.43951638  0.55385380  0.94732742
   0.55382148  0.44196015  0.05745143
   0.45159513  0.89292166  0.94633669
   0.55915092  0.78239361  0.04994232
   0.77784537  0.22107715  0.95098142
   0.88786916  0.11138078  0.04747834
   0.78214329  0.55636093  0.94969290
   0.88942970  0.44381562  0.04893168
   0.77641766  0.88809563  0.95387863
   0.88967259  0.77921487  0.04818830
unknown system                          
           1
     8.349269    4.833396    0.000000
    -8.320717    4.783960    0.000000
     0.000000    0.000000   30.000000
   V    Mo   W    S 
   3   3   3  18
Direct configuration=    13
   0.99767233  0.33649499  0.00109748
   0.65733304  0.00744044 -0.00042035
   0.01266619  0.01091708 -0.00020690
   0.32711805  0.68285919 -0.00002058
   0.33323488 -0.01059159  0.00000125
   0.64086168  0.32774094  0.00001188
   0.03007891  0.68107257  0.00002706
   0.35575016  0.33373951 -0.00012547
   0.64400537  0.63710542  0.00006969
   0.11053878  0.22263770  0.95145197
   0.21910262  0.10973878  0.05133009
   0.10975833  0.55133639  0.94716906
   0.22107393  0.44184027  0.04787962
   0.10994119  0.89117000  0.94754779
   0.22483632  0.78061471  0.05644659
   0.43999181  0.21623707  0.94471436
   0.55799978  0.10817989  0.05270555
   0.43886448  0.55333227  0.94744278
   0.55324772  0.44113008  0.05755902
   0.45162844  0.89303149  0.94627647
   0.55928763  0.78235477  0.04973498
   0.77772369  0.22132950  0.95095459
   0.88791056  0.11147796  0.04737740
   0.78265723  0.55626098  0.95020084
   0.88921532  0.44432239  0.04856182
   0.77619152  0.88741298  0.95451906
   0.88952448  0.77902864  0.04769385
unknown system                          
           1
     8.357189    4.840592    0.000000
    -8.328162    4.790309    0.000000
     0.000000    0.000000   30.000000
   V    Mo   W    S 
   3   3   3  18
Direct configuration=    14
   0.99743440  0.33635253  0.00115597
   0.65723009  0.00795807 -0.00044922
   0.01362529  0.01164190 -0.00024004
   0.32733323  0.68318931 -0.00002025
   0.33322387 -0.01056553  0.00000283
   0.64054309  0.32722839  0.00002176
   0.03047333  0.68143821  0.00001111
   0.35550250  0.33320077 -0.00013575
   0.64349146  0.63673504  0.00009275
   0.11054899  0.22271201  0.95139033
   0.21907466  0.10965514  0.05142534
   0.10986012  0.55140842  0.94719266
   0.22116839  0.44187216  0.04776380
   0.11001433  0.89126153  0.94749428
   0.22496752  0.78068791  0.05650164
   0.43990977  0.21603642  0.94466047
   0.55791673  0.10809724  0.05276199
   0.43863167  0.55310168  0.94745369
   0.55303542  0.44083686  0.05758659
   0.45167136  0.89309516  0.94625856
   0.55936863  0.78240791  0.04969679
   0.77770693  0.22138059  0.95092129
   0.88791917  0.11148581  0.04734783
   0.78277624  0.55622439  0.95034844
   0.88914177  0.44447000  0.04848041
   0.77617862  0.88728184  0.95472924
   0.88946686  0.77902069  0.04754738
unknown system                          
           1
     8.365727    4.850673    0.000000
    -8.333613    4.795006    0.000000
     0.000000    0.000000   30.000000
   V    Mo   W    S 
   3   3   3  18
Direct configuration=    15
   0.99655103  0.33585304  0.00137324
   0.65682939  0.00977352 -0.00054946
   0.01708970  0.01424396 -0.00036816
   0.32797846  0.68439223 -0.00001873
   0.33311002 -0.01058223  0.00001346
   0.63924288  0.32544605  0.00005488
   0.03219479  0.68286687 -0.00004775
   0.35486306  0.33135039 -0.00015663
   0.64144414  0.63517544  0.00017450
   0.11058942  0.22294092  0.95122229
   0.21901005  0.10941227  0.05171883
   0.11025716  0.55173634  0.94731746
   0.22152439  0.44200824  0.04730898
   0.11028685  0.89151735  0.94734561
   0.22538539  0.78089320  0.05663395
   0.43966702  0.21539899  0.94451416
   0.55762249  0.10785215  0.05294867
   0.43784171  0.55228166  0.94753650
   0.55225654  0.43978816  0.05762693
   0.45178535  0.89327680  0.94620853
   0.55961490  0.78257798  0.04954194
   0.77763659  0.22156178  0.95082326
   0.88797004  0.11153191  0.04720426
   0.78316113  0.55608007  0.95090788
   0.88889199  0.44503601  0.04816904
   0.77614061  0.88682580  0.95549716
   0.88926934  0.77897559  0.04699910
unknown system                          
           1
     8.372862    4.857333    0.000000
    -8.341772    4.803402    0.000000
     0.000000    0.000000   30.000000
   V    Mo   W    S 
   3   3   3  18
Direct configuration=    16
   0.99442599  0.33474589  0.00181826
   0.65575813  0.01311869 -0.00073742
   0.02360900  0.01848247 -0.00065177
   0.32971797  0.68680051 -0.00002856
   0.33320386 -0.01011288  0.00004084
   0.63704390  0.32192164  0.00013140
   0.03510748  0.68558740 -0.00021033
   0.35332697  0.32757010 -0.00019721
   0.63760709  0.63255773  0.00033622
   0.11067128  0.22347193  0.95087904
   0.21904916  0.10900550  0.05235100
   0.11102330  0.55224627  0.94756259
   0.22209278  0.44222312  0.04640879
   0.11093677  0.89208696  0.94703490
   0.22625138  0.78140157  0.05687438
   0.43922266  0.21411493  0.94418328
   0.55704391  0.10738341  0.05337209
   0.43622875  0.55049288  0.94764485
   0.55070724  0.43771127  0.05772254
   0.45209825  0.89370705  0.94608477
   0.56015084  0.78305556  0.04931904
   0.77755699  0.22186673  0.95058246
   0.88804514  0.11155627  0.04685790
   0.78376281  0.55582161  0.95200493
   0.88844078  0.44618488  0.04763574
   0.77622309  0.88621721  0.95703301
   0.88890894  0.77899577  0.04594717
unknown system                          
           1
     8.371808    4.859534    0.000000
    -8.340116    4.804535    0.000000
     0.000000    0.000000   30.000000
   V    Mo   W    S 
   3   3   3  18
Direct configuration=    17
   0.99317943  0.33421325  0.00198375
   0.65512688  0.01375591 -0.00077467
   0.02531059  0.01882850 -0.00079819
   0.33067488  0.68759787 -0.00001493
   0.33353066 -0.00937798  0.00007553
   0.63663258  0.32083383  0.00018668
   0.03587436  0.68642901 -0.00029187
   0.35262833  0.32609470 -0.00018798
   0.63642938  0.63196479  0.00044178
   0.11075581  0.22373523  0.95075118
   0.21922440  0.10894258  0.05263675
   0.11134177  0.55240016  0.94766787
   0.22218857  0.44226431  0.04604405
   0.11134910  0.89250186  0.94682694
   0.22660122  0.78159988  0.05690602
   0.43915752  0.21368945  0.94401443
   0.55683695  0.10727538  0.05361225
   0.43550492  0.54971791  0.94761683
   0.55004393  0.43681956  0.05774065
   0.45231699  0.89399524  0.94595815
   0.56034761  0.78337169  0.04935056
   0.77758603  0.22206218  0.95040379
   0.88805210  0.11141924  0.04669391
   0.78393859  0.55581900  0.95241337
   0.88825140  0.44668580  0.04753244
   0.77649686  0.88645565  0.95759132
   0.88883359  0.77911944  0.04561927
unknown system                          
           1
     8.372851    4.860583    0.000000
    -8.341447    4.806074    0.000000
     0.000000    0.000000   30.000000
   V    Mo   W    S 
   3   3   3  18
Direct configuration=    18
   0.99138130  0.33335929  0.00220382
   0.65429269  0.01489001 -0.00084429
   0.02812834  0.01990762 -0.00100530
   0.33191927  0.68887863 -0.00003663
   0.33379854 -0.00865269  0.00010150
   0.63583214  0.31919506  0.00023383
   0.03726862  0.68779968 -0.00042320
   0.35185870  0.32410079 -0.00021068
   0.63446011  0.63085094  0.00055891
   0.11079936  0.22394670  0.95064563
   0.21935576  0.10879771  0.05296307
   0.11178951  0.55271298  0.94785526
   0.22234661  0.44231465  0.04550992
   0.11189366  0.89291747  0.94662280
   0.22705313  0.78188312  0.05692077
   0.43910569  0.21317943  0.94386099
   0.55657983  0.10713322  0.05386916
   0.43469644  0.54870521  0.94767574
   0.54917698  0.43570544  0.05773686
   0.45254573  0.89432568  0.94586939
   0.56060809  0.78370683  0.04934077
   0.77757600  0.22224265  0.95023458
   0.88807998  0.11131626  0.04645545
   0.78417104  0.55581944  0.95301679
   0.88805790  0.44744604  0.04734116
   0.77673206  0.88653673  0.95837650
   0.88870697  0.77919556  0.04512710
unknown system                          
           1
     8.371796    4.860566    0.000000
    -8.340617    4.806439    0.000000
     0.000000    0.000000   30.000000
   V    Mo   W    S 
   3   3   3  18
Direct configuration=    19
   0.99018983  0.33279981  0.00223945
   0.65388984  0.01456022 -0.00082002
   0.02815227  0.01918714 -0.00107995
   0.33254414  0.68921985 -0.00005169
   0.33404362 -0.00815168  0.00011970
   0.63609649  0.31906314  0.00025822
   0.03740466  0.68803936 -0.00048660
   0.35169251  0.32374483 -0.00020928
   0.63419860  0.63091633  0.00063264
   0.11079941  0.22392720  0.95068828
   0.21944444  0.10878477  0.05301722
   0.11192391  0.55278743  0.94791708
   0.22221174  0.44223615  0.04532263
   0.11222460  0.89310105  0.94651670
   0.22720238  0.78200619  0.05686322
   0.43927803  0.21319396  0.94381235
   0.55658803  0.10719034  0.05394611
   0.43453372  0.54844950  0.94766877
   0.54897446  0.43548260  0.05772915
   0.45268352  0.89453122  0.94581226
   0.56064370  0.78384025  0.04944359
   0.77758484  0.22226709  0.95016220
   0.88803626  0.11117313  0.04637552
   0.78417876  0.55600320  0.95315826
   0.88808642  0.44779507  0.04739015
   0.77687406  0.88684113  0.95848865
   0.88873419  0.77922516  0.04508529
unknown system                          
           1
     8.370730    4.860678    0.000000
    -8.339911    4.807163    0.000000
     0.000000    0.000000   30.000000
   V    Mo   W    S 
   3   3   3  18
Direct configuration=    20
   0.98944621  0.33243639  0.00226685
   0.65363167  0.01448962 -0.00081167
   0.02848147  0.01904076 -0.00112878
   0.33292188  0.68949519 -0.00006023
   0.33413277 -0.00789840  0.00012403
   0.63611221  0.31888193  0.00027095
   0.03763628  0.68828192 -0.00052287
   0.35160120  0.32343134 -0.00020928
   0.63388642  0.63084314  0.00067444
   0.11078982  0.22391016  0.95070709
   0.21946593  0.10875443  0.05305621
   0.11202488  0.55284790  0.94795593
   0.22216486  0.44220369  0.04519235
   0.11242000  0.89321118  0.94645550
   0.22730638  0.78208030  0.05683861
   0.43937465  0.21319379  0.94378831
   0.55657784  0.10721326  0.05399602
   0.43442946  0.54828913  0.94767289
   0.54883034  0.43531282  0.05772745
   0.45275181  0.89464373  0.94578051
   0.56066982  0.78391154  0.04949151
   0.77757869  0.22227881  0.95011493
   0.88800477  0.11107473  0.04633435
   0.78420905  0.55609641  0.95325938
   0.88809317  0.44802354  0.04740531
   0.77693904  0.88693250  0.95858801
   0.88873385  0.77923465  0.04503210
unknown system                          
           1
     8.370251    4.861752    0.000000
    -8.339622    4.808548    0.000000
     0.000000    0.000000   30.000000
   V    Mo   W    S 
   3   3   3  18
Direct configuration=    21
   0.98822239  0.33182147  0.00229669
   0.65329148  0.01429013 -0.00078918
   0.02884881  0.01874007 -0.00119777
   0.33347408  0.68985451 -0.00007668
   0.33421694 -0.00752829  0.00012393
   0.63626880  0.31871262  0.00028726
   0.03789646  0.68856732 -0.00057873
   0.35148056  0.32304926 -0.00020912
   0.63352665  0.63085366  0.00073378
   0.11074533  0.22382585  0.95076697
   0.21945838  0.10870347  0.05308255
   0.11214664  0.55291011  0.94801194
   0.22202466  0.44211351  0.04500846
   0.11270307  0.89336526  0.94637695
   0.22744355  0.78218467  0.05679298
   0.43956067  0.21326211  0.94376432
   0.55660075  0.10726870  0.05405230
   0.43435966  0.54813120  0.94767739
   0.54868381  0.43515270  0.05772541
   0.45285727  0.89481317  0.94573660
   0.56068797  0.78399845  0.04958154
   0.77756712  0.22225612  0.95005490
   0.88795129  0.11091319  0.04628247
   0.78424524  0.55627275  0.95337319
   0.88815476  0.44834661  0.04745059
   0.77704394  0.88708068  0.95868184
   0.88875418  0.77925515  0.04498931
unknown system                          
           1
     8.370247    4.861751    0.000000
    -8.339619    4.808549    0.000000
     0.000000    0.000000   30.000000
   V    Mo   W    S 
   3   3   3  18
Direct configuration=    22
   0.98583368  0.33067661  0.00235703
   0.65269493  0.01395649 -0.00074657
   0.02930385  0.01822475 -0.00130468
   0.33453623  0.69057176 -0.00010004
   0.33452810 -0.00699716  0.00012355
   0.63662344  0.31839806  0.00033028
   0.03831745  0.68895352 -0.00066999
   0.35141004  0.32260045 -0.00019401
   0.63295548  0.63093201  0.00084273
   0.11069630  0.22380916  0.95084105
   0.21952276  0.10864897  0.05317706
   0.11236771  0.55299067  0.94811604
   0.22169126  0.44193359  0.04463963
   0.11321588  0.89357768  0.94620373
   0.22772438  0.78238233  0.05672084
   0.43992742  0.21341168  0.94369919
   0.55664044  0.10737380  0.05415339
   0.43421342  0.54786032  0.94766790
   0.54842818  0.43486232  0.05773152
   0.45304143  0.89512187  0.94564517
   0.56070582  0.78415229  0.04975140
   0.77751799  0.22216203  0.94993208
   0.88778643  0.11062309  0.04621634
   0.78433425  0.55661818  0.95357703
   0.88829778  0.44891522  0.04754152
   0.77712006  0.88723535  0.95883054
   0.88877973  0.77921941  0.04491716
unknown system                          
           1
     8.368456    4.863108    0.000000
    -8.337088    4.808606    0.000000
     0.000000    0.000000   30.000000
   V    Mo   W    S 
   3   3   3  18
Direct configuration=    23
   0.98582934  0.33067446  0.00235710
   0.65269403  0.01395593 -0.00074648
   0.02930474  0.01822404 -0.00130485
   0.33453806  0.69057297 -0.00010008
   0.33452843 -0.00699622  0.00012352
   0.63662409  0.31839765  0.00033032
   0.03831823  0.68895430 -0.00067016
   0.35140995  0.32259967 -0.00019399
   0.63295456  0.63093215  0.00084291
   0.11069620  0.22380912  0.95084122
   0.21952284  0.10864888  0.05317714
   0.11236802  0.55299072  0.94811623
   0.22169055  0.44193319  0.04463899
   0.11321673  0.89357797  0.94620351
   0.22772482  0.78238266  0.05672073
   0.43992811  0.21341203  0.94369913
   0.55664050  0.10737395  0.05415356
   0.43421333  0.54785997  0.94766788
   0.54842788  0.43486196  0.05773153
   0.45304178  0.89512242  0.94564499
   0.56070588  0.78415252  0.04975170
   0.77751783  0.22216177  0.94993186
   0.88778607  0.11062251  0.04621628
   0.78433444  0.55661879  0.95357736
   0.88829804  0.44891617  0.04754172
   0.77712019  0.88723554  0.95883075
   0.88877981  0.77921933  0.04491704
unknown system                          
           1
     8.368371    4.861314    0.000000
    -8.338285    4.809039    0.000000
     0.000000    0.000000   30.000000
   V    Mo   W    S 
   3   3   3  18
Direct configuration=    24
   0.98583207  0.33063086  0.00235706
   0.65244331  0.01366964 -0.00074875
   0.02954396  0.01830799 -0.00130990
   0.33482514  0.69077978 -0.00010722
   0.33455884 -0.00696915  0.00012330
   0.63659738  0.31843568  0.00033113
   0.03844754  0.68909216 -0.00067360
   0.35127513  0.32242903 -0.00018642
   0.63290473  0.63096938  0.00084765
   0.11065584  0.22372428  0.95085263
   0.21948074  0.10863802  0.05316623
   0.11245260  0.55295779  0.94811504
   0.22172634  0.44203103  0.04461877
   0.11326518  0.89369072  0.94618458
   0.22786160  0.78242067  0.05671390
   0.43990821  0.21339549  0.94370067
   0.55658857  0.10736176  0.05415708
   0.43416371  0.54789729  0.94766924
   0.54840806  0.43485093  0.05772694
   0.45294328  0.89504547  0.94567177