   27   27  100    1
  0.9710400E+02  0.1002848E-08  0.1002848E-08  0.3000000E-08  0.5000000E-15
  1.000000000000000E-004
  CAR 
 unknown system                          
    159     34    120
 
  0.0000000E+00  0.0000000E+00  0.0000000E+00  0.1562500E-01
    1      -17.824679   1.000000
    2      -16.755290   1.000000
    3      -16.628732   1.000000
    4      -16.619238   1.000000
    5      -16.493501   1.000000
    6      -16.481681   1.000000
    7      -16.400252   1.000000
    8      -16.315300   1.000000
    9      -16.193102   1.000000
   10      -16.145110   1.000000
   11      -16.075740   1.000000
   12      -15.941222   1.000000
   13      -15.916480   1.000000
   14      -15.748122   1.000000
   15      -15.549661   1.000000
   16      -15.477970   1.000000
   17      -15.327149   1.000000
   18      -15.192556   1.000000
   19       -9.358053   1.000000
   20       -8.960120   1.000000
   21       -8.915029   1.000000
   22       -8.888340   1.000000
   23       -8.774685   1.000000
   24       -8.741544   1.000000
   25       -8.636428   1.000000
   26       -8.581438   1.000000
   27       -8.470968   1.000000
   28       -8.438282   1.000000
   29       -8.399757   1.000000
   30       -8.364124   1.000000
   31       -8.274971   1.000000
   32       -8.227091   1.000000
   33       -8.183351   1.000000
   34       -8.133644   1.000000
   35       -7.849847   1.000000
   36       -7.764721   1.000000
   37       -7.679557   1.000000
   38       -7.556969   1.000000
   39       -7.473304   1.000000
   40       -7.407439   1.000000
   41       -7.338691   1.000000
   42       -7.193958   1.000000
   43       -7.126902   1.000000
   44       -7.014831   1.000000
   45       -6.830056   1.000000
   46       -6.755273   1.000000
   47       -6.745928   1.000000
   48       -6.639044   1.000000
   49       -6.615032   1.000000
   50       -6.468574   1.000000
   51       -6.429418   1.000000
   52       -6.366285   1.000000
   53       -6.262657   1.000000
   54       -6.176844   1.000000
   55       -6.142097   1.000000
   56       -6.100799   1.000000
   57       -5.974560   1.000000
   58       -5.902765   1.000000
   59       -5.847069   1.000000
   60       -5.641021   1.000000
   61       -5.495181   1.000000
   62       -5.391799   1.000000
   63       -5.214006   1.000000
   64       -5.172302   1.000000
   65       -5.050971   1.000000
   66       -4.985134   1.000000
   67       -4.942667   1.000000
   68       -4.906725   1.000000
   69       -4.773708   1.000000
   70       -4.713662   1.000000
   71       -4.631114   1.000000
   72       -4.595250   1.000000
   73       -4.413976   1.000000
   74       -4.315341   1.000000
   75       -4.228507   1.000000
   76       -3.947842   0.999997
   77       -3.771411   0.999419
   78       -3.561214   0.960955
   79       -3.453448   0.841312
   80       -3.358483   0.628680
   81       -3.255416   0.344418
   82       -2.884968   0.001264
   83       -2.745723   0.000031
   84       -2.658433   0.000002
   85       -2.591164   0.000000
   86       -2.437377   0.000000
   87       -2.371549   0.000000
   88       -2.275226   0.000000
   89       -2.183276   0.000000
   90       -1.898497   0.000000
   91       -1.781403   0.000000
   92       -1.505452   0.000000
   93       -1.363000   0.000000
   94       -1.283416   0.000000
   95       -1.166047   0.000000
   96       -0.995138   0.000000
   97       -0.990850   0.000000
   98       -0.936909   0.000000
   99       -0.850822   0.000000
  100       -0.682466   0.000000
  101       -0.610032   0.000000
  102       -0.535347   0.000000
  103       -0.462456   0.000000
  104       -0.295222   0.000000
  105       -0.146463   0.000000
  106       -0.114092   0.000000
  107       -0.065988   0.000000
  108       -0.001765   0.000000
  109        0.123298   0.000000
  110        0.162506   0.000000
  111        0.441373   0.000000
  112        0.532826   0.000000
  113        0.607827   0.000000
  114        0.728472   0.000000
  115        0.935061   0.000000
  116        0.975618   0.000000
  117        1.296893   0.000000
  118        1.639676   0.000000
  119        1.836867   0.000000
  120        2.155453   0.000000
 
  0.1250000E+00  0.2775558E-16  0.0000000E+00  0.3125000E-01
    1      -17.799526   1.000000
    2      -16.818775   1.000000
    3      -16.701289   1.000000
    4      -16.612932   1.000000
    5      -16.550130   1.000000
    6      -16.400736   1.000000
    7      -16.365162   1.000000
    8      -16.315696   1.000000
    9      -16.265540   1.000000
   10      -16.079917   1.000000
   11      -16.012946   1.000000
   12      -15.952690   1.000000
   13      -15.883869   1.000000
   14      -15.740026   1.000000
   15      -15.556284   1.000000
   16      -15.478656   1.000000
   17      -15.340125   1.000000
   18      -15.199607   1.000000
   19       -9.366982   1.000000
   20       -9.156303   1.000000
   21       -9.025784   1.000000
   22       -8.955886   1.000000
   23       -8.766875   1.000000
   24       -8.739163   1.000000
   25       -8.645742   1.000000
   26       -8.545593   1.000000
   27       -8.507591   1.000000
   28       -8.430194   1.000000
   29       -8.363615   1.000000
   30       -8.310281   1.000000
   31       -8.242005   1.000000
   32       -8.129932   1.000000
   33       -8.064369   1.000000
   34       -7.962441   1.000000
   35       -7.875240   1.000000
   36       -7.737554   1.000000
   37       -7.662738   1.000000
   38       -7.600739   1.000000
   39       -7.459909   1.000000
   40       -7.399536   1.000000
   41       -7.296102   1.000000
   42       -7.234298   1.000000
   43       -7.119940   1.000000
   44       -7.010023   1.000000
   45       -6.913041   1.000000
   46       -6.770488   1.000000
   47       -6.726417   1.000000
   48       -6.645641   1.000000
   49       -6.599966   1.000000
   50       -6.461179   1.000000
   51       -6.406140   1.000000
   52       -6.364221   1.000000
   53       -6.296135   1.000000
   54       -6.212091   1.000000
   55       -6.153140   1.000000
   56       -6.067733   1.000000
   57       -5.987118   1.000000
   58       -5.895741   1.000000
   59       -5.797974   1.000000
   60       -5.568656   1.000000
   61       -5.465504   1.000000
   62       -5.439442   1.000000
   63       -5.305360   1.000000
   64       -5.209983   1.000000
   65       -5.168674   1.000000
   66       -5.044519   1.000000
   67       -4.969968   1.000000
   68       -4.881290   1.000000
   69       -4.816525   1.000000
   70       -4.650927   1.000000
   71       -4.621117   1.000000
   72       -4.492586   1.000000
   73       -4.448383   1.000000
   74       -4.231703   1.000000
   75       -4.181823   1.000000
   76       -3.894221   0.999981
   77       -3.793230   0.999666
   78       -3.673904   0.994747
   79       -3.602308   0.979938
   80       -3.379799   0.684060
   81       -3.096034   0.063327
   82       -2.884613   0.001254
   83       -2.719044   0.000014
   84       -2.661951   0.000002
   85       -2.590868   0.000000
   86       -2.411415   0.000000
   87       -2.359928   0.000000
   88       -2.267900   0.000000
   89       -2.175638   0.000000
   90       -1.888617   0.000000
   91       -1.776402   0.000000
   92       -1.482900   0.000000
   93       -1.390659   0.000000
   94       -1.260779   0.000000
   95       -1.158609   0.000000
   96       -1.009001   0.000000
   97       -0.984205   0.000000
   98       -0.944615   0.000000
   99       -0.844366   0.000000
  100       -0.741980   0.000000
  101       -0.669494   0.000000
  102       -0.592346   0.000000
  103       -0.516553   0.000000
  104       -0.371430   0.000000
  105       -0.271481   0.000000
  106       -0.170553   0.000000
  107       -0.064854   0.000000
  108        0.043286   0.000000
  109        0.140117   0.000000
  110        0.196089   0.000000
  111        0.458607   0.000000
  112        0.588317   0.000000
  113        0.653613   0.000000
  114        0.736722   0.000000
  115        0.942756   0.000000
  116        0.989660   0.000000
  117        1.265200   0.000000
  118        1.682846   0.000000
  119        1.875262   0.000000
  120        2.190576   0.000000
 
  0.2500000E+00  0.5551115E-16  0.0000000E+00  0.3125000E-01
    1      -17.725346   1.000000
    2      -17.012895   1.000000
    3      -16.707930   1.000000
    4      -16.649133   1.000000
    5      -16.610721   1.000000
    6      -16.400530   1.000000
    7      -16.324881   1.000000
    8      -16.290367   1.000000
    9      -16.211353   1.000000
   10      -16.085588   1.000000
   11      -15.959490   1.000000
   12      -15.875771   1.000000
   13      -15.844329   1.000000
   14      -15.713636   1.000000
   15      -15.566886   1.000000
   16      -15.476282   1.000000
   17      -15.367579   1.000000
   18      -15.222154   1.000000
   19       -9.559013   1.000000
   20       -9.254793   1.000000
   21       -9.165758   1.000000
   22       -9.052412   1.000000
   23       -8.852232   1.000000
   24       -8.744315   1.000000
   25       -8.635740   1.000000
   26       -8.573073   1.000000
   27       -8.491931   1.000000
   28       -8.399866   1.000000
   29       -8.279998   1.000000
   30       -8.230457   1.000000
   31       -8.146931   1.000000
   32       -8.072471   1.000000
   33       -7.973889   1.000000
   34       -7.871570   1.000000
   35       -7.728422   1.000000
   36       -7.673335   1.000000
   37       -7.594034   1.000000
   38       -7.507460   1.000000
   39       -7.461050   1.000000
   40       -7.413937   1.000000
   41       -7.307504   1.000000
   42       -7.163903   1.000000
   43       -7.089192   1.000000
   44       -7.054498   1.000000
   45       -6.901125   1.000000
   46       -6.810352   1.000000
   47       -6.766297   1.000000
   48       -6.683919   1.000000
   49       -6.541673   1.000000
   50       -6.487546   1.000000
   51       -6.391530   1.000000
   52       -6.320284   1.000000
   53       -6.291566   1.000000
   54       -6.222566   1.000000
   55       -6.165055   1.000000
   56       -6.040221   1.000000
   57       -5.938867   1.000000
   58       -5.891706   1.000000
   59       -5.737207   1.000000
   60       -5.665515   1.000000
   61       -5.606826   1.000000
   62       -5.530589   1.000000
   63       -5.416585   1.000000
   64       -5.304701   1.000000
   65       -5.184661   1.000000
   66       -5.127591   1.000000
   67       -4.999991   1.000000
   68       -4.888774   1.000000
   69       -4.786276   1.000000
   70       -4.626506   1.000000
   71       -4.501052   1.000000
   72       -4.472013   1.000000
   73       -4.327131   1.000000
   74       -4.206022   1.000000
   75       -4.138502   1.000000
   76       -3.983190   0.999999
   77       -3.901247   0.999985
   78       -3.733686   0.998566
   79       -3.616607   0.984363
   80       -3.378259   0.680177
   81       -2.969457   0.007708
   82       -2.884754   0.001258
   83       -2.689814   0.000005
   84       -2.653835   0.000002
   85       -2.572230   0.000000
   86       -2.383439   0.000000
   87       -2.323531   0.000000
   88       -2.263448   0.000000
   89       -2.114611   0.000000
   90       -1.872123   0.000000
   91       -1.747233   0.000000
   92       -1.473284   0.000000
   93       -1.394835   0.000000
   94       -1.230446   0.000000
   95       -1.161553   0.000000
   96       -1.068619   0.000000
   97       -1.004032   0.000000
   98       -0.939202   0.000000
   99       -0.889858   0.000000
  100       -0.842600   0.000000
  101       -0.774579   0.000000
  102       -0.714912   0.000000
  103       -0.615528   0.000000
  104       -0.485666   0.000000
  105       -0.352009   0.000000
  106       -0.330505   0.000000
  107       -0.127801   0.000000
  108       -0.031743   0.000000
  109        0.210244   0.000000
  110        0.268321   0.000000
  111        0.480616   0.000000
  112        0.603802   0.000000
  113        0.690880   0.000000
  114        0.813489   0.000000
  115        0.964693   0.000000
  116        1.071924   0.000000
  117        1.252434   0.000000
  118        1.804755   0.000000
  119        1.986256   0.000000
  120        2.294933   0.000000
 
  0.3750000E+00  0.0000000E+00  0.0000000E+00  0.3125000E-01
    1      -17.607556   1.000000
    2      -17.222833   1.000000
    3      -16.706963   1.000000
    4      -16.678490   1.000000
    5      -16.647178   1.000000
    6      -16.447265   1.000000
    7      -16.278424   1.000000
    8      -16.250034   1.000000
    9      -16.177479   1.000000
   10      -16.066703   1.000000
   11      -15.907122   1.000000
   12      -15.856619   1.000000
   13      -15.808704   1.000000
   14      -15.684144   1.000000
   15      -15.593275   1.000000
   16      -15.440945   1.000000
   17      -15.380840   1.000000
   18      -15.260502   1.000000
   19       -9.767056   1.000000
   20       -9.357284   1.000000
   21       -9.214474   1.000000
   22       -9.007516   1.000000
   23       -8.919457   1.000000
   24       -8.797002   1.000000
   25       -8.622659   1.000000
   26       -8.548952   1.000000
   27       -8.500868   1.000000
   28       -8.343449   1.000000
   29       -8.274065   1.000000
   30       -8.209702   1.000000
   31       -8.125091   1.000000
   32       -8.032296   1.000000
   33       -7.931689   1.000000
   34       -7.790301   1.000000
   35       -7.742977   1.000000
   36       -7.680041   1.000000
   37       -7.614362   1.000000
   38       -7.500787   1.000000
   39       -7.346908   1.000000
   40       -7.298850   1.000000
   41       -7.159166   1.000000
   42       -7.125131   1.000000
   43       -7.049751   1.000000
   44       -6.993903   1.000000
   45       -6.881850   1.000000
   46       -6.817321   1.000000
   47       -6.737743   1.000000
   48       -6.655348   1.000000
   49       -6.555859   1.000000
   50       -6.433124   1.000000
   51       -6.371428   1.000000
   52       -6.314580   1.000000
   53       -6.241473   1.000000
   54       -6.195804   1.000000
   55       -6.147100   1.000000
   56       -6.033082   1.000000
   57       -6.004384   1.000000
   58       -5.940080   1.000000
   59       -5.915408   1.000000
   60       -5.797808   1.000000
   61       -5.661137   1.000000
   62       -5.624158   1.000000
   63       -5.526647   1.000000
   64       -5.298357   1.000000
   65       -5.225930   1.000000
   66       -5.083007   1.000000
   67       -4.992130   1.000000
   68       -4.866451   1.000000
   69       -4.742016   1.000000
   70       -4.708453   1.000000
   71       -4.527199   1.000000
   72       -4.460346   1.000000
   73       -4.341470   1.000000
   74       -4.212687   1.000000
   75       -4.129618   1.000000
   76       -4.026032   1.000000
   77       -3.856991   0.999942
   78       -3.715717   0.997844
   79       -3.531200   0.939387
   80       -3.409007   0.753524
   81       -2.910282   0.002249
   82       -2.860858   0.000710
   83       -2.702697   0.000008
   84       -2.658765   0.000002
   85       -2.525841   0.000000
   86       -2.372037   0.000000
   87       -2.291651   0.000000
   88       -2.235380   0.000000
   89       -2.040032   0.000000
   90       -1.845584   0.000000
   91       -1.701887   0.000000
   92       -1.512212   0.000000
   93       -1.365381   0.000000
   94       -1.238046   0.000000
   95       -1.215089   0.000000
   96       -1.118733   0.000000
   97       -1.070348   0.000000
   98       -0.988922   0.000000
   99       -0.921285   0.000000
  100       -0.893819   0.000000
  101       -0.817080   0.000000
  102       -0.793585   0.000000
  103       -0.691398   0.000000
  104       -0.566002   0.000000
  105       -0.507002   0.000000
  106       -0.359529   0.000000
  107       -0.205743   0.000000
  108       -0.065760   0.000000
  109        0.189306   0.000000
  110        0.298499   0.000000
  111        0.478024   0.000000
  112        0.566632   0.000000
  113        0.718324   0.000000
  114        0.884040   0.000000
  115        0.990467   0.000000
  116        1.171183   0.000000
  117        1.310993   0.000000
  118        1.989180   0.000000
  119        2.160708   0.000000
  120        2.465822   0.000000
 
  0.5000000E+00  0.1110223E-15  0.0000000E+00  0.1562500E-01
    1      -17.495904   1.000000
    2      -17.367436   1.000000
    3      -16.705482   1.000000
    4      -16.696277   1.000000
    5      -16.651939   1.000000
    6      -16.464696   1.000000
    7      -16.255475   1.000000
    8      -16.236797   1.000000
    9      -16.187917   1.000000
   10      -16.032651   1.000000
   11      -15.881490   1.000000
   12      -15.869612   1.000000
   13      -15.787523   1.000000
   14      -15.669277   1.000000
   15      -15.625608   1.000000
   16      -15.420437   1.000000
   17      -15.358908   1.000000
   18      -15.295105   1.000000
   19       -9.843814   1.000000
   20       -9.399095   1.000000
   21       -9.245311   1.000000
   22       -8.957352   1.000000
   23       -8.891325   1.000000
   24       -8.833821   1.000000
   25       -8.680811   1.000000
   26       -8.553183   1.000000
   27       -8.480854   1.000000
   28       -8.356203   1.000000
   29       -8.251205   1.000000
   30       -8.149520   1.000000
   31       -8.111078   1.000000
   32       -8.020041   1.000000
   33       -7.902488   1.000000
   34       -7.855404   1.000000
   35       -7.775792   1.000000
   36       -7.677742   1.000000
   37       -7.618995   1.000000
   38       -7.513798   1.000000
   39       -7.315125   1.000000
   40       -7.300620   1.000000
   41       -7.106067   1.000000
   42       -7.060398   1.000000
   43       -6.978330   1.000000
   44       -6.901056   1.000000
   45       -6.885089   1.000000
   46       -6.745819   1.000000
   47       -6.653456   1.000000
   48       -6.591577   1.000000
   49       -6.538214   1.000000
   50       -6.488189   1.000000
   51       -6.408816   1.000000
   52       -6.385948   1.000000
   53       -6.302730   1.000000
   54       -6.209809   1.000000
   55       -6.184614   1.000000
   56       -6.088465   1.000000
   57       -6.015244   1.000000
   58       -5.934788   1.000000
   59       -5.906652   1.000000
   60       -5.782365   1.000000
   61       -5.681946   1.000000
   62       -5.552473   1.000000
   63       -5.510318   1.000000
   64       -5.444274   1.000000
   65       -5.274697   1.000000
   66       -5.056666   1.000000
   67       -4.997073   1.000000
   68       -4.931571   1.000000
   69       -4.813869   1.000000
   70       -4.641722   1.000000
   71       -4.522003   1.000000
   72       -4.455060   1.000000
   73       -4.331733   1.000000
   74       -4.285216   1.000000
   75       -4.113911   1.000000
   76       -3.984784   0.999999
   77       -3.808295   0.999775
   78       -3.691795   0.996376
   79       -3.537591   0.944626
   80       -3.407577   0.750322
   81       -2.889364   0.001400
   82       -2.840075   0.000423
   83       -2.730545   0.000020
   84       -2.656829   0.000002
   85       -2.507481   0.000000
   86       -2.362041   0.000000
   87       -2.280074   0.000000
   88       -2.218633   0.000000
   89       -2.009115   0.000000
   90       -1.829008   0.000000
   91       -1.678168   0.000000
   92       -1.530180   0.000000
   93       -1.361404   0.000000
   94       -1.285958   0.000000
   95       -1.240290   0.000000
   96       -1.114327   0.000000
   97       -1.085911   0.000000
   98       -1.033523   0.000000
   99       -0.935128   0.000000
  100       -0.914129   0.000000
  101       -0.826475   0.000000
  102       -0.798624   0.000000
  103       -0.705885   0.000000
  104       -0.625908   0.000000
  105       -0.563471   0.000000
  106       -0.357735   0.000000
  107       -0.230469   0.000000
  108       -0.083709   0.000000
  109        0.167542   0.000000
  110        0.307548   0.000000
  111        0.460200   0.000000
  112        0.561188   0.000000
  113        0.730140   0.000000
  114        0.898422   0.000000
  115        1.008186   0.000000
  116        1.211662   0.000000
  117        1.346280   0.000000
  118        2.210492   0.000000
  119        2.241376   0.000000
  120        2.368623   0.000000
 
  0.0000000E+00  0.1250000E+00  0.0000000E+00  0.3125000E-01
    1      -17.801092   1.000000
    2      -16.793674   1.000000
    3      -16.692149   1.000000
    4      -16.640808   1.000000
    5      -16.562604   1.000000
    6      -16.458457   1.000000
    7      -16.348570   1.000000
    8      -16.288746   1.000000
    9      -16.183366   1.000000
   10      -16.127374   1.000000
   11      -16.034943   1.000000
   12      -15.925938   1.000000
   13      -15.895246   1.000000
   14      -15.739852   1.000000
   15      -15.566692   1.000000
   16      -15.490108   1.000000
   17      -15.328982   1.000000
   18      -15.196208   1.000000
   19       -9.356903   1.000000
   20       -9.102985   1.000000
   21       -9.016468   1.000000
   22       -8.953314   1.000000
   23       -8.852506   1.000000
   24       -8.784214   1.000000
   25       -8.633161   1.000000
   26       -8.582731   1.000000
   27       -8.459766   1.000000
   28       -8.443577   1.000000
   29       -8.359908   1.000000
   30       -8.285581   1.000000
   31       -8.193541   1.000000
   32       -8.115353   1.000000
   33       -8.087613   1.000000
   34       -8.022223   1.000000
   35       -7.803761   1.000000
   36       -7.732061   1.000000
   37       -7.659802   1.000000
   38       -7.569599   1.000000
   39       -7.521619   1.000000
   40       -7.442906   1.000000
   41       -7.289819   1.000000
   42       -7.197103   1.000000
   43       -7.126597   1.000000
   44       -7.043676   1.000000
   45       -6.900855   1.000000
   46       -6.774565   1.000000
   47       -6.721076   1.000000
   48       -6.656366   1.000000
   49       -6.528532   1.000000
   50       -6.456123   1.000000
   51       -6.423964   1.000000
   52       -6.361957   1.000000
   53       -6.307691   1.000000
   54       -6.210886   1.000000
   55       -6.124575   1.000000
   56       -6.082353   1.000000
   57       -6.015271   1.000000
   58       -5.888059   1.000000
   59       -5.806254   1.000000
   60       -5.610084   1.000000
   61       -5.472952   1.000000
   62       -5.432889   1.000000
   63       -5.344666   1.000000
   64       -5.252825   1.000000
   65       -5.111573   1.000000
   66       -5.023758   1.000000
   67       -4.908999   1.000000
   68       -4.857648   1.000000
   69       -4.837320   1.000000
   70       -4.694089   1.000000
   71       -4.588141   1.000000
   72       -4.530858   1.000000
   73       -4.433573   1.000000
   74       -4.207756   1.000000
   75       -4.165010   1.000000
   76       -4.000708   0.999999
   77       -3.777451   0.999501
   78       -3.664661   0.993673
   79       -3.569945   0.965895
   80       -3.286200   0.427493
   81       -3.194670   0.203277
   82       -2.862838   0.000746
   83       -2.717752   0.000013
   84       -2.652157   0.000002
   85       -2.566274   0.000000
   86       -2.452388   0.000000
   87       -2.334877   0.000000
   88       -2.257233   0.000000
   89       -2.154871   0.000000
   90       -1.916984   0.000000
   91       -1.757356   0.000000
   92       -1.512574   0.000000
   93       -1.369397   0.000000
   94       -1.280313   0.000000
   95       -1.155574   0.000000
   96       -1.017107   0.000000
   97       -0.990437   0.000000
   98       -0.943702   0.000000
   99       -0.841781   0.000000
  100       -0.772108   0.000000
  101       -0.680731   0.000000
  102       -0.622024   0.000000
  103       -0.542324   0.000000
  104       -0.310968   0.000000
  105       -0.215634   0.000000
  106       -0.114718   0.000000
  107       -0.064548   0.000000
  108        0.019575   0.000000
  109        0.104185   0.000000
  110        0.206589   0.000000
  111        0.417398   0.000000
  112        0.531537   0.000000
  113        0.637909   0.000000
  114        0.728777   0.000000
  115        0.940939   0.000000
  116        1.028455   0.000000
  117        1.306027   0.000000
  118        1.682147   0.000000
  119        1.876319   0.000000
  120        2.190183   0.000000
 
  0.1250000E+00  0.1250000E+00  0.0000000E+00  0.3125000E-01
    1      -17.753131   1.000000
    2      -16.899304   1.000000
    3      -16.794606   1.000000
    4      -16.680715   1.000000
    5      -16.510835   1.000000
    6      -16.419125   1.000000
    7      -16.323715   1.000000
    8      -16.270142   1.000000
    9      -16.251942   1.000000
   10      -16.049665   1.000000
   11      -15.964204   1.000000
   12      -15.937794   1.000000
   13      -15.847570   1.000000
   14      -15.718183   1.000000
   15      -15.589959   1.000000
   16      -15.496965   1.000000
   17      -15.345022   1.000000
   18      -15.202076   1.000000
   19       -9.430472   1.000000
   20       -9.271964   1.000000
   21       -9.176946   1.000000
   22       -9.064614   1.000000
   23       -8.814725   1.000000
   24       -8.759651   1.000000
   25       -8.632039   1.000000
   26       -8.536247   1.000000
   27       -8.451010   1.000000
   28       -8.394899   1.000000
   29       -8.288741   1.000000
   30       -8.266056   1.000000
   31       -8.161834   1.000000
   32       -8.074359   1.000000
   33       -7.988256   1.000000
   34       -7.908471   1.000000
   35       -7.775231   1.000000
   36       -7.749198   1.000000
   37       -7.590904   1.000000
   38       -7.535487   1.000000
   39       -7.499244   1.000000
   40       -7.385112   1.000000
   41       -7.296339   1.000000
   42       -7.242534   1.000000
   43       -7.072390   1.000000
   44       -7.019049   1.000000
   45       -6.941950   1.000000
   46       -6.795896   1.000000
   47       -6.718062   1.000000
   48       -6.685713   1.000000
   49       -6.512891   1.000000
   50       -6.429163   1.000000
   51       -6.411962   1.000000
   52       -6.326277   1.000000
   53       -6.309686   1.000000
   54       -6.226381   1.000000
   55       -6.164651   1.000000
   56       -6.094629   1.000000
   57       -6.012533   1.000000
   58       -5.880366   1.000000
   59       -5.775126   1.000000
   60       -5.618762   1.000000
   61       -5.572628   1.000000
   62       -5.445758   1.000000
   63       -5.399032   1.000000
   64       -5.303290   1.000000
   65       -5.218128   1.000000
   66       -5.085497   1.000000
   67       -4.978733   1.000000
   68       -4.902705   1.000000
   69       -4.753031   1.000000
   70       -4.629152   1.000000
   71       -4.553629   1.000000
   72       -4.460387   1.000000
   73       -4.400135   1.000000
   74       -4.175939   1.000000
   75       -4.125144   1.000000
   76       -3.994783   0.999999
   77       -3.873692   0.999964
   78       -3.694187   0.996555
   79       -3.633764   0.988544
   80       -3.353112   0.614236
   81       -3.050064   0.031978
   82       -2.837486   0.000396
   83       -2.675898   0.000003
   84       -2.650567   0.000001
   85       -2.569906   0.000000
   86       -2.404728   0.000000
   87       -2.322718   0.000000
   88       -2.223261   0.000000
   89       -2.138157   0.000000
   90       -1.906900   0.000000
   91       -1.732335   0.000000
   92       -1.487802   0.000000
   93       -1.405224   0.000000
   94       -1.263782   0.000000
   95       -1.152980   0.000000
   96       -1.052675   0.000000
   97       -1.008591   0.000000
   98       -0.951574   0.000000
   99       -0.877852   0.000000
  100       -0.842227   0.000000
  101       -0.772981   0.000000
  102       -0.705278   0.000000
  103       -0.613928   0.000000
  104       -0.405309   0.000000
  105       -0.302100   0.000000
  106       -0.194368   0.000000
  107       -0.122965   0.000000
  108        0.027713   0.000000
  109        0.134053   0.000000
  110        0.283139   0.000000
  111        0.422539   0.000000
  112        0.541513   0.000000
  113        0.649310   0.000000
  114        0.778793   0.000000
  115        0.967634   0.000000
  116        1.092609   0.000000
  117        1.266440   0.000000
  118        1.762949   0.000000
  119        1.951088   0.000000
  120        2.259353   0.000000
 
  0.2500000E+00  0.1250000E+00  0.0000000E+00  0.3125000E-01
    1      -17.658934   1.000000
    2      -17.096147   1.000000
    3      -16.872564   1.000000
    4      -16.674522   1.000000
    5      -16.497653   1.000000
    6      -16.387818   1.000000
    7      -16.322078   1.000000
    8      -16.268943   1.000000
    9      -16.203298   1.000000
   10      -16.065991   1.000000
   11      -15.941062   1.000000
   12      -15.848230   1.000000
   13      -15.813893   1.000000
   14      -15.677603   1.000000
   15      -15.626007   1.000000
   16      -15.478840   1.000000
   17      -15.370339   1.000000
   18      -15.221289   1.000000
   19       -9.653300   1.000000
   20       -9.391103   1.000000
   21       -9.277616   1.000000
   22       -9.065674   1.000000
   23       -8.842667   1.000000
   24       -8.705856   1.000000
   25       -8.580533   1.000000
   26       -8.512414   1.000000
   27       -8.454210   1.000000
   28       -8.375629   1.000000
   29       -8.265611   1.000000
   30       -8.203023   1.000000
   31       -8.149304   1.000000
   32       -8.061757   1.000000
   33       -8.015154   1.000000
   34       -7.905264   1.000000
   35       -7.784026   1.000000
   36       -7.591461   1.000000
   37       -7.569408   1.000000
   38       -7.472900   1.000000
   39       -7.401238   1.000000
   40       -7.377364   1.000000
   41       -7.235611   1.000000
   42       -7.142087   1.000000
   43       -7.057613   1.000000
   44       -7.019418   1.000000
   45       -6.847558   1.000000
   46       -6.819128   1.000000
   47       -6.756654   1.000000