       N       E                     dE             d eps       ncg     rms          rms(c)
DAV:   1     0.112439431107E+04    0.11244E+04   -0.35863E+04  8160   0.577E+02
DAV:   2    -0.114633655386E+01   -0.11255E+04   -0.10809E+04 11280   0.174E+02
DAV:   3    -0.199969301940E+03   -0.19882E+03   -0.19084E+03 10920   0.822E+01
DAV:   4    -0.209024702985E+03   -0.90554E+01   -0.88142E+01 12280   0.261E+01
DAV:   5    -0.209324948149E+03   -0.30025E+00   -0.29944E+00 11360   0.344E+00    0.275E+01
DAV:   6    -0.236778496367E+03   -0.27454E+02   -0.10606E+02 12680   0.604E+01    0.594E+01
DAV:   7    -0.196504635723E+03    0.40274E+02   -0.17670E+02 13320   0.152E+02    0.200E+01
DAV:   8    -0.189379601434E+03    0.71250E+01   -0.17400E+01 12120   0.127E+01    0.125E+01
DAV:   9    -0.188121190298E+03    0.12584E+01   -0.30219E+00 13240   0.651E+00    0.898E+00
DAV:  10    -0.187010163865E+03    0.11110E+01   -0.21625E+00 13520   0.713E+00    0.283E+00
DAV:  11    -0.186972058862E+03    0.38105E-01   -0.61903E-01 13320   0.261E+00    0.279E+00
DAV:  12    -0.187103907379E+03   -0.13185E+00   -0.85746E-01 12440   0.500E+00    0.510E+00
DAV:  13    -0.186888152815E+03    0.21575E+00   -0.57901E-01 12880   0.414E+00    0.218E+00
DAV:  14    -0.186863995765E+03    0.24157E-01   -0.14056E-01 13360   0.217E+00    0.180E+00
DAV:  15    -0.186839934025E+03    0.24062E-01   -0.75977E-02 12480   0.165E+00    0.818E-01
DAV:  16    -0.186833136267E+03    0.67978E-02   -0.11088E-02 12080   0.413E-01    0.461E-01
DAV:  17    -0.186831431754E+03    0.17045E-02   -0.79695E-03 12760   0.395E-01    0.240E-01
DAV:  18    -0.186830654254E+03    0.77750E-03   -0.29222E-03 12120   0.165E-01    0.201E-01
DAV:  19    -0.186830268045E+03    0.38621E-03   -0.10789E-03 11160   0.159E-01    0.472E-02
DAV:  20    -0.186831051787E+03   -0.78374E-03   -0.75172E-04  9280   0.604E-02    0.502E-02
DAV:  21    -0.186831661688E+03   -0.60990E-03   -0.21958E-04  8160   0.404E-02    0.403E-02
DAV:  22    -0.186832762882E+03   -0.11012E-02   -0.18055E-04  7440   0.518E-02    0.355E-02
DAV:  23    -0.186833991462E+03   -0.12286E-02   -0.13634E-04  7440   0.428E-02    0.123E-02
DAV:  24    -0.186834585684E+03   -0.59422E-03   -0.30526E-05  6760   0.142E-02    0.611E-03
DAV:  25    -0.186834940851E+03   -0.35517E-03   -0.15206E-05  5520   0.975E-03    0.469E-03
DAV:  26    -0.186835185119E+03   -0.24427E-03   -0.94620E-06  6800   0.740E-03    0.143E-03
DAV:  27    -0.186835283214E+03   -0.98094E-04   -0.36174E-06  7200   0.449E-03
   1 F= -.18683528E+03 E0= -.18666299E+03  d E =-.186835E+03
       N       E                     dE             d eps       ncg     rms          rms(c)
DAV:   1    -0.187450459997E+03   -0.61527E+00   -0.27134E+02  8160   0.350E+01    0.460E+00
DAV:   2    -0.189254759427E+03   -0.18043E+01   -0.20036E+01 12240   0.149E+01    0.793E+00
DAV:   3    -0.189356911571E+03   -0.10215E+00   -0.35842E+00 12480   0.116E+01    0.695E+00
DAV:   4    -0.188720789563E+03    0.63612E+00   -0.63890E-01 12760   0.490E+00    0.183E+00
DAV:   5    -0.188727975106E+03   -0.71855E-02   -0.30592E-01 10880   0.147E+00    0.234E+00
DAV:   6    -0.188649681266E+03    0.78294E-01   -0.29877E-01 11240   0.154E+00    0.118E+00
DAV:   7    -0.188657408762E+03   -0.77275E-02   -0.12007E-01 12320   0.182E+00    0.190E+00
DAV:   8    -0.188630080599E+03    0.27328E-01   -0.59128E-02 13320   0.142E+00    0.556E-01
DAV:   9    -0.188626690747E+03    0.33899E-02   -0.80175E-03 11600   0.377E-01    0.263E-01
DAV:  10    -0.188627781835E+03   -0.10911E-02   -0.51055E-03 13480   0.411E-01    0.462E-01
DAV:  11    -0.188626159631E+03    0.16222E-02   -0.38436E-03 12840   0.343E-01    0.125E-01
DAV:  12    -0.188626101022E+03    0.58610E-04   -0.96078E-04 11960   0.104E-01
   2 F= -.18862610E+03 E0= -.18848419E+03  d E =-.179082E+01
       N       E                     dE             d eps       ncg     rms          rms(c)
DAV:   1    -0.190541613478E+03   -0.19155E+01   -0.30738E+01  9320   0.141E+01    0.447E+00
DAV:   2    -0.190560889418E+03   -0.19276E-01   -0.28718E+00 11400   0.989E+00    0.762E+00
DAV:   3    -0.190007422572E+03    0.55347E+00   -0.13310E+00 12360   0.870E+00    0.407E+00
DAV:   4    -0.189807616822E+03    0.19981E+00   -0.67374E-01 12760   0.396E+00    0.249E+00
DAV:   5    -0.189731432632E+03    0.76184E-01   -0.30643E-01 11360   0.212E+00    0.148E+00
DAV:   6    -0.189711343936E+03    0.20089E-01   -0.81755E-02 11920   0.167E+00    0.924E-01
DAV:   7    -0.189703501362E+03    0.78426E-02   -0.16711E-02 12640   0.721E-01    0.193E-01
DAV:   8    -0.189703541877E+03   -0.40515E-04   -0.24951E-03 11080   0.170E-01    0.145E-01
DAV:   9    -0.189703798444E+03   -0.25657E-03   -0.11291E-03 10800   0.174E-01    0.183E-01
DAV:  10    -0.189704112307E+03   -0.31386E-03   -0.15251E-03 10600   0.271E-01    0.231E-01
DAV:  11    -0.189703576641E+03    0.53567E-03   -0.82822E-04  9680   0.177E-01    0.268E-02
DAV:  12    -0.189703601199E+03   -0.24558E-04   -0.81274E-05  6120   0.340E-02
   3 F= -.18970360E+03 E0= -.18958424E+03  d E =-.107750E+01
       N       E                     dE             d eps       ncg     rms          rms(c)
DAV:   1    -0.191208770397E+03   -0.15052E+01   -0.66292E+01  8160   0.187E+01    0.457E+00
DAV:   2    -0.191158236595E+03    0.50534E-01   -0.53347E+00 13520   0.881E+00    0.563E+00
DAV:   3    -0.191074559776E+03    0.83677E-01   -0.15369E+00 12040   0.918E+00    0.580E+00
DAV:   4    -0.190757817916E+03    0.31674E+00   -0.10804E+00 13080   0.642E+00    0.277E+00
DAV:   5    -0.190743149654E+03    0.14668E-01   -0.41471E-01 12200   0.411E+00    0.303E+00
DAV:   6    -0.190639193516E+03    0.10396E+00   -0.19016E-01 12240   0.314E+00    0.966E-01
DAV:   7    -0.190632856368E+03    0.63371E-02   -0.36211E-02 12520   0.102E+00    0.529E-01
DAV:   8    -0.190631621647E+03    0.12347E-02   -0.12824E-02 11480   0.753E-01    0.567E-01
DAV:   9    -0.190628573713E+03    0.30479E-02   -0.47897E-03 11640   0.499E-01    0.138E-01
DAV:  10    -0.190628934989E+03   -0.36128E-03   -0.12069E-03 10120   0.124E-01    0.124E-01
DAV:  11    -0.190628738716E+03    0.19627E-03   -0.76341E-04 10840   0.106E-01    0.457E-02
DAV:  12    -0.190628742451E+03   -0.37345E-05   -0.11298E-04  7160   0.431E-02
   4 F= -.19062874E+03 E0= -.19052891E+03  d E =-.925141E+00
       N       E                     dE             d eps       ncg     rms          rms(c)
DAV:   1    -0.192079916414E+03   -0.14512E+01   -0.14266E+02  8160   0.270E+01    0.591E+00
DAV:   2    -0.191884264767E+03    0.19565E+00   -0.99515E+00 12600   0.984E+00    0.529E+00
DAV:   3    -0.192169026220E+03   -0.28476E+00   -0.24622E+00 10920   0.114E+01    0.942E+00
DAV:   4    -0.191531385272E+03    0.63764E+00   -0.29803E+00 12120   0.118E+01    0.412E+00
DAV:   5    -0.191455402891E+03    0.75982E-01   -0.86023E-01 12240   0.624E+00    0.372E+00
DAV:   6    -0.191265113194E+03    0.19029E+00   -0.29159E-01 12280   0.401E+00    0.988E-01
DAV:   7    -0.191258437786E+03    0.66754E-02   -0.54266E-02 12160   0.113E+00    0.545E-01
DAV:   8    -0.191253443888E+03    0.49939E-02   -0.10785E-02 10560   0.490E-01    0.259E-01
DAV:   9    -0.191254408931E+03   -0.96504E-03   -0.43204E-03 12640   0.478E-01    0.373E-01
DAV:  10    -0.191253491855E+03    0.91708E-03   -0.33614E-03 11240   0.387E-01    0.108E-01
DAV:  11    -0.191253394502E+03    0.97352E-04   -0.70887E-04 10400   0.106E-01
   5 F= -.19125339E+03 E0= -.19116125E+03  d E =-.624652E+00
       N       E                     dE             d eps       ncg     rms          rms(c)
DAV:   1    -0.191313811213E+03   -0.60319E-01   -0.53273E+00  8160   0.488E+00    0.637E-01
DAV:   2    -0.191370399786E+03   -0.56589E-01   -0.23450E-01 13440   0.258E+00    0.220E+00
DAV:   3    -0.191323500417E+03    0.46899E-01   -0.11147E-01 11800   0.232E+00    0.527E-01
DAV:   4    -0.191323173528E+03    0.32689E-03   -0.13279E-02 11440   0.782E-01    0.536E-01
DAV:   5    -0.191320288854E+03    0.28847E-02   -0.64569E-03 11360   0.612E-01    0.220E-01
DAV:   6    -0.191319800525E+03    0.48833E-03   -0.17916E-03 11120   0.226E-01    0.121E-01
DAV:   7    -0.191320152117E+03   -0.35159E-03   -0.16845E-03 11640   0.273E-01    0.219E-01
DAV:   8    -0.191319666163E+03    0.48595E-03   -0.10248E-03  9560   0.246E-01    0.641E-02
DAV:   9    -0.191319628499E+03    0.37664E-04   -0.10808E-04  6160   0.625E-02
   6 F= -.19131963E+03 E0= -.19122420E+03  d E =-.662340E-01
       N       E                     dE             d eps       ncg     rms          rms(c)
DAV:   1    -0.191360338128E+03   -0.40672E-01   -0.22502E+00  8160   0.317E+00    0.406E-01
DAV:   2    -0.191382457572E+03   -0.22119E-01   -0.90956E-02 13600   0.167E+00    0.137E+00
DAV:   3    -0.191363540154E+03    0.18917E-01   -0.42101E-02 11880   0.144E+00    0.324E-01
DAV:   4    -0.191363675908E+03   -0.13575E-03   -0.54936E-03 11320   0.505E-01    0.357E-01
DAV:   5    -0.191362418342E+03    0.12576E-02   -0.27871E-03 11200   0.398E-01    0.139E-01
DAV:   6    -0.191362241161E+03    0.17718E-03   -0.76709E-04 10560   0.143E-01    0.772E-02
DAV:   7    -0.191362344409E+03   -0.10325E-03   -0.58597E-04  9640   0.154E-01    0.122E-01
DAV:   8    -0.191362195215E+03    0.14919E-03   -0.34706E-04  8600   0.145E-01    0.415E-02
DAV:   9    -0.191362182904E+03    0.12311E-04   -0.47223E-05  6360   0.434E-02
   7 F= -.19136218E+03 E0= -.19126482E+03  d E =-.425544E-01
       N       E                     dE             d eps       ncg     rms          rms(c)
DAV:   1    -0.191313706999E+03    0.48488E-01   -0.28314E+00  8160   0.357E+00    0.444E-01
DAV:   2    -0.191335147565E+03   -0.21441E-01   -0.10286E-01 13600   0.171E+00    0.125E+00
DAV:   3    -0.191316827922E+03    0.18320E-01   -0.33044E-02 11960   0.139E+00    0.319E-01
DAV:   4    -0.191317057576E+03   -0.22965E-03   -0.60107E-03 11160   0.495E-01    0.374E-01
DAV:   5    -0.191315780614E+03    0.12770E-02   -0.36157E-03 11280   0.450E-01    0.190E-01
DAV:   6    -0.191315421227E+03    0.35939E-03   -0.12472E-03 10440   0.205E-01    0.856E-02
DAV:   7    -0.191315382952E+03    0.38275E-04   -0.52763E-04 10240   0.104E-01
   8 F= -.19131538E+03 E0= -.19122024E+03  d E =0.468000E-01
       N       E                     dE             d eps       ncg     rms          rms(c)
DAV:   1    -0.191239896136E+03    0.75525E-01   -0.85982E+00  8160   0.622E+00    0.695E-01
DAV:   2    -0.191279276593E+03   -0.39380E-01   -0.25728E-01 13600   0.210E+00    0.152E+00
DAV:   3    -0.191252756150E+03    0.26520E-01   -0.69895E-02 12200   0.196E+00    0.698E-01
DAV:   4    -0.191250300328E+03    0.24558E-02   -0.18130E-02 12640   0.836E-01    0.504E-01
DAV:   5    -0.191248178684E+03    0.21216E-02   -0.86045E-03 11760   0.669E-01    0.381E-01
DAV:   6    -0.191246927440E+03    0.12512E-02   -0.43676E-03 11400   0.465E-01    0.192E-01
DAV:   7    -0.191246841549E+03    0.85891E-04   -0.18598E-03 11920   0.251E-01    0.159E-01
DAV:   8    -0.191246597022E+03    0.24453E-03   -0.83957E-04  9760   0.219E-01    0.100E-01
DAV:   9    -0.191246486333E+03    0.11069E-03   -0.21313E-04  7240   0.107E-01    0.234E-02
DAV:  10    -0.191246489716E+03   -0.33829E-05   -0.62649E-05  7480   0.318E-02
   9 F= -.19124649E+03 E0= -.19115522E+03  d E =0.688932E-01
       N       E                     dE             d eps       ncg     rms          rms(c)
DAV:   1    -0.191290190336E+03   -0.43704E-01   -0.35187E+00  8160   0.397E+00    0.485E-01
DAV:   2    -0.191317442246E+03   -0.27252E-01   -0.13022E-01 13520   0.166E+00    0.151E+00
DAV:   3    -0.191295804921E+03    0.21637E-01   -0.58270E-02 12120   0.166E+00    0.454E-01
DAV:   4    -0.191294795299E+03    0.10096E-02   -0.74289E-03 11080   0.537E-01    0.372E-01
DAV:   5    -0.191293474676E+03    0.13206E-02   -0.35214E-03 11120   0.455E-01    0.195E-01
DAV:   6    -0.191293185584E+03    0.28909E-03   -0.15366E-03 10520   0.234E-01    0.128E-01
DAV:   7    -0.191293301462E+03   -0.11588E-03   -0.12055E-03 10720   0.235E-01    0.172E-01
DAV:   8    -0.191293005179E+03    0.29628E-03   -0.63964E-04  8880   0.196E-01    0.527E-02
DAV:   9    -0.191292980925E+03    0.24253E-04   -0.74834E-05  6320   0.510E-02
  10 F= -.19129298E+03 E0= -.19119849E+03  d E =-.464912E-01
       N       E                     dE             d eps       ncg     rms          rms(c)
DAV:   1    -0.191316073323E+03   -0.23068E-01   -0.80863E-01  8160   0.192E+00    0.280E-01
DAV:   2    -0.191325425889E+03   -0.93526E-02   -0.38247E-02 13600   0.115E+00    0.909E-01
DAV:   3    -0.191316719095E+03    0.87068E-02   -0.17270E-02 11760   0.955E-01    0.196E-01
DAV:   4    -0.191316953291E+03   -0.23420E-03   -0.26100E-03 11360   0.349E-01    0.261E-01
DAV:   5    -0.191316309180E+03    0.64411E-03   -0.16181E-03 10080   0.300E-01    0.115E-01
DAV:   6    -0.191316163590E+03    0.14559E-03   -0.48557E-04  9040   0.122E-01    0.558E-02
DAV:   7    -0.191316213741E+03   -0.50150E-04   -0.32883E-04  7920   0.126E-01
  11 F= -.19131621E+03 E0= -.19121999E+03  d E =-.232328E-01
       N       E                     dE             d eps       ncg     rms          rms(c)
DAV:   1    -0.191373817379E+03   -0.57654E-01   -0.54928E+00  8160   0.497E+00    0.644E-01
DAV:   2    -0.191429133613E+03   -0.55316E-01   -0.22645E-01 13600   0.262E+00    0.226E+00
DAV:   3    -0.191381516976E+03    0.47617E-01   -0.11990E-01 12120   0.233E+00    0.540E-01
DAV:   4    -0.191381468784E+03    0.48192E-04   -0.14594E-02 11640   0.827E-01    0.575E-01
DAV:   5    -0.191378195929E+03    0.32729E-02   -0.75470E-03 11520   0.648E-01    0.238E-01
DAV:   6    -0.191377611042E+03    0.58489E-03   -0.23594E-03 10680   0.265E-01    0.145E-01
DAV:   7    -0.191378136691E+03   -0.52565E-03   -0.22908E-03 11920   0.343E-01    0.267E-01
DAV:   8    -0.191377358158E+03    0.77853E-03   -0.12677E-03 10200   0.269E-01    0.481E-02
DAV:   9    -0.191377338764E+03    0.19394E-04   -0.90553E-05  6120   0.483E-02
  12 F= -.19137734E+03 E0= -.19127750E+03  d E =-.611250E-01
       N       E                     dE             d eps       ncg     rms          rms(c)
DAV:   1    -0.191306096140E+03    0.71262E-01   -0.66930E+00  8160   0.549E+00    0.691E-01
DAV:   2    -0.191359607589E+03   -0.53511E-01   -0.24889E-01 13600   0.267E+00    0.196E+00
DAV:   3    -0.191313501294E+03    0.46106E-01   -0.80989E-02 12280   0.218E+00    0.499E-01
DAV:   4    -0.191313890973E+03   -0.38968E-03   -0.14464E-02 11400   0.773E-01    0.574E-01
DAV:   5    -0.191310860904E+03    0.30301E-02   -0.85599E-03 11400   0.688E-01    0.285E-01
DAV:   6    -0.191309986002E+03    0.87490E-03   -0.27879E-03 12120   0.304E-01    0.125E-01
DAV:   7    -0.191309925107E+03    0.60895E-04   -0.11800E-03 11040   0.164E-01    0.110E-01
DAV:   8    -0.191309813964E+03    0.11114E-03   -0.49915E-04  9240   0.164E-01    0.858E-02
DAV:   9    -0.191309737239E+03    0.76725E-04   -0.14757E-04  6240   0.939E-02
  13 F= -.19130974E+03 E0= -.19121385E+03  d E =0.676015E-01
       N       E                     dE             d eps       ncg     rms          rms(c)
DAV:   1    -0.191233802215E+03    0.76012E-01   -0.87355E+00  8160   0.628E+00    0.725E-01
DAV:   2    -0.191282498710E+03   -0.48696E-01   -0.27934E-01 13600   0.234E+00    0.177E+00
DAV:   3    -0.191246480402E+03    0.36018E-01   -0.86351E-02 12320   0.217E+00    0.695E-01
DAV:   4    -0.191244075403E+03    0.24050E-02   -0.18978E-02 12360   0.847E-01    0.528E-01
DAV:   5    -0.191241769977E+03    0.23054E-02   -0.88939E-03 11840   0.692E-01    0.370E-01
DAV:   6    -0.191240425947E+03    0.13440E-02   -0.40819E-03 11200   0.440E-01    0.177E-01
DAV:   7    -0.191240520403E+03   -0.94456E-04   -0.20745E-03 11840   0.266E-01    0.189E-01
DAV:   8    -0.191240172860E+03    0.34754E-03   -0.11123E-03 10240   0.252E-01    0.111E-01
DAV:   9    -0.191240029608E+03    0.14325E-03   -0.27140E-04  8240   0.113E-01    0.243E-02
DAV:  10    -0.191240033084E+03   -0.34762E-05   -0.57947E-05  7200   0.308E-02
  14 F= -.19124003E+03 E0= -.19114883E+03  d E =0.697042E-01
       N       E                     dE             d eps       ncg     rms          rms(c)
DAV:   1    -0.191282609339E+03   -0.42580E-01   -0.36650E+00  8160   0.404E+00    0.492E-01
DAV:   2    -0.191312800851E+03   -0.30192E-01   -0.13312E-01 13520   0.180E+00    0.159E+00
DAV:   3    -0.191287871387E+03    0.24929E-01   -0.62101E-02 12280   0.174E+00    0.434E-01
DAV:   4    -0.191287334393E+03    0.53699E-03   -0.78724E-03 11400   0.567E-01    0.402E-01
DAV:   5    -0.191285805470E+03    0.15289E-02   -0.38727E-03 11400   0.471E-01    0.192E-01
DAV:   6    -0.191285482514E+03    0.32296E-03   -0.13860E-03 10360   0.223E-01    0.123E-01
DAV:   7    -0.191285767250E+03   -0.28474E-03   -0.13437E-03 10600   0.266E-01    0.204E-01
DAV:   8    -0.191285322881E+03    0.44437E-03   -0.74689E-04  8920   0.212E-01    0.426E-02
DAV:   9    -0.191285312791E+03    0.10091E-04   -0.67782E-05  6160   0.420E-02
  15 F= -.19128531E+03 E0= -.19119051E+03  d E =-.452797E-01
       N       E                     dE             d eps       ncg     rms          rms(c)
DAV:   1    -0.191302351632E+03   -0.17029E-01   -0.49952E-01  8160   0.151E+00    0.220E-01
DAV:   2    -0.191308447279E+03   -0.60956E-02   -0.24220E-02 13600   0.917E-01    0.732E-01
DAV:   3    -0.191302761418E+03    0.56859E-02   -0.11088E-02 11800   0.766E-01    0.154E-01
DAV:   4    -0.191302899481E+03   -0.13806E-03   -0.15777E-03 10120   0.270E-01    0.199E-01
DAV:   5    -0.191302526029E+03    0.37345E-03   -0.95554E-04 10040   0.229E-01    0.889E-02
DAV:   6    -0.191302443171E+03    0.82859E-04   -0.27151E-04  7360   0.957E-02
  16 F= -.19130244E+03 E0= -.19120613E+03  d E =-.171304E-01
       N       E                     dE             d eps       ncg     rms          rms(c)
DAV:   1    -0.191362339410E+03   -0.59813E-01   -0.66152E+00  8160   0.546E+00    0.746E-01
DAV:   2    -0.191438183239E+03   -0.75844E-01   -0.29562E-01 13520   0.308E+00    0.271E+00
DAV:   3    -0.191370788601E+03    0.67395E-01   -0.16913E-01 12200   0.274E+00    0.611E-01
DAV:   4    -0.191371266742E+03   -0.47814E-03   -0.20376E-02 11640   0.994E-01    0.694E-01
DAV:   5    -0.191366345186E+03    0.49216E-02   -0.10585E-02 11680   0.757E-01    0.261E-01
DAV:   6    -0.191365675262E+03    0.66992E-03   -0.32485E-03 11080   0.309E-01    0.181E-01
DAV:   7    -0.191366282938E+03   -0.60768E-03   -0.32660E-03 11880   0.413E-01    0.304E-01
DAV:   8    -0.191365274056E+03    0.10089E-02   -0.16489E-03 10120   0.301E-01    0.532E-02
DAV:   9    -0.191365244653E+03    0.29403E-04   -0.11715E-04  6080   0.523E-02
  17 F= -.19136524E+03 E0= -.19126428E+03  d E =-.628015E-01
       N       E                     dE             d eps       ncg     rms          rms(c)
DAV:   1    -0.191382935108E+03   -0.17661E-01   -0.51329E-01  8160   0.152E+00    0.187E-01
DAV:   2    -0.191386873460E+03   -0.39384E-02   -0.18716E-02 13600   0.687E-01    0.571E-01
DAV:   3    -0.191383610382E+03    0.32631E-02   -0.79233E-03 11720   0.622E-01    0.162E-01
DAV:   4    -0.191383608266E+03    0.21154E-05   -0.11898E-03  9920   0.223E-01    0.160E-01
DAV:   5    -0.191383367303E+03    0.24096E-03   -0.64024E-04  8960   0.190E-01    0.774E-02
DAV:   6    -0.191383325001E+03    0.42302E-04   -0.20289E-04  6440   0.942E-02
  18 F= -.19138333E+03 E0= -.19128147E+03  d E =-.180803E-01
       N       E                     dE             d eps       ncg     rms          rms(c)
DAV:   1    -0.191382828953E+03    0.53835E-03   -0.58279E-02  8160   0.584E-01    0.164E-01
DAV:   2    -0.191385199482E+03   -0.23705E-02   -0.80497E-03 11800   0.606E-01    0.518E-01
DAV:   3    -0.191382346721E+03    0.28528E-02   -0.51477E-03 11280   0.552E-01    0.116E-01
DAV:   4    -0.191382253269E+03    0.93451E-04   -0.55731E-04  8480   0.139E-01
  19 F= -.19138225E+03 E0= -.19128039E+03  d E =0.107173E-02
       N       E                     dE             d eps       ncg     rms          rms(c)
DAV:   1    -0.191433925627E+03   -0.51579E-01   -0.38735E+00  8160   0.422E+00    0.657E-01
DAV:   2    -0.191498410715E+03   -0.64485E-01   -0.22466E-01 12520   0.281E+00    0.256E+00
DAV:   3    -0.191437879524E+03    0.60531E-01   -0.14112E-01 12160   0.250E+00    0.483E-01
DAV:   4    -0.191438777335E+03   -0.89781E-03   -0.14427E-02 11560   0.838E-01    0.599E-01
DAV:   5    -0.191435063737E+03    0.37136E-02   -0.81233E-03 11400   0.659E-01    0.226E-01
DAV:   6    -0.191434840136E+03    0.22360E-03   -0.29387E-03 11640   0.326E-01    0.218E-01
DAV:   7    -0.191434807937E+03    0.32200E-04   -0.25978E-03 11840   0.369E-01    0.209E-01
DAV:   8    -0.191434290558E+03    0.51738E-03   -0.88446E-04  9480   0.205E-01    0.408E-02
DAV:   9    -0.191434268648E+03    0.21910E-04   -0.10440E-04  6360   0.443E-02
  20 F= -.19143427E+03 E0= -.19133079E+03  d E =-.520154E-01
       N       E                     dE             d eps       ncg     rms          rms(c)
DAV:   1    -0.191443152191E+03   -0.88616E-02   -0.11681E-01  8160   0.729E-01    0.899E-02
DAV:   2    -0.191443918108E+03   -0.76592E-03   -0.43969E-03 13520   0.320E-01    0.245E-01
DAV:   3    -0.191443326549E+03    0.59156E-03   -0.15713E-03 10240   0.276E-01    0.814E-02
DAV:   4    -0.191443331515E+03   -0.49658E-05   -0.28485E-04  6800   0.115E-01
  21 F= -.19144333E+03 E0= -.19133977E+03  d E =-.906287E-02
       N       E                     dE             d eps       ncg     rms          rms(c)
DAV:   1    -0.191366295353E+03    0.77031E-01   -0.76711E+00  8160   0.590E+00    0.713E-01
DAV:   2    -0.191410913880E+03   -0.44619E-01   -0.27006E-01 13600   0.250E+00    0.172E+00
DAV:   3    -0.191375872515E+03    0.35041E-01   -0.73842E-02 12280   0.206E+00    0.527E-01
DAV:   4    -0.191375017345E+03    0.85517E-03   -0.14530E-02 11480   0.724E-01    0.521E-01
DAV:   5    -0.191373118977E+03    0.18984E-02   -0.10238E-02 11760   0.720E-01    0.387E-01
DAV:   6    -0.191371799001E+03    0.13200E-02   -0.41902E-03 11880   0.409E-01    0.163E-01
DAV:   7    -0.191372008043E+03   -0.20904E-03   -0.23695E-03 11880   0.301E-01    0.232E-01
DAV:   8    -0.191371461268E+03    0.54677E-03   -0.12740E-03  9760   0.264E-01    0.811E-02
DAV:   9    -0.191371388582E+03    0.72686E-04   -0.17030E-04  6320   0.805E-02
  22 F= -.19137139E+03 E0= -.19126992E+03  d E =0.719429E-01
       N       E                     dE             d eps       ncg     rms          rms(c)
DAV:   1    -0.191356053621E+03    0.15408E-01   -0.48161E-01  8160   0.148E+00    0.167E-01
DAV:   2    -0.191357686061E+03   -0.16324E-02   -0.14257E-02 13400   0.413E-01    0.289E-01
DAV:   3    -0.191356841898E+03    0.84416E-03   -0.36533E-03 11480   0.421E-01    0.196E-01
DAV:   4    -0.191356577363E+03    0.26454E-03   -0.10858E-03  9880   0.222E-01    0.114E-01
DAV:   5    -0.191356502098E+03    0.75265E-04   -0.56354E-04  8880   0.159E-01
  23 F= -.19135650E+03 E0= -.19125583E+03  d E =0.148865E-01
       N       E                     dE             d eps       ncg     rms          rms(c)
DAV:   1    -0.191377045946E+03   -0.20469E-01   -0.15877E+00  8160   0.265E+00    0.338E-01
DAV:   2    -0.191394867648E+03   -0.17822E-01   -0.68590E-02 13600   0.144E+00    0.129E+00
DAV:   3    -0.191379266997E+03    0.15601E-01   -0.34129E-02 12320   0.126E+00    0.237E-01
DAV:   4    -0.191379484416E+03   -0.21742E-03   -0.31834E-03 11240   0.353E-01    0.286E-01
DAV:   5    -0.191378728595E+03    0.75582E-03   -0.20431E-03 10240   0.340E-01    0.135E-01
DAV:   6    -0.191378623653E+03    0.10494E-03   -0.74777E-04  9800   0.165E-01    0.853E-02
DAV:   7    -0.191378691279E+03   -0.67627E-04   -0.51900E-04  9440   0.168E-01
  24 F= -.19137869E+03 E0= -.19127680E+03  d E =-.221892E-01
       N       E                     dE             d eps       ncg     rms          rms(c)
DAV:   1    -0.191405076097E+03   -0.26452E-01   -0.15214E+00  8160   0.267E+00    0.338E-01
DAV:   2    -0.191413164579E+03   -0.80885E-02   -0.54185E-02 13520   0.109E+00    0.770E-01
DAV:   3    -0.191406849574E+03    0.63150E-02   -0.17337E-02 12160   0.962E-01    0.286E-01
DAV:   4    -0.191406364001E+03    0.48557E-03   -0.34936E-03 11320   0.363E-01    0.238E-01
DAV:   5    -0.191406058526E+03    0.30547E-03   -0.25280E-03 10880   0.352E-01    0.219E-01
DAV:   6    -0.191405630101E+03    0.42843E-03   -0.14198E-03  9640   0.249E-01    0.952E-02
DAV:   7    -0.191405636497E+03   -0.63963E-05   -0.57219E-04  8440   0.142E-01
  25 F= -.19140564E+03 E0= -.19130231E+03  d E =-.269452E-01
       N       E                     dE             d eps       ncg     rms          rms(c)
DAV:   1    -0.191411470808E+03   -0.58407E-02   -0.54751E-02  8160   0.519E-01    0.911E-02
DAV:   2    -0.191412917505E+03   -0.14467E-02   -0.43654E-03 13240   0.389E-01    0.366E-01
DAV:   3    -0.191411480941E+03    0.14366E-02   -0.25805E-03 10040   0.361E-01    0.606E-02
DAV:   4    -0.191411494409E+03   -0.13468E-04   -0.16768E-04  6040   0.732E-02
  26 F= -.19141149E+03 E0= -.19130811E+03  d E =-.585791E-02
       N       E                     dE             d eps       ncg     rms          rms(c)
DAV:   1    -0.191350309841E+03    0.61171E-01   -0.77135E+00  8160   0.592E+00    0.773E-01
DAV:   2    -0.191416728320E+03   -0.66418E-01   -0.28740E-01 13600   0.292E+00    0.226E+00
DAV:   3    -0.191356264514E+03    0.60464E-01   -0.11207E-01 12160   0.253E+00    0.584E-01
DAV:   4    -0.191356559675E+03   -0.29516E-03   -0.19826E-02 11280   0.898E-01    0.666E-01
DAV:   5    -0.191352700904E+03    0.38588E-02   -0.12045E-02 12120   0.797E-01    0.372E-01
DAV:   6    -0.191351475398E+03    0.12255E-02   -0.52202E-03 11720   0.463E-01    0.248E-01
DAV:   7    -0.191351860596E+03   -0.38520E-03   -0.40110E-03 11920   0.439E-01    0.310E-01
DAV:   8    -0.191350859536E+03    0.10011E-02   -0.19216E-03  9760   0.308E-01    0.652E-02
DAV:   9    -0.191350796962E+03    0.62574E-04   -0.20264E-04  7200   0.657E-02
  27 F= -.19135080E+03 E0= -.19125017E+03  d E =0.606974E-01
       N       E                     dE             d eps       ncg     rms          rms(c)
DAV:   1    -0.191410523194E+03   -0.59664E-01   -0.66047E+00  8160   0.547E+00    0.770E-01
DAV:   2    -0.191493850478E+03   -0.83327E-01   -0.29379E-01 13560   0.320E+00    0.288E+00
DAV:   3    -0.191415121054E+03    0.78729E-01   -0.17842E-01 12320   0.290E+00    0.550E-01
DAV:   4    -0.191415564528E+03   -0.44347E-03   -0.18477E-02 12280   0.866E-01    0.669E-01
DAV:   5    -0.191411846504E+03    0.37180E-02   -0.12724E-02 12160   0.814E-01    0.370E-01
DAV:   6    -0.191410564776E+03    0.12817E-02   -0.49807E-03 11640   0.439E-01    0.232E-01
DAV:   7    -0.191410765493E+03   -0.20072E-03   -0.35587E-03 11920   0.423E-01    0.265E-01
DAV:   8    -0.191409976929E+03    0.78856E-03   -0.14076E-03  9960   0.269E-01    0.565E-02
DAV:   9    -0.191409923172E+03    0.53756E-04   -0.15971E-04  6040   0.602E-02
  28 F= -.19140992E+03 E0= -.19130634E+03  d E =-.591262E-01
       N       E                     dE             d eps       ncg     rms          rms(c)
DAV:   1    -0.191434232760E+03   -0.24256E-01   -0.10734E+00  8160   0.220E+00    0.273E-01
DAV:   2    -0.191443602025E+03   -0.93693E-02   -0.41199E-02 13600   0.105E+00    0.922E-01
DAV:   3    -0.191435533550E+03    0.80685E-02   -0.19228E-02 12040   0.944E-01    0.216E-01
DAV:   4    -0.191435639155E+03   -0.10561E-03   -0.23355E-03 11440   0.308E-01    0.241E-01
DAV:   5    -0.191435093580E+03    0.54558E-03   -0.14960E-03 10200   0.285E-01    0.114E-01
DAV:   6    -0.191435046424E+03    0.47156E-04   -0.56597E-04  8640   0.151E-01
  29 F= -.19143505E+03 E0= -.19133088E+03  d E =-.251233E-01
       N       E                     dE             d eps       ncg     rms          rms(c)
DAV:   1    -0.191389818521E+03    0.45275E-01   -0.32629E+00  8160   0.387E+00    0.526E-01
DAV:   2    -0.191420006545E+03   -0.30188E-01   -0.13893E-01 13600   0.196E+00    0.161E+00
DAV:   3    -0.191393135941E+03    0.26871E-01   -0.60860E-02 12360   0.177E+00    0.415E-01
DAV:   4    -0.191392437230E+03    0.69871E-03   -0.79705E-03 11120   0.552E-01    0.369E-01
DAV:   5    -0.191391335075E+03    0.11022E-02   -0.51257E-03 11520   0.525E-01    0.271E-01
DAV:   6    -0.191390705217E+03    0.62986E-03   -0.24781E-03 11480   0.331E-01    0.158E-01
DAV:   7    -0.191390889896E+03   -0.18468E-03   -0.17815E-03  9960   0.293E-01    0.207E-01
DAV:   8    -0.191390439095E+03    0.45080E-03   -0.81626E-04  8400   0.204E-01    0.424E-02
DAV:   9    -0.191390423291E+03    0.15804E-04   -0.89874E-05  6240   0.474E-02
  30 F= -.19139042E+03 E0= -.19128769E+03  d E =0.446231E-01
       N       E                     dE             d eps       ncg     rms          rms(c)
DAV:   1    -0.191455568471E+03   -0.65129E-01   -0.69284E+00  8160   0.565E+00    0.801E-01
DAV:   2    -0.191527043087E+03   -0.71475E-01   -0.31421E-01 13520   0.303E+00    0.270E+00
DAV:   3    -0.191462230811E+03    0.64812E-01   -0.17253E-01 12280   0.276E+00    0.640E-01
DAV:   4    -0.191463378592E+03   -0.11478E-02   -0.24012E-02 12240   0.106E+00    0.804E-01
DAV:   5    -0.191457177478E+03    0.62011E-02   -0.16224E-02 11960   0.933E-01    0.361E-01
DAV:   6    -0.191456374558E+03    0.80292E-03   -0.61955E-03 11600   0.485E-01    0.294E-01
DAV:   7    -0.191456198644E+03    0.17591E-03   -0.45555E-03 11800   0.484E-01    0.266E-01
DAV:   8    -0.191455362765E+03    0.83588E-03   -0.14803E-03  9760   0.266E-01    0.563E-02
DAV:   9    -0.191455308518E+03    0.54247E-04   -0.18549E-04  6800   0.595E-02
  31 F= -.19145531E+03 E0= -.19135075E+03  d E =-.648852E-01
       N       E                     dE             d eps       ncg     rms          rms(c)
DAV:   1    -0.191472364245E+03   -0.17001E-01   -0.48301E-01  8160   0.148E+00    0.172E-01
DAV:   2    -0.191474795044E+03   -0.24308E-02   -0.15849E-02 13520   0.533E-01    0.437E-01
DAV:   3    -0.191473077481E+03    0.17176E-02   -0.56850E-03 11840   0.511E-01    0.179E-01
DAV:   4    -0.191472883936E+03    0.19354E-03   -0.94439E-04  9680   0.177E-01    0.110E-01
DAV:   5    -0.191472837245E+03    0.46691E-04   -0.62508E-04  9040   0.177E-01
  32 F= -.19147284E+03 E0= -.19136843E+03  d E =-.175287E-01
       N       E                     dE             d eps       ncg     rms          rms(c)
DAV:   1    -0.191507129796E+03   -0.34246E-01   -0.19256E+00  8160   0.295E+00    0.354E-01
DAV:   2    -0.191518801357E+03   -0.11672E-01   -0.63386E-02 13560   0.120E+00    0.993E-01
DAV:   3    -0.191509444174E+03    0.93572E-02   -0.25989E-02 12400   0.112E+00    0.300E-01
DAV:   4    -0.191509300746E+03    0.14343E-03   -0.36635E-03 11480   0.375E-01    0.302E-01
DAV:   5    -0.191508547358E+03    0.75339E-03   -0.26794E-03 10640   0.380E-01    0.168E-01
DAV:   6    -0.191508412760E+03    0.13460E-03   -0.11076E-03  9680   0.201E-01    0.989E-02
DAV:   7    -0.191508387588E+03    0.25173E-04   -0.56733E-04  9760   0.169E-01
  33 F= -.19150839E+03 E0= -.19140469E+03  d E =-.355503E-01
       N       E                     dE             d eps       ncg     rms          rms(c)
DAV:   1    -0.191507841916E+03    0.57084E-03   -0.16737E-02  8160   0.335E-01    0.657E-02
DAV:   2    -0.191508277012E+03   -0.43510E-03   -0.15511E-03 11880   0.247E-01    0.216E-01
DAV:   3    -0.191507789018E+03    0.48799E-03   -0.89066E-04  8520   0.225E-01    0.461E-02
DAV:   4    -0.191507793655E+03   -0.46363E-05   -0.11984E-04  5640   0.640E-02
  34 F= -.19150779E+03 E0= -.19140364E+03  d E =0.593933E-03
       N       E                     dE             d eps       ncg     rms          rms(c)
DAV:   1    -0.191557082837E+03   -0.49294E-01   -0.42991E+00  8160   0.441E+00    0.514E-01
DAV:   2    -0.191581430018E+03   -0.24347E-01   -0.15098E-01 13040   0.174E+00    0.134E+00
DAV:   3    -0.191564052479E+03    0.17378E-01   -0.53860E-02 12440   0.163E+00    0.459E-01
DAV:   4    -0.191562764300E+03    0.12882E-02   -0.68783E-03 11240   0.488E-01    0.330E-01
DAV:   5    -0.191562088955E+03    0.67534E-03   -0.47370E-03 12400   0.489E-01    0.302E-01
DAV:   6    -0.191561561057E+03    0.52790E-03   -0.30511E-03 11600   0.369E-01    0.164E-01
DAV:   7    -0.191561308194E+03    0.25286E-03   -0.10918E-03  9960   0.187E-01    0.103E-01
DAV:   8    -0.191561200537E+03    0.10766E-03   -0.30362E-04  9240   0.137E-01    0.452E-02
DAV:   9    -0.191561179243E+03    0.21294E-04   -0.71688E-05  6160   0.573E-02
  35 F= -.19156118E+03 E0= -.19145920E+03  d E =-.533856E-01
       N       E                     dE             d eps       ncg     rms          rms(c)
DAV:   1    -0.191471981638E+03    0.89219E-01   -0.10144E+01  8160   0.682E+00    0.777E-01
DAV:   2    -0.191515890487E+03   -0.43909E-01   -0.34715E-01 13240   0.233E+00    0.171E+00
DAV:   3    -0.191490708477E+03    0.25182E-01   -0.10537E-01 12240   0.225E+00    0.821E-01
DAV:   4    -0.191484879726E+03    0.58288E-02   -0.18849E-02 12360   0.810E-01    0.437E-01
DAV:   5    -0.191483681412E+03    0.11983E-02   -0.11123E-02 11720   0.658E-01    0.498E-01
DAV:   6    -0.191482930249E+03    0.75116E-03   -0.10231E-02 11880   0.689E-01    0.370E-01
DAV:   7    -0.191481404307E+03    0.15259E-02   -0.35827E-03 11200   0.332E-01    0.111E-01
DAV:   8    -0.191481348231E+03    0.56075E-04   -0.71963E-04  9960   0.186E-01
  36 F= -.19148135E+03 E0= -.19137699E+03  d E =0.798310E-01
       N       E                     dE             d eps       ncg     rms          rms(c)
DAV:   1    -0.191544770702E+03   -0.63366E-01   -0.73180E+00  8160   0.576E+00    0.631E-01
DAV:   2    -0.191577081130E+03   -0.32310E-01   -0.22833E-01 13280   0.200E+00    0.151E+00
DAV:   3    -0.191556988314E+03    0.20093E-01   -0.76240E-02 12240   0.188E+00    0.651E-01
DAV:   4    -0.191554299249E+03    0.26891E-02   -0.12893E-02 11400   0.690E-01    0.457E-01
DAV:   5    -0.191552852538E+03    0.14467E-02   -0.86229E-03 12480   0.664E-01    0.385E-01
DAV:   6    -0.191551846679E+03    0.10059E-02   -0.50035E-03 12520   0.465E-01    0.195E-01
DAV:   7    -0.191551358691E+03    0.48799E-03   -0.15650E-03 11600   0.180E-01    0.602E-02
DAV:   8    -0.191551295476E+03    0.63215E-04   -0.20922E-04  7040   0.756E-02
  37 F= -.19155130E+03 E0= -.19144835E+03  d E =-.699472E-01
       N       E                     dE             d eps       ncg     rms          rms(c)
DAV:   1    -0.191552961711E+03   -0.16030E-02   -0.17498E-02  8200   0.290E-01    0.741E-02
DAV:   2    -0.191553575985E+03   -0.61427E-03   -0.20310E-03 11640   0.298E-01    0.246E-01
DAV:   3    -0.191552894321E+03    0.68166E-03   -0.11180E-03 10040   0.253E-01    0.463E-02
DAV:   4    -0.191552944785E+03   -0.50464E-04   -0.19312E-04  5840   0.105E-01
  38 F= -.19155294E+03 E0= -.19144996E+03  d E =-.164931E-02
       N       E                     dE             d eps       ncg     rms          rms(c)
DAV:   1    -0.191609373440E+03   -0.56479E-01   -0.53760E+00  8160   0.500E+00    0.619E-01
DAV:   2    -0.191625446883E+03   -0.16073E-01   -0.18254E-01 13440   0.167E+00    0.109E+00
DAV:   3    -0.191617910576E+03    0.75363E-02   -0.51424E-02 12040   0.157E+00    0.701E-01
DAV:   4    -0.191614236803E+03    0.36738E-02   -0.15942E-02 12320   0.851E-01    0.502E-01
DAV:   5    -0.191612474491E+03    0.17623E-02   -0.95073E-03 12160   0.746E-01    0.382E-01
DAV:   6    -0.191611268819E+03    0.12057E-02   -0.49989E-03 12320   0.453E-01    0.192E-01
DAV:   7    -0.191611290421E+03   -0.21603E-04   -0.23938E-03 11400   0.351E-01    0.218E-01
DAV:   8    -0.191610761114E+03    0.52931E-03   -0.10243E-03  9680   0.240E-01    0.541E-02
DAV:   9    -0.191610723045E+03    0.38069E-04   -0.12242E-04  6440   0.560E-02
  39 F= -.19161072E+03 E0= -.19150957E+03  d E =-.577783E-01
       N       E                     dE             d eps       ncg     rms          rms(c)
DAV:   1    -0.191638513698E+03   -0.27753E-01   -0.12147E+00  8160   0.235E+00    0.249E-01
DAV:   2    -0.191642093416E+03   -0.35797E-02   -0.35748E-02 12000   0.659E-01    0.445E-01
DAV:   3    -0.191640901124E+03    0.11923E-02   -0.88575E-03 12560   0.648E-01    0.313E-01
DAV:   4    -0.191640126370E+03    0.77475E-03   -0.23903E-03 10840   0.319E-01    0.150E-01
DAV:   5    -0.191639887140E+03    0.23923E-03   -0.10567E-03 11000   0.212E-01    0.118E-01
DAV:   6    -0.191639932086E+03   -0.44946E-04   -0.78354E-04 10040   0.209E-01
  40 F= -.19163993E+03 E0= -.19154011E+03  d E =-.292090E-01
       N       E                     dE             d eps       ncg     rms          rms(c)
DAV:   1    -0.191664525976E+03   -0.24639E-01   -0.95510E-01  8160   0.210E+00    0.238E-01
DAV:   2    -0.191668035828E+03   -0.35099E-02   -0.30542E-02 12680   0.694E-01    0.454E-01
DAV:   3    -0.191666208039E+03    0.18278E-02   -0.72577E-03 12320   0.635E-01    0.247E-01
DAV:   4    -0.191666061273E+03    0.14677E-03   -0.23158E-03 10160   0.332E-01    0.222E-01
DAV:   5    -0.191665575426E+03    0.48585E-03   -0.12577E-03 10000   0.268E-01    0.107E-01
DAV:   6    -0.191665533164E+03    0.42262E-04   -0.53692E-04  9040   0.134E-01
  41 F= -.19166553E+03 E0= -.19156718E+03  d E =-.256011E-01
       N       E                     dE             d eps       ncg     rms          rms(c)
DAV:   1    -0.191699542689E+03   -0.33967E-01   -0.18252E+00  8160   0.290E+00    0.308E-01
DAV:   2    -0.191703078579E+03   -0.35359E-02   -0.53572E-02 12360   0.656E-01    0.283E-01
DAV:   3    -0.191703912785E+03   -0.83421E-03   -0.78054E-03 12120   0.632E-01    0.432E-01
DAV:   4    -0.191702244595E+03    0.16682E-02   -0.45357E-03 11200   0.496E-01    0.208E-01
DAV:   5    -0.191701944909E+03    0.29969E-03   -0.16729E-03 10200   0.298E-01    0.164E-01
DAV:   6    -0.191701890312E+03    0.54598E-04   -0.10974E-03 10280   0.246E-01    0.118E-01
DAV:   7    -0.191701688313E+03    0.20200E-03   -0.37206E-04  8600   0.115E-01    0.259E-02
DAV:   8    -0.191701685569E+03    0.27445E-05   -0.56229E-05  6800   0.359E-02
  42 F= -.19170169E+03 E0= -.19160564E+03  d E =-.361524E-01
       N       E                     dE             d eps       ncg     rms          rms(c)
DAV:   1    -0.191769603989E+03   -0.67916E-01   -0.92536E+00  8160   0.654E+00    0.709E-01
DAV:   2    -0.191793016100E+03   -0.23412E-01   -0.28031E-01 12280   0.166E+00    0.901E-01
DAV:   3    -0.191790503595E+03    0.25125E-02   -0.47146E-02 11720   0.166E+00    0.919E-01
DAV:   4    -0.191784012326E+03    0.64913E-02   -0.22215E-02 11800   0.109E+00    0.495E-01
DAV:   5    -0.191781758521E+03    0.22538E-02   -0.86495E-03 12080   0.731E-01    0.354E-01
DAV:   6    -0.191781163705E+03    0.59482E-03   -0.48071E-03 12520   0.509E-01    0.228E-01
DAV:   7    -0.191780428010E+03    0.73570E-03   -0.16949E-03 10720   0.237E-01    0.874E-02
DAV:   8    -0.191780395147E+03    0.32862E-04   -0.37450E-04  9520   0.153E-01
  43 F= -.19178040E+03 E0= -.19168990E+03  d E =-.787096E-01
       N       E                     dE             d eps       ncg     rms          rms(c)
DAV:   1    -0.191793737765E+03   -0.13310E-01   -0.31353E-01  8160   0.132E+00    0.303E-01
DAV:   2    -0.191793594783E+03    0.14298E-03   -0.19141E-02 11440   0.644E-01    0.422E-01
DAV:   3    -0.191792352963E+03    0.12418E-02   -0.69995E-03 11440   0.706E-01    0.281E-01
DAV:   4    -0.191791359280E+03    0.99368E-03   -0.30221E-03 11320   0.387E-01    0.174E-01
DAV:   5    -0.191791384662E+03   -0.25383E-04   -0.23525E-03 10400   0.346E-01    0.209E-01
DAV:   6    -0.191790839766E+03    0.54490E-03   -0.98011E-04 10000   0.233E-01    0.345E-02
DAV:   7    -0.191790840571E+03   -0.80550E-06   -0.79307E-05  5640   0.500E-02
  44 F= -.19179084E+03 E0= -.19169997E+03  d E =-.104454E-01
       N       E                     dE             d eps       ncg     rms          rms(c)
DAV:   1    -0.191826600778E+03   -0.35761E-01   -0.25884E+00  8160   0.344E+00    0.381E-01
DAV:   2    -0.191835717913E+03   -0.91171E-02   -0.83092E-02 11960   0.113E+00    0.664E-01
DAV:   3    -0.191831618133E+03    0.40998E-02   -0.15105E-02 11920   0.992E-01    0.375E-01
DAV:   4    -0.191830740528E+03    0.87761E-03   -0.45911E-03 11960   0.503E-01    0.277E-01
DAV:   5    -0.191830092270E+03    0.64826E-03   -0.24733E-03 10960   0.416E-01    0.186E-01
DAV:   6    -0.191829899872E+03    0.19240E-03   -0.12281E-03 11720   0.236E-01    0.102E-01
DAV:   7    -0.191829769773E+03    0.13010E-03   -0.48834E-04  9400   0.131E-01    0.704E-02
DAV:   8    -0.191829720311E+03    0.49462E-04   -0.13354E-04  6520   0.102E-01
  45 F= -.19182972E+03 E0= -.19174132E+03  d E =-.388797E-01
       N       E                     dE             d eps       ncg     rms          rms(c)
DAV:   1    -0.191862376939E+03   -0.32607E-01   -0.24184E+00  8160   0.335E+00    0.386E-01
DAV:   2    -0.191868141633E+03   -0.57647E-02   -0.83429E-02 12200   0.836E-01    0.411E-01
DAV:   3    -0.191869369665E+03   -0.12280E-02   -0.13389E-02 12240   0.908E-01    0.581E-01
DAV:   4    -0.191865858568E+03    0.35111E-02   -0.58933E-03 12200   0.627E-01    0.174E-01
DAV:   5    -0.191865641501E+03    0.21707E-03   -0.18398E-03 11280   0.274E-01    0.164E-01
DAV:   6    -0.191865722979E+03   -0.81478E-04   -0.18325E-03 10800   0.321E-01    0.176E-01
DAV:   7    -0.191865348380E+03    0.37460E-03   -0.72004E-04  9480   0.202E-01    0.536E-02
DAV:   8    -0.191865333174E+03    0.15206E-04   -0.11646E-04  6200   0.953E-02
  46 F= -.19186533E+03 E0= -.19177864E+03  d E =-.356129E-01
       N       E                     dE             d eps       ncg     rms          rms(c)
DAV:   1    -0.191898791413E+03   -0.33443E-01   -0.36444E+00  8160   0.408E+00    0.450E-01
DAV:   2    -0.191911443187E+03   -0.12652E-01   -0.12410E-01 12080   0.130E+00    0.714E-01
DAV:   3    -0.191907154847E+03    0.42883E-02   -0.19754E-02 12040   0.115E+00    0.457E-01
DAV:   4    -0.191905461899E+03    0.16929E-02   -0.58503E-03 12080   0.598E-01    0.290E-01
DAV:   5    -0.191904832041E+03    0.62986E-03   -0.28302E-03 12000   0.460E-01    0.216E-01
DAV:   6    -0.191904572617E+03    0.25942E-03   -0.16293E-03 12200   0.285E-01    0.119E-01
DAV:   7    -0.191904380155E+03    0.19246E-03   -0.64543E-04 10120   0.141E-01    0.672E-02
DAV:   8    -0.191904340365E+03    0.39790E-04   -0.14008E-04  6760   0.105E-01
  47 F= -.19190434E+03 E0= -.19182000E+03  d E =-.390072E-01
       N       E                     dE             d eps       ncg     rms          rms(c)
DAV:   1    -0.191916777154E+03   -0.12397E-01   -0.39080E-01  8160   0.139E+00    0.221E-01
DAV:   2    -0.191917201861E+03   -0.42471E-03   -0.17827E-02 11000   0.424E-01    0.208E-01
DAV:   3    -0.191917540123E+03   -0.33826E-03   -0.34863E-03 12240   0.480E-01    0.295E-01
DAV:   4    -0.191916574345E+03    0.96578E-03   -0.17927E-03 10800   0.374E-01    0.119E-01
DAV:   5    -0.191916563902E+03    0.10443E-04   -0.75850E-04  9640   0.211E-01
  48 F= -.19191656E+03 E0= -.19183224E+03  d E =-.122235E-01
       N       E                     dE             d eps       ncg     rms          rms(c)
DAV:   1    -0.191941233233E+03   -0.24659E-01   -0.23902E+00  8160   0.331E+00    0.386E-01
DAV:   2    -0.191947071077E+03   -0.58378E-02   -0.78811E-02 12200   0.899E-01    0.466E-01
DAV:   3    -0.191947348711E+03   -0.27763E-03   -0.12634E-02 12000   0.933E-01    0.529E-01
DAV:   4    -0.191944231327E+03    0.31174E-02   -0.48530E-03 12040   0.574E-01    0.153E-01
DAV:   5    -0.191944219084E+03    0.12242E-04   -0.17618E-03 10360   0.281E-01    0.171E-01
DAV:   6    -0.191944131151E+03    0.87934E-04   -0.15172E-03 10840   0.306E-01    0.144E-01
DAV:   7    -0.191943858450E+03    0.27270E-03   -0.51621E-04  9560   0.169E-01    0.488E-02
DAV:   8    -0.191943846615E+03    0.11835E-04   -0.99471E-05  5960   0.898E-02
  49 F= -.19194385E+03 E0= -.19186101E+03  d E =-.272827E-01
       N       E                     dE             d eps       ncg     rms          rms(c)
DAV:   1    -0.191957982719E+03   -0.14124E-01   -0.91809E-01  8160   0.205E+00    0.255E-01
DAV:   2    -0.191961959877E+03   -0.39772E-02   -0.38653E-02 12160   0.826E-01    0.433E-01
DAV:   3    -0.191960044590E+03    0.19153E-02   -0.63187E-03 12120   0.654E-01    0.209E-01
DAV:   4    -0.191959636746E+03    0.40784E-03   -0.14675E-03 11360   0.297E-01    0.148E-01
DAV:   5    -0.191959569670E+03    0.67076E-04   -0.90057E-04 10240   0.262E-01
  50 F= -.19195957E+03 E0= -.19187787E+03  d E =-.157231E-01
       N       E                     dE             d eps       ncg     rms          rms(c)
DAV:   1    -0.191974722525E+03   -0.15086E-01   -0.12971E+00  8160   0.245E+00    0.280E-01
DAV:   2    -0.191978583084E+03   -0.38606E-02   -0.45939E-02 12920   0.681E-01    0.350E-01
DAV:   3    -0.191978394923E+03    0.18816E-03   -0.64213E-03 12160   0.680E-01    0.342E-01
DAV:   4    -0.191977076093E+03    0.13188E-02   -0.20203E-03 11760   0.389E-01    0.127E-01
DAV:   5    -0.191977208545E+03   -0.13245E-03   -0.93281E-04 10840   0.271E-01    0.164E-01
DAV:   6    -0.191976963736E+03    0.24481E-03   -0.71538E-04 10080   0.206E-01    0.584E-02
DAV:   7    -0.191976934137E+03    0.29599E-04   -0.18236E-04  7280   0.102E-01
  51 F= -.19197693E+03 E0= -.19189641E+03  d E =-.173645E-01
       N       E                     dE             d eps       ncg     rms          rms(c)
DAV:   1    -0.191989177253E+03   -0.12214E-01   -0.87585E-01  8160   0.202E+00    0.241E-01
DAV:   2    -0.191990909400E+03   -0.17321E-02   -0.31062E-02 11480   0.473E-01    0.176E-01
DAV:   3    -0.191991369032E+03   -0.45963E-03   -0.35707E-03 12360   0.416E-01    0.303E-01
DAV:   4    -0.191990427415E+03    0.94162E-03   -0.18457E-03 10960   0.383E-01    0.125E-01
DAV:   5    -0.191990249887E+03    0.17753E-03   -0.63548E-04  9960   0.154E-01    0.657E-02
DAV:   6    -0.191990265525E+03   -0.15638E-04   -0.40599E-04  9680   0.131E-01
  52 F= -.19199027E+03 E0= -.19191060E+03  d E =-.133314E-01
       N       E                     dE             d eps       ncg     rms          rms(c)
DAV:   1    -0.192010732505E+03   -0.20483E-01   -0.47187E+00  8160   0.464E+00    0.499E-01
DAV:   2    -0.192022372774E+03   -0.11640E-01   -0.15361E-01 12000   0.115E+00    0.498E-01
DAV:   3    -0.192023571395E+03   -0.11986E-02   -0.19135E-02 12280   0.110E+00    0.653E-01
DAV:   4    -0.192019140951E+03    0.44304E-02   -0.82005E-03 11960   0.797E-01    0.253E-01
DAV:   5    -0.192018624443E+03    0.51651E-03   -0.29419E-03 12440   0.400E-01    0.211E-01
DAV:   6    -0.192018715201E+03   -0.90758E-04   -0.22799E-03 12160   0.396E-01    0.202E-01
DAV:   7    -0.192018138083E+03    0.57712E-03   -0.90920E-04 10320   0.226E-01    0.490E-02
DAV:   8    -0.192018139890E+03   -0.18066E-05   -0.12923E-04  6560   0.970E-02
  53 F= -.19201814E+03 E0= -.19194069E+03  d E =-.278744E-01
       N       E                     dE             d eps       ncg     rms          rms(c)
DAV:   1    -0.192031207272E+03   -0.13069E-01   -0.17988E+00  8160   0.285E+00    0.311E-01
DAV:   2    -0.192036625071E+03   -0.54178E-02   -0.61429E-02 12000   0.821E-01    0.410E-01
DAV:   3    -0.192036155560E+03    0.46951E-03   -0.81086E-03 11480   0.771E-01    0.382E-01
DAV:   4    -0.192034565039E+03    0.15905E-02   -0.26285E-03 11960   0.433E-01    0.128E-01
DAV:   5    -0.192034615664E+03   -0.50625E-04   -0.11106E-03 11040   0.256E-01    0.150E-01
DAV:   6    -0.192034498408E+03    0.11726E-03   -0.79158E-04 10960   0.236E-01    0.929E-02
DAV:   7    -0.192034360572E+03    0.13784E-03   -0.23081E-04  7680   0.101E-01    0.242E-02
DAV:   8    -0.192034362990E+03   -0.24177E-05   -0.48856E-05  7760   0.489E-02
  54 F= -.19203436E+03 E0= -.19195865E+03  d E =-.162231E-01
       N       E                     dE             d eps       ncg     rms          rms(c)
DAV:   1    -0.192041593069E+03   -0.72325E-02   -0.43788E-01  8160   0.140E+00    0.146E-01
DAV:   2    -0.192042618868E+03   -0.10258E-02   -0.12902E-02 11960   0.359E-01    0.169E-01
DAV:   3    -0.192042695508E+03   -0.76640E-04   -0.17077E-03 11560   0.354E-01    0.194E-01
DAV:   4    -0.192042269286E+03    0.42622E-03   -0.61902E-04  9400   0.212E-01    0.514E-02
DAV:   5    -0.192042307080E+03   -0.37794E-04   -0.21819E-04  7040   0.105E-01
  55 F= -.19204231E+03 E0= -.19196757E+03  d E =-.794409E-02
       N       E                     dE             d eps       ncg     rms          rms(c)
DAV:   1    -0.192033550862E+03    0.87184E-02   -0.52262E-01  8160   0.155E+00    0.172E-01
DAV:   2    -0.192035279035E+03   -0.17282E-02   -0.16233E-02 12240   0.478E-01    0.296E-01
DAV:   3    -0.192034520792E+03    0.75824E-03   -0.30233E-03 12760   0.470E-01    0.176E-01
DAV:   4    -0.192034191306E+03    0.32949E-03   -0.74604E-04  9960   0.200E-01    0.825E-02
DAV:   5    -0.192034171449E+03    0.19857E-04   -0.30357E-04  9880   0.157E-01
  56 F= -.19203417E+03 E0= -.19195823E+03  d E =0.813563E-02
       N       E                     dE             d eps       ncg     rms          rms(c)
DAV:   1    -0.191998731181E+03    0.35460E-01   -0.73522E+00  8160   0.575E+00    0.600E-01
DAV:   2    -0.192020377252E+03   -0.21646E-01   -0.20782E-01 12280   0.170E+00    0.101E+00
DAV:   3    -0.192012821267E+03    0.75560E-02   -0.37779E-02 12120   0.159E+00    0.599E-01
DAV:   4    -0.192008095734E+03    0.47255E-02   -0.63920E-03 11960   0.588E-01    0.184E-01
DAV:   5    -0.192010396235E+03   -0.23005E-02   -0.51551E-03 12480   0.615E-01    0.459E-01
DAV:   6    -0.192007856307E+03    0.25399E-02   -0.37320E-03 11560   0.537E-01    0.779E-02
DAV:   7    -0.192007843338E+03    0.12970E-04   -0.31940E-04  9160   0.131E-01
  57 F= -.19200784E+03 E0= -.19192744E+03  d E =0.263281E-01
       N       E                     dE             d eps       ncg     rms          rms(c)
DAV:   1    -0.192001340113E+03    0.65162E-02   -0.86177E-01  8160   0.196E+00    0.196E-01
DAV:   2    -0.192003086499E+03   -0.17464E-02   -0.20821E-02 12160   0.485E-01    0.252E-01
DAV:   3    -0.192002992749E+03    0.93750E-04   -0.35828E-03 12560   0.486E-01    0.240E-01
DAV:   4    -0.192002348939E+03    0.64381E-03   -0.10791E-03 10160   0.255E-01    0.681E-02
DAV:   5    -0.192002417619E+03   -0.68681E-04   -0.37066E-04  8960   0.127E-01
  58 F= -.19200242E+03 E0= -.19192066E+03  d E =0.542572E-02
       N       E                     dE             d eps       ncg     rms          rms(c)
DAV:   1    -0.192006003405E+03   -0.36545E-02   -0.57176E-01  8160   0.162E+00    0.199E-01
DAV:   2    -0.192009569451E+03   -0.35660E-02   -0.25667E-02 12560   0.683E-01    0.433E-01
DAV:   3    -0.192007473943E+03    0.20955E-02   -0.54430E-03 11960   0.607E-01    0.159E-01
DAV:   4    -0.192007232319E+03    0.24162E-03   -0.74339E-04 10080   0.196E-01    0.862E-02
DAV:   5    -0.192007192116E+03    0.40203E-04   -0.40455E-04  9920   0.154E-01
  59 F= -.19200719E+03 E0= -.19192495E+03  d E =-.477450E-02
       N       E                     dE             d eps       ncg     rms          rms(c)
DAV:   1    -0.192009279170E+03   -0.20469E-02   -0.67369E-01  8160   0.175E+00    0.205E-01
DAV:   2    -0.192012179288E+03   -0.29001E-02   -0.22437E-02 12520   0.620E-01    0.395E-01
DAV:   3    -0.192010449282E+03    0.17300E-02   -0.48912E-03 12040   0.555E-01    0.162E-01
DAV:   4    -0.192010298950E+03    0.15033E-03   -0.96474E-04 10120   0.227E-01    0.126E-01
DAV:   5    -0.192010192678E+03    0.10627E-03   -0.54028E-04  9800   0.209E-01    0.945E-02
DAV:   6    -0.192010171888E+03    0.20790E-04   -0.37635E-04  8520   0.143E-01
  60 F= -.19201017E+03 E0= -.19192737E+03  d E =-.297977E-02
       N       E                     dE             d eps       ncg     rms          rms(c)
DAV:   1    -0.192008225030E+03    0.19676E-02   -0.62265E-01  8160   0.167E+00    0.183E-01
DAV:   2    -0.192009740800E+03   -0.15158E-02   -0.15728E-02 11560   0.490E-01    0.306E-01
DAV:   3    -0.192009032871E+03    0.70793E-03   -0.33434E-03 12400   0.479E-01    0.184E-01
DAV:   4    -0.192008606337E+03    0.42653E-03   -0.72652E-04 10080   0.189E-01    0.538E-02
DAV:   5    -0.192008630167E+03   -0.23830E-04   -0.28115E-04  7000   0.921E-02
  61 F= -.19200863E+03 E0= -.19192469E+03  d E =0.154172E-02
       N       E                     dE             d eps       ncg     rms          rms(c)
DAV:   1    -0.192011733551E+03   -0.31272E-02   -0.20451E-01  8160   0.971E-01    0.126E-01
DAV:   2    -0.192013140171E+03   -0.14066E-02   -0.88603E-03 11440   0.440E-01    0.284E-01
DAV:   3    -0.192012132526E+03    0.10076E-02   -0.20114E-03 12040   0.380E-01    0.816E-02
DAV:   4    -0.192012116049E+03    0.16477E-04   -0.28063E-04  8240   0.131E-01
  62 F= -.19201212E+03 E0= -.19192829E+03  d E =-.348588E-02
       N       E                     dE             d eps       ncg     rms          rms(c)
DAV:   1    -0.192012368519E+03   -0.23599E-03   -0.18266E-03 11000   0.150E-01    0.543E-02
DAV:   2    -0.192012788778E+03   -0.42026E-03   -0.70565E-04 10800   0.249E-01    0.192E-01
DAV:   3    -0.192012330910E+03    0.45787E-03   -0.44873E-04  8840   0.211E-01    0.245E-02
DAV:   4    -0.192012349278E+03   -0.18368E-04   -0.36054E-05  5800   0.527E-02
  63 F= -.19201235E+03 E0= -.19192854E+03  d E =-.233229E-03
       N       E                     dE             d eps       ncg     rms          rms(c)
DAV:   1    -0.192015275992E+03   -0.29451E-02   -0.21375E-01  8160   0.985E-01    0.131E-01
DAV:   2    -0.192016575422E+03   -0.12994E-02   -0.98111E-03 11160   0.435E-01    0.273E-01
DAV:   3    -0.192015777195E+03    0.79823E-03   -0.19860E-03 12400   0.377E-01    0.102E-01
DAV:   4    -0.192015698453E+03    0.78742E-04   -0.31033E-04  8520   0.138E-01
  64 F= -.19201570E+03 E0= -.19193213E+03  d E =-.334918E-02
       N       E                     dE             d eps       ncg     rms          rms(c)
DAV:   1    -0.192015492694E+03    0.28450E-03   -0.13505E-02  8200   0.265E-01    0.723E-02
DAV:   2    -0.192016188269E+03   -0.69557E-03   -0.18029E-03 10880   0.330E-01    0.238E-01
DAV:   3    -0.192015444368E+03    0.74390E-03   -0.96998E-04 10200   0.271E-01    0.289E-02
DAV:   4    -0.192015463381E+03   -0.19013E-04   -0.56891E-05  6040   0.713E-02
  65 F= -.19201546E+03 E0= -.19193176E+03  d E =0.235073E-03
       N       E                     dE             d eps       ncg     rms          rms(c)
DAV:   1    -0.192018894069E+03   -0.34497E-02   -0.37317E-01  8160   0.131E+00    0.169E-01
DAV:   2    -0.192020249015E+03   -0.13549E-02   -0.16262E-02 10560   0.445E-01    0.235E-01
DAV:   3    -0.192019989405E+03    0.25961E-03   -0.26382E-03 12480   0.427E-01    0.193E-01
DAV:   4    -0.192019541297E+03    0.44811E-03   -0.71731E-04  9520   0.226E-01    0.648E-02
DAV:   5    -0.192019537034E+03    0.42626E-05   -0.35616E-04  8280   0.107E-01
  66 F= -.19201954E+03 E0= -.19193550E+03  d E =-.407365E-02
       N       E                     dE             d eps       ncg     rms          rms(c)
DAV:   1    -0.192020142572E+03   -0.60128E-03   -0.16304E-02  8280   0.308E-01    0.705E-02
DAV:   2    -0.192020711685E+03   -0.56911E-03   -0.17504E-03 12240   0.300E-01    0.219E-01
DAV:   3    -0.192020106410E+03    0.60527E-03   -0.91921E-04 10200   0.260E-01    0.444E-02
DAV:   4    -0.192020100815E+03    0.55952E-05   -0.75945E-05  5760   0.667E-02
  67 F= -.19202010E+03 E0= -.19193626E+03  d E =-.563781E-03
       N       E                     dE             d eps       ncg     rms          rms(c)
DAV:   1    -0.192022170079E+03   -0.20637E-02   -0.13768E-01  8160   0.799E-01    0.102E-01
DAV:   2    -0.192022494483E+03   -0.32440E-03   -0.53239E-03 10840   0.247E-01    0.104E-01
DAV:   3    -0.192022490702E+03    0.37812E-05   -0.60278E-04 10000   0.212E-01
  68 F= -.19202249E+03 E0= -.19193885E+03  d E =-.238989E-02
       N       E                     dE             d eps       ncg     rms          rms(c)
DAV:   1    -0.192023354414E+03   -0.85993E-03   -0.31685E-02  8160   0.401E-01    0.704E-02
DAV:   2    -0.192023561954E+03   -0.20754E-03   -0.14187E-03 12960   0.178E-01    0.129E-01
DAV:   3    -0.192023373437E+03    0.18852E-03   -0.54071E-04  9760   0.189E-01    0.662E-02
DAV:   4    -0.192023346999E+03    0.26438E-04   -0.12572E-04  5920   0.857E-02
  69 F= -.19202335E+03 E0= -.19193984E+03  d E =-.856297E-03
       N       E                     dE             d eps       ncg     rms          rms(c)
DAV:   1    -0.192025451147E+03   -0.20777E-02   -0.20303E-01  8160   0.959E-01    0.115E-01
DAV:   2    -0.192026003112E+03   -0.55196E-03   -0.81698E-03 10320   0.262E-01    0.923E-02
DAV:   3    -0.192026124477E+03   -0.12137E-03   -0.75706E-04 11080   0.229E-01    0.142E-01
DAV:   4    -0.192025878833E+03    0.24564E-03   -0.33406E-04  8640   0.173E-01    0.458E-02
DAV:   5    -0.192025900202E+03   -0.21370E-04   -0.16278E-04  6400   0.933E-02
  70 F= -.19202590E+03 E0= -.19194251E+03  d E =-.255320E-02
       N       E                     dE             d eps       ncg     rms          rms(c)
DAV:   1    -0.192028482675E+03   -0.26038E-02   -0.69377E-01  8160   0.177E+00    0.208E-01
DAV:   2    -0.192030803157E+03   -0.23205E-02   -0.27491E-02 10560   0.557E-01    0.258E-01
DAV:   3    -0.192030594609E+03    0.20855E-03   -0.32905E-03 12440   0.494E-01    0.233E-01
DAV:   4    -0.192029978984E+03    0.61563E-03   -0.10592E-03 10240   0.273E-01    0.103E-01
DAV:   5    -0.192030015877E+03   -0.36894E-04   -0.58936E-04  9720   0.212E-01
  71 F= -.19203002E+03 E0= -.19194709E+03  d E =-.411568E-02
       N       E                     dE             d eps       ncg     rms          rms(c)
DAV:   1    -0.192032183805E+03   -0.22048E-02   -0.77227E-01  8160   0.188E+00    0.230E-01
DAV:   2    -0.192035200208E+03   -0.30164E-02   -0.28806E-02 11320   0.664E-01    0.384E-01
DAV:   3    -0.192033924801E+03    0.12754E-02   -0.49986E-03 12120   0.600E-01    0.217E-01
DAV:   4    -0.192033414594E+03    0.51021E-03   -0.10695E-03 10120   0.250E-01    0.101E-01
DAV:   5    -0.192033466341E+03   -0.51746E-04   -0.59720E-04 11000   0.212E-01
  72 F= -.19203347E+03 E0= -.19195128E+03  d E =-.345046E-02
       N       E                     dE             d eps       ncg     rms          rms(c)
DAV:   1    -0.192034459769E+03   -0.10452E-02   -0.10886E+00  8160   0.223E+00    0.265E-01
DAV:   2    -0.192037830551E+03   -0.33708E-02   -0.41898E-02 10800   0.653E-01    0.317E-01
DAV:   3    -0.192037758982E+03    0.71569E-04   -0.57415E-03 12440   0.644E-01    0.324E-01
DAV:   4    -0.192036542012E+03    0.12170E-02   -0.19720E-03 11200   0.370E-01    0.110E-01
DAV:   5    -0.192036645614E+03   -0.10360E-03   -0.90197E-04 11000   0.246E-01    0.144E-01
DAV:   6    -0.192036509272E+03    0.13634E-03   -0.61866E-04 10240   0.208E-01    0.787E-02
DAV:   7    -0.192036410892E+03    0.98379E-04   -0.15719E-04  6760   0.923E-02
  73 F= -.19203641E+03 E0= -.19195515E+03  d E =-.294455E-02
       N       E                     dE             d eps       ncg     rms          rms(c)
DAV:   1    -0.192035564386E+03    0.94489E-03   -0.12986E-01  8160   0.771E-01    0.981E-02
DAV:   2    -0.192036203593E+03   -0.63921E-03   -0.54360E-03 10400   0.315E-01    0.191E-01
DAV:   3    -0.192035825687E+03    0.37791E-03   -0.96981E-04 10880   0.267E-01    0.799E-02
DAV:   4    -0.192035763343E+03    0.62344E-04   -0.18998E-04  7360   0.110E-01
  74 F= -.19203576E+03 E0= -.19195413E+03  d E =0.647550E-03
