<?xml version="1.0" encoding="ISO-8859-1"?>
<modeling>
 <generator>
  <i name="program" type="string">vasp </i>
  <i name="version" type="string">5.4.1  </i>
  <i name="subversion" type="string">05Feb16 (build Jul 05 2020 17:13:04) complex                          parallel </i>
  <i name="platform" type="string">IFC91_ompi </i>
  <i name="date" type="string">2024 04 21 </i>
  <i name="time" type="string">09:12:54 </i>
 </generator>
 <incar>
  <i type="int" name="ISTART">     0</i>
  <i type="string" name="PREC">normal</i>
  <i type="string" name="ALGO"> Normal</i>
  <i type="int" name="ISPIN">     1</i>
  <i type="int" name="ICHARG">     2</i>
  <i type="int" name="IBRION">     1</i>
  <i type="int" name="NSW">   100</i>
  <i type="int" name="ISIF">     3</i>
  <i type="int" name="ISYM">     0</i>
  <i name="SYMPREC">      0.00000001</i>
  <i name="POTIM">      0.50000000</i>
  <i type="logical" name="LREAL"> F  </i>
  <i type="logical" name="LPLANE"> F  </i>
  <i type="int" name="ISMEAR">     0</i>
  <i type="logical" name="LWAVE"> F  </i>
  <i type="logical" name="LCHARG"> F  </i>
  <v type="int" name="KPOINT_BSE">    -1     0     0     0</v>
 </incar>
 <kpoints>
  <generation param="Gamma">
   <v type="int" name="divisions">       8        8        1 </v>
   <v name="usershift">      0.00000000       0.00000000       0.00000000 </v>
   <v name="genvec1">      0.12500000       0.00000000       0.00000000 </v>
   <v name="genvec2">     -0.00000000       0.12500000       0.00000000 </v>
   <v name="genvec3">      0.00000000       0.00000000       1.00000000 </v>
   <v name="shift">      0.00000000       0.00000000       0.00000000 </v>
  </generation>
  <varray name="kpointlist" >
   <v>       0.00000000       0.00000000       0.00000000 </v>
   <v>       0.12500000       0.00000000       0.00000000 </v>
   <v>       0.25000000       0.00000000       0.00000000 </v>
   <v>       0.37500000       0.00000000       0.00000000 </v>
   <v>       0.50000000       0.00000000       0.00000000 </v>
   <v>       0.00000000       0.12500000       0.00000000 </v>
   <v>       0.12500000       0.12500000       0.00000000 </v>
   <v>       0.25000000       0.12500000       0.00000000 </v>
   <v>       0.37500000       0.12500000       0.00000000 </v>
   <v>       0.50000000       0.12500000       0.00000000 </v>
   <v>      -0.37500000       0.12500000       0.00000000 </v>
   <v>      -0.25000000       0.12500000       0.00000000 </v>
   <v>      -0.12500000       0.12500000       0.00000000 </v>
   <v>       0.00000000       0.25000000       0.00000000 </v>
   <v>       0.12500000       0.25000000       0.00000000 </v>
   <v>       0.25000000       0.25000000       0.00000000 </v>
   <v>       0.37500000       0.25000000       0.00000000 </v>
   <v>       0.50000000       0.25000000       0.00000000 </v>
   <v>      -0.37500000       0.25000000       0.00000000 </v>
   <v>      -0.25000000       0.25000000       0.00000000 </v>
   <v>      -0.12500000       0.25000000       0.00000000 </v>
   <v>      -0.00000000       0.37500000       0.00000000 </v>
   <v>       0.12500000       0.37500000       0.00000000 </v>
   <v>       0.25000000       0.37500000       0.00000000 </v>
   <v>       0.37500000       0.37500000       0.00000000 </v>
   <v>       0.50000000       0.37500000       0.00000000 </v>
   <v>      -0.37500000       0.37500000       0.00000000 </v>
   <v>      -0.25000000       0.37500000       0.00000000 </v>
   <v>      -0.12500000       0.37500000       0.00000000 </v>
   <v>       0.00000000       0.50000000       0.00000000 </v>
   <v>       0.12500000       0.50000000       0.00000000 </v>
   <v>       0.25000000       0.50000000       0.00000000 </v>
   <v>       0.37500000       0.50000000       0.00000000 </v>
   <v>       0.50000000       0.50000000       0.00000000 </v>
  </varray>
  <varray name="weights" >
   <v>       0.01562500 </v>
   <v>       0.03125000 </v>
   <v>       0.03125000 </v>
   <v>       0.03125000 </v>
   <v>       0.01562500 </v>
   <v>       0.03125000 </v>
   <v>       0.03125000 </v>
   <v>       0.03125000 </v>
   <v>       0.03125000 </v>
   <v>       0.03125000 </v>
   <v>       0.03125000 </v>
   <v>       0.03125000 </v>
   <v>       0.03125000 </v>
   <v>       0.03125000 </v>
   <v>       0.03125000 </v>
   <v>       0.03125000 </v>
   <v>       0.03125000 </v>
   <v>       0.03125000 </v>
   <v>       0.03125000 </v>
   <v>       0.03125000 </v>
   <v>       0.03125000 </v>
   <v>       0.03125000 </v>
   <v>       0.03125000 </v>
   <v>       0.03125000 </v>
   <v>       0.03125000 </v>
   <v>       0.03125000 </v>
   <v>       0.03125000 </v>
   <v>       0.03125000 </v>
   <v>       0.03125000 </v>
   <v>       0.01562500 </v>
   <v>       0.03125000 </v>
   <v>       0.03125000 </v>
   <v>       0.03125000 </v>
   <v>       0.01562500 </v>
  </varray>
 </kpoints>
 <parameters>
  <separator name="general" >
   <i type="string" name="SYSTEM">unknown system</i>
   <i type="logical" name="LCOMPAT"> F  </i>
  </separator>
  <separator name="electronic" >
   <i type="string" name="PREC">normal</i>
   <i name="ENMAX">    280.00000000</i>
   <i name="ENAUG">    373.43800000</i>
   <i name="EDIFF">      0.00010000</i>
   <i type="int" name="IALGO">    38</i>
   <i type="int" name="IWAVPR">    11</i>
   <i type="int" name="NBANDS">   120</i>
   <i name="NELECT">    159.00000000</i>
   <i type="int" name="TURBO">     0</i>
   <i type="int" name="IRESTART">     0</i>
   <i type="int" name="NREBOOT">     0</i>
   <i type="int" name="NMIN">     0</i>
   <i name="EREF">      0.00000000</i>
   <separator name="electronic smearing" >
    <i type="int" name="ISMEAR">     0</i>
    <i name="SIGMA">      0.20000000</i>
    <i name="KSPACING">      0.50000000</i>
    <i type="logical" name="KGAMMA"> T  </i>
   </separator>
   <separator name="electronic projectors" >
    <i type="logical" name="LREAL"> F  </i>
    <v name="ROPT">      0.00000000      0.00000000      0.00000000      0.00000000</v>
    <i type="int" name="LMAXPAW">  -100</i>
    <i type="int" name="LMAXMIX">     2</i>
    <i type="logical" name="NLSPLINE"> F  </i>
   </separator>
   <separator name="electronic startup" >
    <i type="int" name="ISTART">     0</i>
    <i type="int" name="ICHARG">     2</i>
    <i type="int" name="INIWAV">     1</i>
   </separator>
   <separator name="electronic spin" >
    <i type="int" name="ISPIN">     1</i>
    <i type="logical" name="LNONCOLLINEAR"> F  </i>
    <v name="MAGMOM">      1.00000000      1.00000000      1.00000000      1.00000000      1.00000000      1.00000000      1.00000000      1.00000000      1.00000000      1.00000000      1.00000000      1.00000000      1.00000000      1.00000000      1.00000000      1.00000000      1.00000000      1.00000000      1.00000000      1.00000000
      1.00000000      1.00000000      1.00000000      1.00000000      1.00000000      1.00000000      1.00000000</v>
    <i name="NUPDOWN">     -1.00000000</i>
    <i type="logical" name="LSORBIT"> F  </i>
    <v name="SAXIS">      0.00000000      0.00000000      1.00000000</v>
    <i type="logical" name="LSPIRAL"> F  </i>
    <v name="QSPIRAL">      0.00000000      0.00000000      0.00000000</v>
    <i type="logical" name="LZEROZ"> F  </i>
   </separator>
   <separator name="electronic exchange-correlation" >
    <i type="logical" name="LASPH"> F  </i>
    <i type="logical" name="LMETAGGA"> F  </i>
   </separator>
   <separator name="electronic convergence" >
    <i type="int" name="NELM">    60</i>
    <i type="int" name="NELMDL">    -5</i>
    <i type="int" name="NELMIN">     2</i>
    <i name="ENINI">    280.00000000</i>
    <separator name="electronic convergence detail" >
     <i type="logical" name="LDIAG"> T  </i>
     <i type="logical" name="LSUBROT"> F  </i>
     <i name="WEIMIN">      0.00100000</i>
     <i name="EBREAK">      0.00000021</i>
     <i name="DEPER">      0.30000000</i>
     <i type="int" name="NRMM">     4</i>
     <i name="TIME">      0.40000000</i>
    </separator>
   </separator>
   <separator name="electronic mixer" >
    <i name="AMIX">      0.40000000</i>
    <i name="BMIX">      1.00000000</i>
    <i name="AMIN">      0.10000000</i>
    <i name="AMIX_MAG">      1.60000000</i>
    <i name="BMIX_MAG">      1.00000000</i>
    <separator name="electronic mixer details" >
     <i type="int" name="IMIX">     4</i>
     <i type="logical" name="MIXFIRST"> F  </i>
     <i type="int" name="MAXMIX">   -45</i>
     <i name="WC">    100.00000000</i>
     <i type="int" name="INIMIX">     1</i>
     <i type="int" name="MIXPRE">     1</i>
     <i type="int" name="MREMOVE">     5</i>
    </separator>
   </separator>
   <separator name="electronic dipolcorrection" >
    <i type="logical" name="LDIPOL"> F  </i>
    <i type="logical" name="LMONO"> F  </i>
    <i type="int" name="IDIPOL">     0</i>
    <i name="EPSILON">      1.00000000</i>
    <v name="DIPOL">   -100.00000000   -100.00000000   -100.00000000</v>
    <i name="EFIELD">      0.00000000</i>
   </separator>
  </separator>
  <separator name="grids" >
   <i type="int" name="NGX">    42</i>
   <i type="int" name="NGY">    42</i>
   <i type="int" name="NGZ">   126</i>
   <i type="int" name="NGXF">    84</i>
   <i type="int" name="NGYF">    84</i>
   <i type="int" name="NGZF">   252</i>
   <i type="logical" name="ADDGRID"> F  </i>
  </separator>
  <separator name="ionic" >
   <i type="int" name="NSW">   100</i>
   <i type="int" name="IBRION">     1</i>
   <i type="int" name="ISIF">     3</i>
   <i name="PSTRESS">      0.00000000</i>
   <i name="EDIFFG">      0.00100000</i>
   <i type="int" name="NFREE">     0</i>
   <i name="POTIM">      0.50000000</i>
   <i name="SMASS">     -3.00000000</i>
   <i name="SCALEE">      1.00000000</i>
  </separator>
  <separator name="ionic md" >
   <i name="TEBEG">      0.00010000</i>
   <i name="TEEND">      0.00010000</i>
   <i type="int" name="NBLOCK">     1</i>
   <i type="int" name="KBLOCK">   100</i>
   <i type="int" name="NPACO">   256</i>
   <i name="APACO">     16.00000000</i>
  </separator>
  <separator name="symmetry" >
   <i type="int" name="ISYM">     0</i>
   <i name="SYMPREC">      0.00000001</i>
  </separator>
  <separator name="dos" >
   <i type="logical" name="LORBIT"> F  </i>
   <v name="RWIGS">     -1.00000000     -1.00000000     -1.00000000     -1.00000000</v>
   <i type="int" name="NEDOS">   301</i>
   <i name="EMIN">     10.00000000</i>
   <i name="EMAX">    -10.00000000</i>
   <i name="EFERMI">      0.00000000</i>
  </separator>
  <separator name="writing" >
   <i type="int" name="NWRITE">     2</i>
   <i type="logical" name="LWAVE"> F  </i>
   <i type="logical" name="LCHARG"> F  </i>
   <i type="logical" name="LPARD"> F  </i>
   <i type="logical" name="LVTOT"> F  </i>
   <i type="logical" name="LVHAR"> F  </i>
   <i type="logical" name="LELF"> F  </i>
   <i type="logical" name="LOPTICS"> F  </i>
   <v name="STM">      0.00000000      0.00000000      0.00000000      0.00000000      0.00000000      0.00000000      0.00000000</v>
  </separator>
  <separator name="performance" >
   <i type="int" name="NPAR">    40</i>
   <i type="int" name="NSIM">     4</i>
   <i type="int" name="NBLK">    -1</i>
   <i type="logical" name="LPLANE"> F  </i>
   <i type="logical" name="LSCALAPACK"> T  </i>
   <i type="logical" name="LSCAAWARE"> F  </i>
   <i type="logical" name="LSCALU"> F  </i>
   <i type="logical" name="LASYNC"> F  </i>
   <i type="logical" name="LORBITALREAL"> F  </i>
  </separator>
  <separator name="miscellaneous" >
   <i type="int" name="IDIOT">     3</i>
   <i type="logical" name="LMUSIC"> F  </i>
   <v name="POMASS">     50.94100000     95.94000000    183.85000000     32.06600000</v>
   <v name="DARWINR">      0.00000000      0.00000000      0.00000000      0.00000000</v>
   <v name="DARWINV">      1.00000000      1.00000000      1.00000000      1.00000000</v>
   <i type="logical" name="LCORR"> T  </i>
  </separator>
  <i type="logical" name="GGA_COMPAT"> T  </i>
  <i type="logical" name="LBERRY"> F  </i>
  <i type="int" name="ICORELEVEL">     0</i>
  <i type="logical" name="LDAU"> F  </i>
  <i type="int" name="I_CONSTRAINED_M">     0</i>
  <separator name="electronic exchange-correlation" >
   <i type="string" name="GGA">--</i>
   <i type="int" name="VOSKOWN">     0</i>
   <i type="logical" name="LHFCALC"> F  </i>
   <i type="string" name="PRECFOCK"></i>
   <i type="logical" name="LSYMGRAD"> F  </i>
   <i type="logical" name="LHFONE"> F  </i>
   <i type="logical" name="LRHFCALC"> F  </i>
   <i type="logical" name="LTHOMAS"> F  </i>
   <i type="logical" name="LMODELHF"> F  </i>
   <i name="ENCUT4O">     -1.00000000</i>
   <i type="int" name="EXXOEP">     0</i>
   <i type="int" name="FOURORBIT">     0</i>
   <i name="AEXX">      0.00000000</i>
   <i name="HFALPHA">      0.00000000</i>
   <i name="MCALPHA">      0.00000000</i>
   <i name="ALDAX">      1.00000000</i>
   <i name="AGGAX">      1.00000000</i>
   <i name="ALDAC">      1.00000000</i>
   <i name="AGGAC">      1.00000000</i>
   <i type="int" name="NKREDX">     1</i>
   <i type="int" name="NKREDY">     1</i>
   <i type="int" name="NKREDZ">     1</i>
   <i type="logical" name="SHIFTRED"> F  </i>
   <i type="logical" name="ODDONLY"> F  </i>
   <i type="logical" name="EVENONLY"> F  </i>
   <i type="int" name="LMAXFOCK">     0</i>
   <i type="int" name="NMAXFOCKAE">     0</i>
   <i type="logical" name="LFOCKAEDFT"> F  </i>
   <i name="HFSCREEN">      0.00000000</i>
   <i name="HFSCREENC">      0.00000000</i>
   <i type="int" name="NBANDSGWLOW">     0</i>
  </separator>
  <separator name="vdW DFT" >
   <i type="logical" name="LUSE_VDW"> F  </i>
   <i name="Zab_VDW">     -0.84910000</i>
   <i name="PARAM1">      0.12340000</i>
   <i name="PARAM2">      1.00000000</i>
   <i name="PARAM3">      0.00000000</i>
  </separator>
  <separator name="model GW" >
   <i type="int" name="MODEL_GW">     0</i>
   <i name="MODEL_EPS0">     58.26239943</i>
   <i name="MODEL_ALPHA">      1.00000000</i>
  </separator>
  <separator name="linear response parameters" >
   <i type="logical" name="LEPSILON"> F  </i>
   <i type="logical" name="LRPA"> F  </i>
   <i type="logical" name="LNABLA"> F  </i>
   <i type="logical" name="LVEL"> F  </i>
   <i type="int" name="KINTER">     0</i>
   <i name="CSHIFT">      0.10000000</i>
   <i name="OMEGAMAX">     -1.00000000</i>
   <i name="DEG_THRESHOLD">      0.00200000</i>
  </separator>
  <separator name="orbital magnetization" >
   <i type="logical" name="NUCIND"> F  </i>
   <v name="MAGPOS">      0.00000000      0.00000000      0.00000000</v>
   <i type="logical" name="LNICSALL"> T  </i>
   <i type="logical" name="ORBITALMAG"> F  </i>
   <i type="logical" name="LMAGBLOCH"> F  </i>
   <i type="logical" name="LCHIMAG"> F  </i>
   <i type="logical" name="LGAUGE"> T  </i>
   <i type="int" name="MAGATOM">     0</i>
   <v name="MAGDIPOL">      0.00000000      0.00000000      0.00000000</v>
   <v name="AVECCONST">      0.00000000      0.00000000      0.00000000</v>
  </separator>
  <separator name="response functions" >
   <i type="logical" name="LADDER"> F  </i>
   <i type="logical" name="LFXC"> F  </i>
   <i type="logical" name="LHARTREE"> T  </i>
   <i type="int" name="IBSE">     0</i>
   <v type="int" name="KPOINT">    -1     0     0     0</v>
   <i type="logical" name="LTCTE"> F  </i>
   <i type="logical" name="LTETE"> F  </i>
   <i type="logical" name="LTRIPLET"> F  </i>
   <i type="logical" name="LFXCEPS"> F  </i>
   <i type="logical" name="LFXHEG"> F  </i>
   <i type="int" name="NATURALO">     0</i>
   <i type="logical" name="L2ORDER"> F  </i>
   <i type="logical" name="LUSEW"> F  </i>
   <i name="ENCUTGW">     -2.00000000</i>
   <i name="ENCUTGWSOFT">     -2.00000000</i>
   <i name="ENCUTLF">     -1.00000000</i>
   <i type="int" name="LMAXMP2">    -1</i>
   <i name="SCISSOR">      0.00000000</i>
   <i type="int" name="NOMEGA">     0</i>
   <i type="int" name="NOMEGAR">     0</i>
   <i type="int" name="NBANDSGW">    -1</i>
   <i type="int" name="NBANDSO">    -1</i>
   <i type="int" name="NBANDSV">    -1</i>
   <i type="int" name="NELM">     1</i>
   <i type="int" name="NELMHF">     1</i>
   <i type="int" name="DIM">     3</i>
   <i type="int" name="ANTIRES">     0</i>
   <i name="OMEGAMAX">    -30.00000000</i>
   <i name="OMEGAMIN">    -30.00000000</i>
   <i name="OMEGATL">   -200.00000000</i>
   <i type="int" name="OMEGAGRID">     0</i>
   <i name="CSHIFT">     -0.10000000</i>
   <i type="logical" name="SELFENERGY"> F  </i>
   <i type="logical" name="LSPECTRAL"> F  </i>
   <i type="logical" name="LSPECTRALGW"> F  </i>
   <i type="logical" name="LSINGLES"> F  </i>
   <i type="logical" name="LFERMIGW"> F  </i>
   <i type="logical" name="ODDONLYGW"> F  </i>
   <i type="logical" name="EVENONLYGW"> F  </i>
   <i type="int" name="NKREDLFX">     1</i>
   <i type="int" name="NKREDLFY">     1</i>
   <i type="int" name="NKREDLFZ">     1</i>
   <i type="int" name="MAXMEM">  1800</i>
   <i type="int" name="TELESCOPE">     0</i>
   <i type="int" name="TAUPAR">     1</i>
   <i type="int" name="OMEGAPAR">    -1</i>
   <i name="LAMBDA">      1.00000000</i>
  </separator>
  <separator name="External order field" >
   <i name="OFIELD_KAPPA">      0.00000000</i>
   <v name="OFIELD_K">      0.00000000      0.00000000      0.00000000</v>
   <i name="OFIELD_Q6_NEAR">      0.00000000</i>
   <i name="OFIELD_Q6_FAR">      0.00000000</i>
   <i name="OFIELD_A">      0.00000000</i>
  </separator>
 </parameters>
 <atominfo>
  <atoms>      27 </atoms>
  <types>       4 </types>
  <array name="atoms" >
   <dimension dim="1">ion</dimension>
   <field type="string">element</field>
   <field type="int">atomtype</field>
   <set>
    <rc><c>V </c><c>   1</c></rc>
    <rc><c>V </c><c>   1</c></rc>
    <rc><c>V </c><c>   1</c></rc>
    <rc><c>Mo</c><c>   2</c></rc>
    <rc><c>Mo</c><c>   2</c></rc>
    <rc><c>Mo</c><c>   2</c></rc>
    <rc><c>W </c><c>   3</c></rc>
    <rc><c>W </c><c>   3</c></rc>
    <rc><c>W </c><c>   3</c></rc>
    <rc><c>S </c><c>   4</c></rc>
    <rc><c>S </c><c>   4</c></rc>
    <rc><c>S </c><c>   4</c></rc>
    <rc><c>S </c><c>   4</c></rc>
    <rc><c>S </c><c>   4</c></rc>
    <rc><c>S </c><c>   4</c></rc>
    <rc><c>S </c><c>   4</c></rc>
    <rc><c>S </c><c>   4</c></rc>
    <rc><c>S </c><c>   4</c></rc>
    <rc><c>S </c><c>   4</c></rc>
    <rc><c>S </c><c>   4</c></rc>
    <rc><c>S </c><c>   4</c></rc>
    <rc><c>S </c><c>   4</c></rc>
    <rc><c>S </c><c>   4</c></rc>
    <rc><c>S </c><c>   4</c></rc>
    <rc><c>S </c><c>   4</c></rc>
    <rc><c>S </c><c>   4</c></rc>
    <rc><c>S </c><c>   4</c></rc>
   </set>
  </array>
  <array name="atomtypes" >
   <dimension dim="1">type</dimension>
   <field type="int">atomspertype</field>
   <field type="string">element</field>
   <field>mass</field>
   <field>valence</field>
   <field type="string">pseudopotential</field>
   <set>
    <rc><c>   3</c><c>V </c><c>     50.94100000</c><c>      5.00000000</c><c> PAW_PBE V 08Apr2002                    </c></rc>
    <rc><c>   3</c><c>Mo</c><c>     95.94000000</c><c>      6.00000000</c><c> PAW_PBE Mo 08Apr2002                   </c></rc>
    <rc><c>   3</c><c>W </c><c>    183.85000000</c><c>      6.00000000</c><c> PAW_PBE W 08Apr2002                    </c></rc>
    <rc><c>  18</c><c>S </c><c>     32.06600000</c><c>      6.00000000</c><c>  PAW_PBE S 17Jan2003                   </c></rc>
   </set>
  </array>
 </atominfo>
 <structure name="initialpos" >
  <crystal>
   <varray name="basis" >
    <v>       8.66999996       5.03999989       0.00000000 </v>
    <v>      -8.66999982       5.04000013       0.00000000 </v>
    <v>       0.00000000       0.00000000      30.00000000 </v>
   </varray>
   <i name="volume">   2621.80797419 </i>
   <varray name="rec_basis" >
    <v>       0.05767013       0.09920635       0.00000000 </v>
    <v>      -0.05767013       0.09920635       0.00000000 </v>
    <v>       0.00000000       0.00000000       0.03333333 </v>
   </varray>
  </crystal>
  <varray name="positions" >
   <v>       0.66666669       0.00000000       0.00000000 </v>
   <v>       0.33333334       0.00000000       0.00000000 </v>
   <v>       1.00000000       0.33333334       0.00000000 </v>
   <v>       0.33333334       0.66666669       0.00000000 </v>
   <v>       0.00000000       0.66666669       0.00000000 </v>
   <v>       0.00000000       0.00000000       0.00000000 </v>
   <v>       0.33333334       0.33333334       0.00000000 </v>
   <v>       0.66666669       0.33333334       0.00000000 </v>
   <v>       0.66666669       0.66666669       0.00000000 </v>
   <v>       0.11068511       0.22244981       0.95539999 </v>
   <v>       0.22244981       0.11068511       0.04460000 </v>
   <v>       0.11068511       0.55578315       0.95539999 </v>
   <v>       0.22244981       0.44401845       0.04460000 </v>
   <v>       0.11068511       0.88911647       0.95539999 </v>
   <v>       0.22244981       0.77735180       0.04460000 </v>
   <v>       0.44401845       0.22244981       0.95539999 </v>
   <v>       0.55578315       0.11068511       0.04460000 </v>
   <v>       0.44401845       0.55578315       0.95539999 </v>
   <v>       0.55578315       0.44401845       0.04460000 </v>
   <v>       0.44401845       0.88911647       0.95539999 </v>
   <v>       0.55578315       0.77735180       0.04460000 </v>
   <v>       0.77735180       0.22244981       0.95539999 </v>
   <v>       0.88911647       0.11068511       0.04460000 </v>
   <v>       0.77735180       0.55578315       0.95539999 </v>
   <v>       0.88911647       0.44401845       0.04460000 </v>
   <v>       0.77735180       0.88911647       0.95539999 </v>
   <v>       0.88911647       0.77735180       0.04460000 </v>
  </varray>
 </structure>
 <calculation>
  <scstep>
   <time name="dav">   21.51   21.57</time>
   <time name="total">   21.56   21.62</time>
   <energy>
    <i name="alphaZ">     81.65567618 </i>
    <i name="ewald">  41890.23010373 </i>
    <i name="hartreedc"> -47722.87379232 </i>
    <i name="XCdc">   -242.92724144 </i>
    <i name="pawpsdc">   3467.42045192 </i>
    <i name="pawaedc">  -2871.19716117 </i>
    <i name="eentropy">     -0.53261700 </i>
    <i name="bandstr">   -238.82363310 </i>
    <i name="atom">   6761.44252427 </i>
    <i name="e_fr_energy">   1124.39431107 </i>
    <i name="e_wo_entrp">   1124.92692806 </i>
    <i name="e_0_energy">   1124.66061956 </i>
   </energy>
  </scstep>
  <scstep>
   <time name="dav">   28.09   28.16</time>
   <time name="total">   28.09   28.16</time>
   <energy>
    <i name="e_fr_energy">     -1.14633655 </i>
    <i name="e_wo_entrp">     -0.93844997 </i>
    <i name="e_0_energy">     -1.04239326 </i>
   </energy>
  </scstep>
  <scstep>
   <time name="dav">   27.33   27.40</time>
   <time name="total">   27.33   27.41</time>
   <energy>
    <i name="e_fr_energy">   -199.96930194 </i>
    <i name="e_wo_entrp">   -199.70535730 </i>
    <i name="e_0_energy">   -199.83732962 </i>
   </energy>
  </scstep>
  <scstep>
   <time name="dav">   30.11   30.19</time>
   <time name="total">   30.11   30.19</time>
   <energy>
    <i name="e_fr_energy">   -209.02470299 </i>
    <i name="e_wo_entrp">   -208.72601523 </i>
    <i name="e_0_energy">   -208.87535911 </i>
   </energy>
  </scstep>
  <scstep>
   <time name="dav">   28.18   28.25</time>
   <time name="total">   28.65   28.73</time>
   <energy>
    <i name="e_fr_energy">   -209.32494815 </i>
    <i name="e_wo_entrp">   -209.02894005 </i>
    <i name="e_0_energy">   -209.17694410 </i>
   </energy>
  </scstep>
  <scstep>
   <time name="dav">   30.83   30.91</time>
   <time name="total">   31.33   31.41</time>
   <energy>
    <i name="e_fr_energy">   -236.77849637 </i>
    <i name="e_wo_entrp">   -236.50082562 </i>
    <i name="e_0_energy">   -236.63966100 </i>
   </energy>
  </scstep>
  <scstep>
   <time name="dav">   32.26   32.34</time>
   <time name="total">   32.77   32.86</time>
   <energy>
    <i name="e_fr_energy">   -196.50463572 </i>
    <i name="e_wo_entrp">   -196.18998422 </i>
    <i name="e_0_energy">   -196.34730997 </i>
   </energy>
  </scstep>
  <scstep>
   <time name="dav">   29.74   29.81</time>
   <time name="total">   30.25   30.33</time>
   <energy>
    <i name="e_fr_energy">   -189.37960143 </i>
    <i name="e_wo_entrp">   -189.08305093 </i>
    <i name="e_0_energy">   -189.23132618 </i>
   </energy>
  </scstep>
  <scstep>
   <time name="dav">   32.09   32.17</time>
   <time name="total">   32.62   32.70</time>
   <energy>
    <i name="e_fr_energy">   -188.12119030 </i>
    <i name="e_wo_entrp">   -187.78723525 </i>
    <i name="e_0_energy">   -187.95421277 </i>
   </energy>
  </scstep>
  <scstep>
   <time name="dav">   32.63   32.71</time>
   <time name="total">   33.17   33.25</time>
   <energy>
    <i name="e_fr_energy">   -187.01016387 </i>
    <i name="e_wo_entrp">   -186.66472220 </i>
    <i name="e_0_energy">   -186.83744303 </i>
   </energy>
  </scstep>
  <scstep>
   <time name="dav">   32.25   32.33</time>
   <time name="total">   32.80   32.88</time>
   <energy>
    <i name="e_fr_energy">   -186.97205886 </i>
    <i name="e_wo_entrp">   -186.62078656 </i>
    <i name="e_0_energy">   -186.79642271 </i>
   </energy>
  </scstep>
  <scstep>
   <time name="dav">   30.40   30.48</time>
   <time name="total">   30.94   31.02</time>
   <energy>
    <i name="e_fr_energy">   -187.10390738 </i>
    <i name="e_wo_entrp">   -186.76399708 </i>
    <i name="e_0_energy">   -186.93395223 </i>
   </energy>
  </scstep>
  <scstep>
   <time name="dav">   31.33   31.41</time>
   <time name="total">   31.88   31.96</time>
   <energy>
    <i name="e_fr_energy">   -186.88815281 </i>
    <i name="e_wo_entrp">   -186.55253966 </i>
    <i name="e_0_energy">   -186.72034624 </i>
   </energy>
  </scstep>
  <scstep>
   <time name="dav">   32.32   32.40</time>
   <time name="total">   32.85   32.94</time>
   <energy>
    <i name="e_fr_energy">   -186.86399576 </i>
    <i name="e_wo_entrp">   -186.52047891 </i>
    <i name="e_0_energy">   -186.69223734 </i>
   </energy>
  </scstep>
  <scstep>
   <time name="dav">   30.48   30.56</time>
   <time name="total">   31.03   31.11</time>
   <energy>
    <i name="e_fr_energy">   -186.83993402 </i>
    <i name="e_wo_entrp">   -186.49351893 </i>
    <i name="e_0_energy">   -186.66672648 </i>
   </energy>
  </scstep>
  <scstep>
   <time name="dav">   29.63   29.70</time>
   <time name="total">   30.16   30.24</time>
   <energy>
    <i name="e_fr_energy">   -186.83313627 </i>
    <i name="e_wo_entrp">   -186.48667792 </i>
    <i name="e_0_energy">   -186.65990709 </i>
   </energy>
  </scstep>
  <scstep>
   <time name="dav">   30.99   31.06</time>
   <time name="total">   31.53   31.61</time>
   <energy>
    <i name="e_fr_energy">   -186.83143175 </i>
    <i name="e_wo_entrp">   -186.48700919 </i>
    <i name="e_0_energy">   -186.65922047 </i>
   </energy>
  </scstep>
  <scstep>
   <time name="dav">   29.76   29.83</time>
   <time name="total">   30.30   30.38</time>
   <energy>
    <i name="e_fr_energy">   -186.83065425 </i>
    <i name="e_wo_entrp">   -186.48631972 </i>
    <i name="e_0_energy">   -186.65848699 </i>
   </energy>
  </scstep>
  <scstep>
   <time name="dav">   27.70   27.76</time>
   <time name="total">   28.24   28.31</time>
   <energy>
    <i name="e_fr_energy">   -186.83026804 </i>
    <i name="e_wo_entrp">   -186.48540374 </i>
    <i name="e_0_energy">   -186.65783589 </i>
   </energy>
  </scstep>
  <scstep>
   <time name="dav">   23.78   23.83</time>
   <time name="total">   24.32   24.38</time>
   <energy>
    <i name="e_fr_energy">   -186.83105179 </i>
    <i name="e_wo_entrp">   -186.48648699 </i>
    <i name="e_0_energy">   -186.65876939 </i>
   </energy>
  </scstep>
  <scstep>
   <time name="dav">   21.59   21.64</time>
   <time name="total">   22.13   22.19</time>
   <energy>
    <i name="e_fr_energy">   -186.83166169 </i>
    <i name="e_wo_entrp">   -186.48715407 </i>
    <i name="e_0_energy">   -186.65940788 </i>
   </energy>
  </scstep>
  <scstep>
   <time name="dav">   20.10   20.15</time>
   <time name="total">   20.64   20.70</time>
   <energy>
    <i name="e_fr_energy">   -186.83276288 </i>
    <i name="e_wo_entrp">   -186.48811489 </i>
    <i name="e_0_energy">   -186.66043888 </i>
   </energy>
  </scstep>
  <scstep>
   <time name="dav">   20.10   20.15</time>
   <time name="total">   20.65   20.70</time>
   <energy>
    <i name="e_fr_energy">   -186.83399146 </i>
    <i name="e_wo_entrp">   -186.48945286 </i>
    <i name="e_0_energy">   -186.66172216 </i>
   </energy>
  </scstep>
  <scstep>
   <time name="dav">   18.79   18.83</time>
   <time name="total">   19.32   19.37</time>
   <energy>
    <i name="e_fr_energy">   -186.83458568 </i>
    <i name="e_wo_entrp">   -186.49002202 </i>
    <i name="e_0_energy">   -186.66230385 </i>
   </energy>
  </scstep>
  <scstep>
   <time name="dav">   16.23   16.27</time>
   <time name="total">   16.78   16.83</time>
   <energy>
    <i name="e_fr_energy">   -186.83494085 </i>
    <i name="e_wo_entrp">   -186.49034304 </i>
    <i name="e_0_energy">   -186.66264195 </i>
   </energy>
  </scstep>
  <scstep>
   <time name="dav">   18.86   18.90</time>
   <time name="total">   19.39   19.45</time>
   <energy>
    <i name="e_fr_energy">   -186.83518512 </i>
    <i name="e_wo_entrp">   -186.49060421 </i>
    <i name="e_0_energy">   -186.66289466 </i>
   </energy>
  </scstep>
  <scstep>
   <time name="dav">   19.80   19.84</time>
   <time name="total">   19.84   20.11</time>
   <energy>
    <i name="alphaZ">     81.65567618 </i>
    <i name="ewald">  41890.23010373 </i>
    <i name="hartreedc"> -47832.84021605 </i>
    <i name="XCdc">   -231.61126048 </i>
    <i name="pawpsdc">   4192.05624407 </i>
    <i name="pawaedc">  -3610.05802587 </i>
    <i name="eentropy">     -0.34458480 </i>
    <i name="bandstr">  -1437.36574425 </i>
    <i name="atom">   6761.44252427 </i>
    <i name="e_fr_energy">   -186.83528321 </i>
    <i name="e_wo_entrp">   -186.49069841 </i>
    <i name="e_0_energy">   -186.66299081 </i>
   </energy>
  </scstep>
  <structure>
   <crystal>
    <varray name="basis" >
     <v>       8.66999996       5.03999989       0.00000000 </v>
     <v>      -8.66999982       5.04000013       0.00000000 </v>
     <v>       0.00000000       0.00000000      30.00000000 </v>
    </varray>
    <i name="volume">   2621.80797419 </i>
    <varray name="rec_basis" >
     <v>       0.05767013       0.09920635       0.00000000 </v>
     <v>      -0.05767013       0.09920635       0.00000000 </v>
     <v>       0.00000000       0.00000000       0.03333333 </v>
    </varray>
   </crystal>
   <varray name="positions" >
    <v>       0.66666669       0.00000000       0.00000000 </v>
    <v>       0.33333334       0.00000000       0.00000000 </v>
    <v>       1.00000000       0.33333334       0.00000000 </v>
    <v>       0.33333334       0.66666669       0.00000000 </v>
    <v>       0.00000000       0.66666669       0.00000000 </v>
    <v>       0.00000000       0.00000000       0.00000000 </v>
    <v>       0.33333334       0.33333334       0.00000000 </v>
    <v>       0.66666669       0.33333334       0.00000000 </v>
    <v>       0.66666669       0.66666669       0.00000000 </v>
    <v>       0.11068511       0.22244981       0.95539999 </v>
    <v>       0.22244981       0.11068511       0.04460000 </v>
    <v>       0.11068511       0.55578315       0.95539999 </v>
    <v>       0.22244981       0.44401845       0.04460000 </v>
    <v>       0.11068511       0.88911647       0.95539999 </v>
    <v>       0.22244981       0.77735180       0.04460000 </v>
    <v>       0.44401845       0.22244981       0.95539999 </v>
    <v>       0.55578315       0.11068511       0.04460000 </v>
    <v>       0.44401845       0.55578315       0.95539999 </v>
    <v>       0.55578315       0.44401845       0.04460000 </v>
    <v>       0.44401845       0.88911647       0.95539999 </v>
    <v>       0.55578315       0.77735180       0.04460000 </v>
    <v>       0.77735180       0.22244981       0.95539999 </v>
    <v>       0.88911647       0.11068511       0.04460000 </v>
    <v>       0.77735180       0.55578315       0.95539999 </v>
    <v>       0.88911647       0.44401845       0.04460000 </v>
    <v>       0.77735180       0.88911647       0.95539999 </v>
    <v>       0.88911647       0.77735180       0.04460000 </v>
   </varray>
  </structure>
  <varray name="forces" >
   <v>       0.13470519      -0.06387542       0.02914727 </v>
   <v>       0.08714073      -0.44463110      -0.11635687 </v>
   <v>       0.00275920       0.16206999       0.12051871 </v>
   <v>      -0.30353564      -0.11851051      -0.07194010 </v>
   <v>       0.01820346       0.28758277      -0.14581276 </v>
   <v>       0.19314996      -0.13116287       0.07027900 </v>
   <v>      -0.27539263      -0.20769168       0.11836180 </v>
   <v>       0.13585500       0.22835560       0.01332184 </v>
   <v>      -0.04009279       0.33325503       0.00518802 </v>
   <v>      -0.65626923       0.13992079      -2.11224411 </v>
   <v>       0.65268920       0.16576991       2.09466462 </v>
   <v>       0.51033233      -0.68903573      -2.14483987 </v>
   <v>      -0.35991274      -0.73039969       2.20533666 </v>
   <v>       0.54452225       0.70732072      -2.20015891 </v>
   <v>      -0.51030047       0.70040416       2.18083772 </v>
   <v>       0.49129895      -0.59075967      -2.15314912 </v>
   <v>       0.23382095      -0.51844094       1.38887449 </v>
   <v>       0.28365295       0.02680221      -2.85464846 </v>
   <v>      -0.15461400      -0.00551400       2.92850413 </v>
   <v>      -0.34657122       0.65984023      -1.43214226 </v>
   <v>      -0.35467669       0.68705842       2.15546759 </v>
   <v>       0.73762225      -0.00384822      -1.46378455 </v>
   <v>      -0.89922522       0.01125149       1.44091254 </v>
   <v>       0.05375299      -0.11643966      -2.91865180 </v>
   <v>       0.69480563      -0.16296271       2.11611857 </v>
   <v>      -0.65536835      -0.16151476      -2.13851553 </v>
   <v>      -0.21835205      -0.16484433       2.88471141 </v>
  </varray>
  <varray name="stress" >
   <v>       7.30036891      -0.03625049      -1.53304631 </v>
   <v>      -0.03625054       4.44107491       0.00831001 </v>
   <v>      -1.53304637       0.00831004      30.32670416 </v>
  </varray>
  <energy>
   <i name="e_fr_energy">   -186.83528321 </i>
   <i name="e_wo_entrp">   -186.66299081 </i>
   <i name="e_0_energy">     -0.34458480 </i>
  </energy>
  <time name="totalsc">  780.67  782.97</time>
 </calculation>
 <calculation>
  <scstep>
   <time name="dav">   21.54   21.59</time>
   <time name="total">   22.08   22.13</time>
   <energy>
    <i name="alphaZ">     78.92429651 </i>
    <i name="ewald">  39380.89970898 </i>
    <i name="hartreedc"> -45338.33108942 </i>
    <i name="XCdc">   -239.06900759 </i>
    <i name="pawpsdc">   4192.03062054 </i>
    <i name="pawaedc">  -3610.03270051 </i>
    <i name="eentropy">     -0.28628707 </i>
    <i name="bandstr">  -1413.02852570 </i>
    <i name="atom">   6761.44252427 </i>
    <i name="e_fr_energy">   -187.45046000 </i>
    <i name="e_wo_entrp">   -187.16417293 </i>
    <i name="e_0_energy">   -187.30731646 </i>
   </energy>
  </scstep>
  <scstep>
   <time name="dav">   30.16   30.23</time>
   <time name="total">   30.70   30.78</time>
   <energy>
    <i name="e_fr_energy">   -189.25475943 </i>
    <i name="e_wo_entrp">   -188.94030746 </i>
    <i name="e_0_energy">   -189.09753344 </i>
   </energy>
  </scstep>
  <scstep>
   <time name="dav">   30.50   30.57</time>
   <time name="total">   31.04   31.13</time>
   <energy>
    <i name="e_fr_energy">   -189.35691157 </i>
    <i name="e_wo_entrp">   -189.07916767 </i>
    <i name="e_0_energy">   -189.21803962 </i>
   </energy>
  </scstep>
  <scstep>
   <time name="dav">   31.07   31.15</time>
   <time name="total">   31.62   31.71</time>
   <energy>
    <i name="e_fr_energy">   -188.72078956 </i>
    <i name="e_wo_entrp">   -188.43472344 </i>
    <i name="e_0_energy">   -188.57775650 </i>
   </energy>
  </scstep>
  <scstep>
   <time name="dav">   27.20   27.26</time>
   <time name="total">   27.74   27.81</time>
   <energy>
    <i name="e_fr_energy">   -188.72797511 </i>
    <i name="e_wo_entrp">   -188.44090619 </i>
    <i name="e_0_energy">   -188.58444065 </i>
   </energy>
  </scstep>
  <scstep>
   <time name="dav">   27.99   28.05</time>
   <time name="total">   28.54   28.61</time>
   <energy>
    <i name="e_fr_energy">   -188.64968127 </i>
    <i name="e_wo_entrp">   -188.36446871 </i>
    <i name="e_0_energy">   -188.50707499 </i>
   </energy>
  </scstep>
  <scstep>
   <time name="dav">   30.19   30.26</time>
   <time name="total">   30.73   30.81</time>
   <energy>
    <i name="e_fr_energy">   -188.65740876 </i>
    <i name="e_wo_entrp">   -188.36929961 </i>
    <i name="e_0_energy">   -188.51335418 </i>
   </energy>
  </scstep>
  <scstep>
   <time name="dav">   32.34   32.42</time>
   <time name="total">   32.89   32.98</time>
   <energy>
    <i name="e_fr_energy">   -188.63008060 </i>
    <i name="e_wo_entrp">   -188.34559309 </i>
    <i name="e_0_energy">   -188.48783685 </i>
   </energy>
  </scstep>
  <scstep>
   <time name="dav">   28.70   28.77</time>
   <time name="total">   29.24   29.32</time>
   <energy>
    <i name="e_fr_energy">   -188.62669075 </i>
    <i name="e_wo_entrp">   -188.34192155 </i>
    <i name="e_0_energy">   -188.48430615 </i>
   </energy>
  </scstep>
  <scstep>
   <time name="dav">   32.67   32.75</time>
   <time name="total">   33.21   33.30</time>
   <energy>
    <i name="e_fr_energy">   -188.62778183 </i>
    <i name="e_wo_entrp">   -188.34336978 </i>
    <i name="e_0_energy">   -188.48557581 </i>
   </energy>
  </scstep>
  <scstep>
   <time name="dav">   31.28   31.35</time>
   <time name="total">   31.82   31.90</time>
   <energy>
    <i name="e_fr_energy">   -188.62615963 </i>
    <i name="e_wo_entrp">   -188.34187952 </i>
    <i name="e_0_energy">   -188.48401957 </i>
   </energy>
  </scstep>
  <scstep>
   <time name="dav">   29.49   29.57</time>
   <time name="total">   29.53   29.61</time>
   <energy>
    <i name="alphaZ">     78.92429651 </i>
    <i name="ewald">  39380.89970898 </i>
    <i name="hartreedc"> -45349.39809980 </i>
    <i name="XCdc">   -237.97615464 </i>
    <i name="pawpsdc">   3952.87791224 </i>
    <i name="pawaedc">  -3367.40935239 </i>
    <i name="eentropy">     -0.28382701 </i>
    <i name="bandstr">  -1407.70310919 </i>
    <i name="atom">   6761.44252427 </i>
    <i name="e_fr_energy">   -188.62610102 </i>
    <i name="e_wo_entrp">   -188.34227402 </i>
    <i name="e_0_energy">   -188.48418752 </i>
   </energy>
  </scstep>
  <structure>
   <crystal>
    <varray name="basis" >
     <v>       8.85452963       5.10452593       0.00000000 </v>
     <v>      -8.85559789       5.10636407       0.00000000 </v>
     <v>       0.00000000       0.00000000      30.00000000 </v>
    </varray>
    <i name="volume">   2712.54242869 </i>
    <varray name="rec_basis" >
     <v>       0.05647503       0.09794056       0.00000000 </v>
     <v>      -0.05645470       0.09792875       0.00000000 </v>
     <v>       0.00000000       0.00000000       0.03333333 </v>
    </varray>
   </crystal>
   <varray name="positions" >
    <v>       0.66673575      -0.00068048       0.00004687 </v>
    <v>       0.33144779      -0.00237043      -0.00018711 </v>
    <v>       1.00078334       0.33410133       0.00019380 </v>
    <v>       0.33192167       0.66694398      -0.00011569 </v>
    <v>       0.00142701       0.66799241      -0.00023448 </v>
    <v>      -0.00009037      -0.00116512       0.00011301 </v>
    <v>       0.33157315       0.33310552       0.00019034 </v>
    <v>       0.66813756       0.33404828       0.00002142 </v>
    <v>       0.66815009       0.66837318       0.00000834 </v>
    <v>       0.10952892       0.22494531       0.95200331 </v>
    <v>       0.22505907       0.10966260       0.04796840 </v>
    <v>       0.10880723       0.55106562       0.95195090 </v>
    <v>       0.21795280       0.44152411       0.04814638 </v>
    <v>       0.11558528       0.89098674       0.95186194 </v>
    <v>       0.22438219       0.78212365       0.04810698 </v>
    <v>       0.44255796       0.21825557       0.95193754 </v>
    <v>       0.55395243       0.10755334       0.04683343 </v>
    <v>       0.44493590       0.55512226       0.95080946 </v>
    <v>       0.55532660       0.44442222       0.04930929 </v>
    <v>       0.44621222       0.89323866       0.95309698 </v>
    <v>       0.55808463       0.78162681       0.04806618 </v>
    <v>       0.77938556       0.22037921       0.95304610 </v>
    <v>       0.88666853       0.11324075       0.04691711 </v>
    <v>       0.77694407       0.55507633       0.95070654 </v>
    <v>       0.89026959       0.44130546       0.04800290 </v>
    <v>       0.77475545       0.89016680       0.95196107 </v>
    <v>       0.88772003       0.77717035       0.04923887 </v>
   </varray>
  </structure>
  <varray name="forces" >
   <v>       0.17148079      -0.08428311       0.09062838 </v>
   <v>       0.03407415      -0.44285483      -0.04613265 </v>
   <v>       0.04870054       0.21126766       0.03830748 </v>
   <v>      -0.12450150      -0.20106247      -0.08476026 </v>
   <v>      -0.15272638       0.19459594      -0.04403145 </v>
   <v>       0.29001772      -0.23288096       0.07411928 </v>
   <v>      -0.23741992      -0.04589950      -0.04892798 </v>
   <v>      -0.15538361       0.29943647       0.01006407 </v>
   <v>       0.13346886       0.25324528       0.01115956 </v>
   <v>       0.01518031       0.08855374       0.05206662 </v>
   <v>      -0.00056438       0.11537706      -0.01262342 </v>
   <v>       0.02895157      -0.07861490      -0.08485746 </v>
   <v>       0.08419739      -0.07741240       0.10420132 </v>
   <v>       0.03942975       0.08369525      -0.20254062 </v>
   <v>      -0.02990214       0.07873653       0.11502203 </v>
   <v>      -0.04981924       0.05539313       0.22008018 </v>
   <v>      -0.05981144       0.07403609      -0.22332677 </v>
   <v>       0.12852920      -0.00636214       0.10085492 </v>
   <v>      -0.00637640       0.00438693      -0.10133135 </v>
   <v>      -0.01786900       0.04225842       0.02938339 </v>
   <v>       0.08913568       0.05097375      -0.05366019 </v>
   <v>      -0.09397812       0.00293801       0.15745230 </v>
   <v>      -0.02997783      -0.00620476      -0.12454938 </v>
   <v>      -0.07277671      -0.08669502      -0.04723378 </v>
   <v>      -0.01022805      -0.09425837       0.00213576 </v>
   <v>       0.01070187      -0.08963754      -0.07170610 </v>
   <v>      -0.03253309      -0.10872829       0.14020611 </v>
  </varray>
  <varray name="stress" >
   <v>     -19.99833498       0.01839163       0.01705580 </v>
   <v>       0.01839145     -19.60195885       0.02502009 </v>
   <v>       0.01705591       0.02502003      -1.83559359 </v>
  </varray>
  <energy>
   <i name="e_fr_energy">   -188.62610102 </i>
   <i name="e_wo_entrp">   -188.48418752 </i>
   <i name="e_0_energy">     -0.28382701 </i>
  </energy>
  <time name="totalsc">  401.14  402.20</time>
 </calculation>
 <calculation>
  <scstep>
   <time name="dav">   23.94   24.00</time>
   <time name="total">   24.48   24.54</time>
   <energy>
    <i name="alphaZ">     82.35489029 </i>
    <i name="ewald">  41307.28620184 </i>
    <i name="hartreedc"> -47306.36622631 </i>
    <i name="XCdc">   -233.85093172 </i>
    <i name="pawpsdc">   3950.49488563 </i>
    <i name="pawaedc">  -3364.99894501 </i>
    <i name="eentropy">     -0.23580880 </i>
    <i name="bandstr">  -1386.66820367 </i>
    <i name="atom">   6761.44252427 </i>
    <i name="e_fr_energy">   -190.54161348 </i>
    <i name="e_wo_entrp">   -190.30580468 </i>
    <i name="e_0_energy">   -190.42370908 </i>
   </energy>
  </scstep>
  <scstep>
   <time name="dav">   28.26   28.32</time>
   <time name="total">   28.78   28.86</time>
   <energy>
    <i name="e_fr_energy">   -190.56088942 </i>
    <i name="e_wo_entrp">   -190.32303947 </i>
    <i name="e_0_energy">   -190.44196445 </i>
   </energy>
  </scstep>
  <scstep>
   <time name="dav">   30.23   30.31</time>
   <time name="total">   30.76   30.84</time>
   <energy>
    <i name="e_fr_energy">   -190.00742257 </i>
    <i name="e_wo_entrp">   -189.76006387 </i>
    <i name="e_0_energy">   -189.88374322 </i>
   </energy>
  </scstep>
  <scstep>
   <time name="dav">   31.08   31.15</time>
   <time name="total">   31.62   31.70</time>
   <energy>
    <i name="e_fr_energy">   -189.80761682 </i>
    <i name="e_wo_entrp">   -189.57157513 </i>
    <i name="e_0_energy">   -189.68959598 </i>
   </energy>
  </scstep>
  <scstep>
   <time name="dav">   28.12   28.19</time>
   <time name="total">   28.65   28.73</time>
   <energy>
    <i name="e_fr_energy">   -189.73143263 </i>
    <i name="e_wo_entrp">   -189.48899401 </i>
    <i name="e_0_energy">   -189.61021332 </i>
   </energy>
  </scstep>
  <scstep>
   <time name="dav">   29.36   29.43</time>
   <time name="total">   29.89   29.97</time>
   <energy>
    <i name="e_fr_energy">   -189.71134394 </i>
    <i name="e_wo_entrp">   -189.47306075 </i>
    <i name="e_0_energy">   -189.59220234 </i>
   </energy>
  </scstep>
  <scstep>
   <time name="dav">   30.83   30.90</time>
   <time name="total">   31.36   31.44</time>
   <energy>
    <i name="e_fr_energy">   -189.70350136 </i>
    <i name="e_wo_entrp">   -189.46466166 </i>
    <i name="e_0_energy">   -189.58408151 </i>
   </energy>
  </scstep>
  <scstep>
   <time name="dav">   27.59   27.66</time>
   <time name="total">   28.13   28.20</time>
   <energy>
    <i name="e_fr_energy">   -189.70354188 </i>
    <i name="e_wo_entrp">   -189.46493594 </i>
    <i name="e_0_energy">   -189.58423891 </i>
   </energy>
  </scstep>
  <scstep>
   <time name="dav">   27.05   27.12</time>
   <time name="total">   27.58   27.65</time>
   <energy>
    <i name="e_fr_energy">   -189.70379844 </i>
    <i name="e_wo_entrp">   -189.46497244 </i>
    <i name="e_0_energy">   -189.58438544 </i>
   </energy>
  </scstep>
  <scstep>
   <time name="dav">   26.57   26.63</time>
   <time name="total">   27.11   27.18</time>
   <energy>
    <i name="e_fr_energy">   -189.70411231 </i>
    <i name="e_wo_entrp">   -189.46537471 </i>
    <i name="e_0_energy">   -189.58474351 </i>
   </energy>
  </scstep>
  <scstep>
   <time name="dav">   24.81   24.87</time>
   <time name="total">   25.34   25.41</time>
   <energy>
    <i name="e_fr_energy">   -189.70357664 </i>
    <i name="e_wo_entrp">   -189.46475916 </i>
    <i name="e_0_energy">   -189.58416790 </i>
   </energy>
  </scstep>
  <scstep>
   <time name="dav">   17.56   17.60</time>
   <time name="total">   17.59   17.64</time>
   <energy>
    <i name="alphaZ">     82.35489029 </i>
    <i name="ewald">  41307.28620184 </i>
    <i name="hartreedc"> -47279.63420158 </i>
    <i name="XCdc">   -235.24816872 </i>
    <i name="pawpsdc">   4038.69972859 </i>
    <i name="pawaedc">  -3454.39745455 </i>
    <i name="eentropy">     -0.23872024 </i>
    <i name="bandstr">  -1409.96840111 </i>
    <i name="atom">   6761.44252427 </i>
    <i name="e_fr_energy">   -189.70360120 </i>
    <i name="e_wo_entrp">   -189.46488096 </i>
    <i name="e_0_energy">   -189.58424108 </i>
   </energy>
  </scstep>
  <structure>
   <crystal>
    <varray name="basis" >
     <v>       8.66637923       4.99832615       0.00000000 </v>
     <v>      -8.66722513       4.99977971       0.00000000 </v>
     <v>       0.00000000       0.00000000      30.00000000 </v>
    </varray>
    <i name="volume">   2599.54815296 </i>
    <varray name="rec_basis" >
     <v>       0.05769979       0.10002383       0.00000000 </v>
     <v>      -0.05768302       0.10001406       0.00000000 </v>
     <v>       0.00000000       0.00000000       0.03333333 </v>
    </varray>
   </crystal>
   <varray name="positions" >
    <v>       0.66675999      -0.00098454       0.00009809 </v>
    <v>       0.33074506      -0.00313832      -0.00021318 </v>
    <v>       1.00118078       0.33440548       0.00021545 </v>
    <v>       0.33146860       0.66672933      -0.00016359 </v>
    <v>       0.00160390       0.66846167      -0.00025936 </v>
    <v>      -0.00019938      -0.00182935       0.00015490 </v>
    <v>       0.33126961       0.33325656       0.00016269 </v>
    <v>       0.66848600       0.33469415       0.00002711 </v>
    <v>       0.66869840       0.66866590       0.00001465 </v>
    <v>       0.10969050       0.22507781       0.95203274 </v>
    <v>       0.22525011       0.10985470       0.04796127 </v>
    <v>       0.10870441       0.55090738       0.95190294 </v>
    <v>       0.21790487       0.44131500       0.04820526 </v>
    <v>       0.11576201       0.89108796       0.95174748 </v>
    <v>       0.22448430       0.78228300       0.04817198 </v>
    <v>       0.44260224       0.21839523       0.95206191 </v>
    <v>       0.55401810       0.10773351       0.04670722 </v>
    <v>       0.44504840       0.55498868       0.95086646 </v>
    <v>       0.55532778       0.44443561       0.04925203 </v>
    <v>       0.44626528       0.89332593       0.95311358 </v>
    <v>       0.55825462       0.78162613       0.04803586 </v>
    <v>       0.77930046       0.22047404       0.95313508 </v>
    <v>       0.88662952       0.11325914       0.04684673 </v>
    <v>       0.77673043       0.55500204       0.95067985 </v>
    <v>       0.89010328       0.44115875       0.04800411 </v>
    <v>       0.77461686       0.89000773       0.95192054 </v>
    <v>       0.88750834       0.77702096       0.04931811 </v>
   </varray>
  </structure>
  <varray name="forces" >
   <v>       0.19294444      -0.09750420       0.08548705 </v>
   <v>       0.00667955      -0.43847708      -0.01435158 </v>
   <v>       0.05571200       0.25153932       0.01123517 </v>
   <v>      -0.06253208      -0.23278254      -0.05888268 </v>
   <v>      -0.20792216       0.14018021      -0.00777351 </v>
   <v>       0.31489501      -0.26217376       0.05186147 </v>
   <v>      -0.22628512       0.02704175      -0.07511978 </v>
   <v>      -0.24620572       0.32260460       0.00849049 </v>
   <v>       0.20146771       0.20370464       0.00805082 </v>
   <v>      -0.09923339      -0.00150880      -0.43457367 </v>
   <v>       0.12129392       0.04862125       0.48352544 </v>
   <v>       0.06020445      -0.15453363      -0.57571526 </v>
   <v>      -0.04890309      -0.13179956       0.62567400 </v>
   <v>       0.07417095       0.14718915      -0.71933947 </v>
   <v>      -0.06606403       0.13698301       0.59880505 </v>
   <v>       0.02646944      -0.06617877      -0.26913573 </v>
   <v>       0.00956134      -0.05716952       0.21432998 </v>
   <v>       0.05473625       0.00395458      -0.43802005 </v>
   <v>      -0.01690357       0.00765806       0.46185039 </v>
   <v>      -0.05006950       0.11485344      -0.41989993 </v>
   <v>      -0.03486937       0.10089923       0.43068176 </v>
   <v>       0.06663843       0.00357258      -0.29083404 </v>
   <v>      -0.10481668      -0.00433450       0.31463389 </v>
   <v>      -0.03441288      -0.01073528      -0.61863642 </v>
   <v>       0.09758039      -0.00272331       0.50076802 </v>
   <v>      -0.10792078      -0.00864093      -0.57902013 </v>
   <v>       0.02378451      -0.04023995       0.70590871 </v>
  </varray>
  <varray name="stress" >
   <v>     -10.13593575       0.01125793      -0.00495000 </v>
   <v>       0.01125805      -9.82585371       0.03221511 </v>
   <v>      -0.00495003       0.03221487       6.51435134 </v>
  </varray>
  <energy>
   <i name="e_fr_energy">   -189.70360120 </i>
   <i name="e_wo_entrp">   -189.58424108 </i>
   <i name="e_0_energy">     -0.23872024 </i>
  </energy>
  <time name="totalsc">  373.47  374.46</time>
 </calculation>
 <calculation>
  <scstep>
   <time name="dav">   21.57   21.62</time>
   <time name="total">   22.08   22.14</time>
   <energy>
    <i name="alphaZ">     85.79615017 </i>
    <i name="ewald">  42819.22154060 </i>
    <i name="hartreedc"> -48835.76501044 </i>
    <i name="XCdc">   -232.99619006 </i>
    <i name="pawpsdc">   4038.77697858 </i>
    <i name="pawaedc">  -3454.47231707 </i>
    <i name="eentropy">     -0.19390002 </i>
    <i name="bandstr">  -1373.01854643 </i>
    <i name="atom">   6761.44252427 </i>
    <i name="e_fr_energy">   -191.20877040 </i>
    <i name="e_wo_entrp">   -191.01487038 </i>
    <i name="e_0_energy">   -191.11182039 </i>
   </energy>
  </scstep>
  <scstep>
   <time name="dav">   32.75   32.82</time>
   <time name="total">   33.26   33.35</time>
   <energy>
    <i name="e_fr_energy">   -191.15823659 </i>
    <i name="e_wo_entrp">   -190.95726327 </i>
    <i name="e_0_energy">   -191.05774993 </i>
   </energy>
  </scstep>
  <scstep>
   <time name="dav">   29.55   29.62</time>
   <time name="total">   30.06   30.14</time>
   <energy>
    <i name="e_fr_energy">   -191.07455978 </i>
    <i name="e_wo_entrp">   -190.86326977 </i>
    <i name="e_0_energy">   -190.96891477 </i>
   </energy>
  </scstep>
  <scstep>
   <time name="dav">   31.78   31.86</time>
   <time name="total">   32.30   32.38</time>
   <energy>
    <i name="e_fr_energy">   -190.75781792 </i>
    <i name="e_wo_entrp">   -190.55834802 </i>
    <i name="e_0_energy">   -190.65808297 </i>
   </energy>
  </scstep>
  <scstep>
   <time name="dav">   29.87   29.94</time>
   <time name="total">   30.39   30.47</time>
   <energy>
    <i name="e_fr_energy">   -190.74314965 </i>
    <i name="e_wo_entrp">   -190.54585549 </i>
    <i name="e_0_energy">   -190.64450257 </i>
   </energy>
  </scstep>
  <scstep>
   <time name="dav">   29.94   30.01</time>
   <time name="total">   30.46   30.54</time>
   <energy>
    <i name="e_fr_energy">   -190.63919352 </i>
    <i name="e_wo_entrp">   -190.43773648 </i>
    <i name="e_0_energy">   -190.53846500 </i>
   </energy>
  </scstep>
  <scstep>
   <time name="dav">   30.57   30.64</time>
   <time name="total">   31.08   31.16</time>
   <energy>
    <i name="e_fr_energy">   -190.63285637 </i>
    <i name="e_wo_entrp">   -190.43340679 </i>
    <i name="e_0_energy">   -190.53313158 </i>
   </energy>
  </scstep>
  <scstep>
   <time name="dav">   28.39   28.46</time>
   <time name="total">   28.92   28.99</time>
   <energy>
    <i name="e_fr_energy">   -190.63162165 </i>
    <i name="e_wo_entrp">   -190.43199382 </i>
    <i name="e_0_energy">   -190.53180773 </i>
   </energy>
  </scstep>
  <scstep>
   <time name="dav">   28.78   28.85</time>
   <time name="total">   29.30   29.37</time>
   <energy>
    <i name="e_fr_energy">   -190.62857371 </i>
    <i name="e_wo_entrp">   -190.42889923 </i>
    <i name="e_0_energy">   -190.52873647 </i>
   </energy>
  </scstep>
  <scstep>
   <time name="dav">   25.55   25.61</time>
   <time name="total">   26.06   26.13</time>
   <energy>
    <i name="e_fr_energy">   -190.62893499 </i>
    <i name="e_wo_entrp">   -190.42910637 </i>
    <i name="e_0_energy">   -190.52902068 </i>
   </energy>
  </scstep>
  <scstep>
   <time name="dav">   27.14   27.20</time>
   <time name="total">   27.65   27.73</time>
   <energy>
    <i name="e_fr_energy">   -190.62873872 </i>
    <i name="e_wo_entrp">   -190.42902361 </i>
    <i name="e_0_energy">   -190.52888117 </i>
   </energy>
  </scstep>
  <scstep>
   <time name="dav">   19.69   19.74</time>
   <time name="total">   19.73   19.79</time>
   <energy>
    <i name="alphaZ">     85.79615017 </i>
    <i name="ewald">  42819.22154060 </i>
    <i name="hartreedc"> -48807.45193114 </i>
    <i name="XCdc">   -234.32301930 </i>
    <i name="pawpsdc">   4062.11606535 </i>
    <i name="pawaedc">  -3477.96729227 </i>
    <i name="eentropy">     -0.19966660 </i>
    <i name="bandstr">  -1399.26311353 </i>
    <i name="atom">   6761.44252427 </i>
    <i name="e_fr_energy">   -190.62874245 </i>
    <i name="e_wo_entrp">   -190.42907585 </i>
    <i name="e_0_energy">   -190.52890915 </i>
   </energy>
  </scstep>
  <structure>
   <crystal>
    <varray name="basis" >
     <v>       8.48674026       4.89973100       0.00000000 </v>
     <v>      -8.48728276       4.90066026       0.00000000 </v>
     <v>       0.00000000       0.00000000      30.00000000 </v>
    </varray>
    <i name="volume">   2495.28099464 </i>
    <varray name="rec_basis" >
     <v>       0.05891914       0.10204000       0.00000000 </v>
     <v>      -0.05890797       0.10203348       0.00000000 </v>
     <v>       0.00000000       0.00000000       0.03333333 </v>
    </varray>
   </crystal>
   <varray name="positions" >
    <v>       0.66684421      -0.00235211       0.00027023 </v>
    <v>       0.32800178      -0.00585136      -0.00021605 </v>
    <v>       1.00306252       0.33586554       0.00021585 </v>
    <v>       0.32979899       0.66533380      -0.00026335 </v>
    <v>       0.00151688       0.67003058      -0.00024489 </v>
    <v>      -0.00073919      -0.00470952       0.00024322 </v>
    <v>       0.33081928       0.33440535      -0.00001443 </v>
    <v>       0.66954167       0.33778317       0.00004331 </v>
    <v>       0.67067148       0.66899289       0.00002865 </v>
    <v>       0.10893745       0.22536633       0.95072598 </v>
    <v>       0.22599969       0.10938250       0.04937708 </v>
    <v>       0.10781283       0.54949286       0.95030128 </v>
    <v>       0.21658091       0.44072320       0.04993582 </v>
    <v>       0.11715541       0.89184760       0.94982750 </v>
    <v>       0.22519441       0.78357230       0.04981535 </v>
    <v>       0.44209233       0.21747703       0.95109449 </v>
    <v>       0.55346983       0.10691854       0.04751810 </v>
    <v>       0.44519064       0.55494688       0.94950861 </v>
    <v>       0.55530777       0.44456745       0.05067953 </v>
    <v>       0.44693593       0.89444921       0.95186857 </v>
    <v>       0.55870587       0.78268230       0.04933264 </v>
    <v>       0.77979361       0.22002880       0.95215733 </v>
    <v>       0.88612255       0.11372107       0.04786594 </v>
    <v>       0.77678195       0.55519215       0.94892178 </v>
    <v>       0.89081815       0.44086281       0.04945761 </v>
    <v>       0.77420507       0.89071208       0.95029821 </v>
    <v>       0.88759243       0.77677300       0.05125153 </v>
   </varray>
  </structure>
  <varray name="forces" >
   <v>       0.19763525      -0.09874137       0.04709341 </v>
   <v>      -0.00266457      -0.41829247       0.04601190 </v>
   <v>       0.06781492       0.28786014      -0.04490841 </v>
   <v>      -0.01724447      -0.27611075      -0.01104716 </v>
   <v>      -0.29290723       0.06331252       0.02496124 </v>
   <v>       0.33903639      -0.30937803      -0.00377219 </v>
   <v>      -0.24655383       0.09624576      -0.05506981 </v>
   <v>      -0.27297452       0.34141430       0.01115193 </v>
   <v>       0.30625324       0.19046813       0.00314580 </v>
   <v>      -0.01818758      -0.07265322      -0.22894486 </v>
   <v>       0.03754233      -0.00256282       0.27030797 </v>
   <v>      -0.01827766      -0.05724754      -0.40289979 </v>
   <v>      -0.05267905      -0.04615363       0.48145684 </v>
   <v>       0.03615747       0.03187888      -0.56217738 </v>
   <v>      -0.01661541       0.02715860       0.39475825 </v>
   <v>       0.02367049      -0.03282997      -0.13256813 </v>
   <v>      -0.03139197      -0.00767959       0.08524491 </v>
   <v>      -0.01583895       0.04891219      -0.28169759 </v>
   <v>      -0.06383043       0.01984904       0.34259611 </v>
   <v>      -0.00223478       0.00883326      -0.32275012 </v>
   <v>      -0.01648492       0.00137817       0.26114469 </v>
   <v>       0.01100490       0.02148830      -0.15240973 </v>
   <v>       0.01692976       0.00679284       0.23955766 </v>
   <v>      -0.00367530       0.08167023      -0.49948332 </v>
   <v>       0.01402965       0.05874739       0.33008458 </v>
   <v>      -0.01353778       0.02182797      -0.38297199 </v>
   <v>       0.03502406       0.01381169       0.54318517 </v>
  </varray>
  <varray name="stress" >
   <v>      -5.90214439      -0.00617517      -0.06953183 </v>
   <v>      -0.00617534      -5.90552423       0.01626820 </v>
   <v>      -0.06953179       0.01626802       4.45563625 </v>
  </varray>
  <energy>
   <i name="e_fr_energy">   -190.62874245 </i>
   <i name="e_wo_entrp">   -190.52890915 </i>
   <i name="e_0_energy">     -0.19966660 </i>
  </energy>
  <time name="totalsc">  383.22  384.23</time>
 </calculation>
 <calculation>
  <scstep>
   <time name="dav">   21.55   21.60</time>
   <time name="total">   22.06   22.11</time>
   <energy>
    <i name="alphaZ">     90.38547886 </i>
    <i name="ewald">  44759.63570148 </i>
    <i name="hartreedc"> -50805.94810497 </i>
    <i name="XCdc">   -231.68993320 </i>
    <i name="pawpsdc">   4062.06858038 </i>
    <i name="pawaedc">  -3477.91566966 </i>
    <i name="eentropy">     -0.17567351 </i>
    <i name="bandstr">  -1349.88282005 </i>
    <i name="atom">   6761.44252427 </i>
    <i name="e_fr_energy">   -192.07991641 </i>
    <i name="e_wo_entrp">   -191.90424290 </i>
    <i name="e_0_energy">   -191.99207966 </i>
   </energy>
  </scstep>
  <scstep>
   <time name="dav">   30.77   30.84</time>
   <time name="total">   31.28   31.36</time>
   <energy>
    <i name="e_fr_energy">   -191.88426477 </i>
    <i name="e_wo_entrp">   -191.69807353 </i>
    <i name="e_0_energy">   -191.79116915 </i>
   </energy>
  </scstep>
  <scstep>
   <time name="dav">   27.22   27.29</time>
   <time name="total">   27.72   27.80</time>
   <energy>
    <i name="e_fr_energy">   -192.16902622 </i>
    <i name="e_wo_entrp">   -191.96808183 </i>
    <i name="e_0_energy">   -192.06855402 </i>
   </energy>
  </scstep>
  <scstep>
   <time name="dav">   29.69   29.76</time>
   <time name="total">   30.20   30.28</time>
   <energy>
    <i name="e_fr_energy">   -191.53138527 </i>
    <i name="e_wo_entrp">   -191.34879327 </i>
    <i name="e_0_energy">   -191.44008927 </i>
   </energy>
  </scstep>
  <scstep>
   <time name="dav">   29.96   30.03</time>
   <time name="total">   30.46   30.54</time>
   <energy>
    <i name="e_fr_energy">   -191.45540289 </i>
    <i name="e_wo_entrp">   -191.27635137 </i>
    <i name="e_0_energy">   -191.36587713 </i>
   </energy>
  </scstep>
  <scstep>
   <time name="dav">   30.05   30.13</time>
   <time name="total">   30.56   30.65</time>
   <energy>
    <i name="e_fr_energy">   -191.26511319 </i>
    <i name="e_wo_entrp">   -191.08004660 </i>
    <i name="e_0_energy">   -191.17257989 </i>
   </energy>
  </scstep>
  <scstep>
   <time name="dav">   29.78   29.85</time>
   <time name="total">   30.29   30.37</time>
   <energy>
    <i name="e_fr_energy">   -191.25843779 </i>
    <i name="e_wo_entrp">   -191.07435872 </i>
    <i name="e_0_energy">   -191.16639825 </i>
   </energy>
  </scstep>
  <scstep>
   <time name="dav">   26.53   26.60</time>
   <time name="total">   27.04   27.12</time>
   <energy>
    <i name="e_fr_energy">   -191.25344389 </i>
    <i name="e_wo_entrp">   -191.06930257 </i>
    <i name="e_0_energy">   -191.16137323 </i>
   </energy>
  </scstep>
  <scstep>
   <time name="dav">   30.81   30.89</time>
   <time name="total">   31.32   31.40</time>
   <energy>
    <i name="e_fr_energy">   -191.25440893 </i>
    <i name="e_wo_entrp">   -191.07026684 </i>
    <i name="e_0_energy">   -191.16233789 </i>
   </energy>
  </scstep>
  <scstep>
   <time name="dav">   27.90   27.97</time>
   <time name="total">   28.42   28.50</time>
   <energy>
    <i name="e_fr_energy">   -191.25349185 </i>
    <i name="e_wo_entrp">   -191.06934061 </i>
    <i name="e_0_energy">   -191.16141623 </i>
   </energy>
  </scstep>
  <scstep>
   <time name="dav">   26.21   26.27</time>
   <time name="total">   26.24   26.32</time>
   <energy>
    <i name="alphaZ">     90.38547886 </i>
    <i name="ewald">  44759.63570148 </i>
    <i name="hartreedc"> -50769.58347864 </i>
    <i name="XCdc">   -233.33134858 </i>
    <i name="pawpsdc">   4083.41476468 </i>
    <i name="pawaedc">  -3499.33231109 </i>
    <i name="eentropy">     -0.18428859 </i>
    <i name="bandstr">  -1383.70043688 </i>
    <i name="atom">   6761.44252427 </i>
    <i name="e_fr_energy">   -191.25339450 </i>
    <i name="e_wo_entrp">   -191.06910591 </i>
    <i name="e_0_energy">   -191.16125021 </i>
   </energy>
  </scstep>
  <structure>
   <crystal>
    <varray name="basis" >
     <v>       8.26802179       4.77348700       0.00000000 </v>
     <v>      -8.26897800       4.77513323       0.00000000 </v>
     <v>       0.00000000       0.00000000      30.00000000 </v>
    </varray>
    <i name="volume">   2368.58293664 </i>
    <varray name="rec_basis" >
     <v>       0.06048089       0.10473323       0.00000000 </v>
     <v>      -0.06046004       0.10472112       0.00000000 </v>
     <v>       0.00000000       0.00000000       0.03333333 </v>
    </varray>
   </crystal>
   <varray name="positions" >
    <v>       0.66703435      -0.00512641       0.00048135 </v>
    <v>       0.32260823      -0.01112847      -0.00002654 </v>
    <v>       1.00727555       0.33908346       0.00003341 </v>
    <v>       0.32620720       0.66186956      -0.00030913 </v>
    <v>       0.00013067       0.67296270      -0.00012243 </v>
    <v>      -0.00216987      -0.01115133       0.00023575 </v>
    <v>       0.33037401       0.33749667      -0.00028066 </v>
    <v>       0.67178206       0.34429104       0.00008636 </v>
    <v>       0.67522354       0.66902576       0.00004121 </v>
    <v>       0.10745026       0.22470929       0.94916076 </v>
    <v>       0.22642665       0.10866403       0.05112759 </v>
    <v>       0.10668530       0.54836625       0.94802995 </v>
    <v>       0.21506493       0.44043794       0.05254796 </v>
    <v>       0.11831822       0.89228197       0.94687879 </v>
    <v>       0.22567267       0.78452022       0.05206315 </v>
    <v>       0.44155824       0.21632334       0.94996422 </v>
    <v>       0.55282030       0.10640445       0.04839506 </v>
    <v>       0.44559067       0.55569528       0.94769867 </v>
    <v>       0.55510922       0.44524753       0.05274593 </v>
    <v>       0.44733233       0.89508724       0.95001428 </v>
    <v>       0.55869200       0.78338094       0.05100860 </v>
    <v>       0.78045493       0.21985492       0.95098613 </v>
    <v>       0.88606586       0.11392284       0.04935306 </v>
    <v>       0.77789797       0.55628967       0.94619749 </v>
    <v>       0.89211050       0.44140407       0.05143434 </v>
    <v>       0.77427317       0.89158357       0.94807938 </v>
    <v>       0.88822551       0.77671795       0.05417522 </v>
   </varray>
  </structure>
  <varray name="forces" >
   <v>       0.14936423      -0.09481520       0.02804863 </v>
   <v>       0.07562052      -0.33205751      -0.00855361 </v>
   <v>       0.05607232       0.26146840      -0.02387635 </v>
   <v>       0.02206092      -0.22282804      -0.01388541 </v>
   <v>      -0.23269873      -0.09032115      -0.00735646 </v>
   <v>       0.18403249      -0.25195523      -0.03157581 </v>
   <v>      -0.24272650       0.21506685       0.01966418 </v>
   <v>      -0.20361045       0.30781351       0.01303618 </v>
   <v>       0.31915311       0.11517080       0.02601483 </v>
   <v>       0.09243106      -0.11343573       0.07413249 </v>
   <v>      -0.07646500      -0.03289620      -0.10461633 </v>
   <v>      -0.12854705       0.04088868      -0.07025729 </v>
   <v>      -0.00608909       0.02419389       0.17056188 </v>
   <v>       0.00032506      -0.08656475      -0.16267336 </v>
   <v>       0.02775319      -0.11899122       0.09814465 </v>
   <v>      -0.02858794       0.03311444       0.15992377 </v>
   <v>      -0.09767278       0.06149920      -0.18469803 </v>
   <v>      -0.06242267       0.13645027      -0.02740134 </v>
   <v>      -0.10946235       0.04311972       0.12570493 </v>
   <v>       0.02488763      -0.10978593      -0.01698383 </v>
   <v>       0.10097251      -0.11505830      -0.05142327 </v>
   <v>      -0.07486203       0.05716883       0.10632191 </v>
   <v>       0.16365329       0.03978479      -0.05852616 </v>
   <v>      -0.00258719       0.13844508      -0.26356428 </v>
   <v>      -0.07901583       0.08203106       0.02778772 </v>
   <v>       0.10796465      -0.00776025      -0.07644756 </v>
   <v>       0.02045665       0.02025398       0.25249793 </v>
  </varray>
  <varray name="stress" >
   <v>      -0.03832241      -0.10903056       0.01659583 </v>
   <v>      -0.10903052      -0.13944621      -0.09762201 </v>
   <v>       0.01659591      -0.09762210      -0.44175478 </v>
  </varray>
  <energy>
   <i name="e_fr_energy">   -191.25339450 </i>
   <i name="e_wo_entrp">   -191.16125021 </i>
   <i name="e_0_energy">     -0.18428859 </i>
  </energy>
  <time name="totalsc">  357.67  358.62</time>
 </calculation>
 <calculation>
  <scstep>
   <time name="dav">   21.54   21.59</time>
   <time name="total">   22.05   22.10</time>
   <energy>
    <i name="alphaZ">     90.44387402 </i>
    <i name="ewald">  44771.60222965 </i>
    <i name="hartreedc"> -50782.87769643 </i>
    <i name="XCdc">   -233.35380043 </i>
    <i name="pawpsdc">   4083.87478567 </i>
    <i name="pawaedc">  -3499.79006905 </i>
    <i name="eentropy">     -0.18955883 </i>
    <i name="bandstr">  -1382.46610009 </i>
    <i name="atom">   6761.44252427 </i>
    <i name="e_fr_energy">   -191.31381121 </i>
    <i name="e_wo_entrp">   -191.12425238 </i>
    <i name="e_0_energy">   -191.21903180 </i>
   </energy>
  </scstep>
  <scstep>
   <time name="dav">   32.60   32.68</time>
   <time name="total">   33.11   33.19</time>
   <energy>
    <i name="e_fr_energy">   -191.37039979 </i>
    <i name="e_wo_entrp">   -191.17339488 </i>
    <i name="e_0_energy">   -191.27189733 </i>
   </energy>
  </scstep>
  <scstep>
   <time name="dav">   29.03   29.10</time>
   <time name="total">   29.54   29.62</time>
   <energy>
    <i name="e_fr_energy">   -191.32350042 </i>
    <i name="e_wo_entrp">   -191.13315266 </i>
    <i name="e_0_energy">   -191.22832654 </i>
   </energy>
  </scstep>
  <scstep>
   <time name="dav">   28.34   28.40</time>
   <time name="total">   28.84   28.92</time>
   <energy>
    <i name="e_fr_energy">   -191.32317353 </i>
    <i name="e_wo_entrp">   -191.13295957 </i>
    <i name="e_0_energy">   -191.22806655 </i>
   </energy>
  </scstep>
  <scstep>
   <time name="dav">   28.17   28.24</time>
   <time name="total">   28.68   28.76</time>
   <energy>
    <i name="e_fr_energy">   -191.32028885 </i>
    <i name="e_wo_entrp">   -191.12942547 </i>
    <i name="e_0_energy">   -191.22485716 </i>
   </energy>
  </scstep>
  <scstep>
   <time name="dav">   27.70   27.77</time>
   <time name="total">   28.20   28.28</time>
   <energy>
    <i name="e_fr_energy">   -191.31980052 </i>
    <i name="e_wo_entrp">   -191.12895669 </i>
    <i name="e_0_energy">   -191.22437861 </i>
   </energy>
  </scstep>
  <scstep>
   <time name="dav">   28.77   28.84</time>
   <time name="total">   29.28   29.36</time>
   <energy>
    <i name="e_fr_energy">   -191.32015212 </i>
    <i name="e_wo_entrp">   -191.12926956 </i>
    <i name="e_0_energy">   -191.22471084 </i>
   </energy>
  </scstep>
  <scstep>
   <time name="dav">   24.53   24.59</time>
   <time name="total">   25.03   25.10</time>
   <energy>
    <i name="e_fr_energy">   -191.31966616 </i>
    <i name="e_wo_entrp">   -191.12877523 </i>
    <i name="e_0_energy">   -191.22422070 </i>
   </energy>
  </scstep>
  <scstep>
   <time name="dav">   17.65   17.69</time>
   <time name="total">   17.68   17.73</time>
   <energy>
    <i name="alphaZ">     90.44387402 </i>
    <i name="ewald">  44771.60222965 </i>
    <i name="hartreedc"> -50783.42186950 </i>
    <i name="XCdc">   -233.35634400 </i>
    <i name="pawpsdc">   4082.68773680 </i>
    <i name="pawaedc">  -3498.57669721 </i>
    <i name="eentropy">     -0.19085511 </i>
    <i name="bandstr">  -1381.95022743 </i>
    <i name="atom">   6761.44252427 </i>
    <i name="e_fr_energy">   -191.31962850 </i>
    <i name="e_wo_entrp">   -191.12877339 </i>
    <i name="e_0_energy">   -191.22420095 </i>
   </energy>
  </scstep>
  <structure>
   <crystal>
    <varray name="basis" >
     <v>       8.26507598       4.76889947       0.00000000 </v>
     <v>      -8.26880917       4.77535465       0.00000000 </v>
     <v>       0.00000000       0.00000000      30.00000000 </v>
    </varray>
    <i name="volume">   2367.05365901 </i>
    <varray name="rec_basis" >
     <v>       0.06052277       0.10479875       0.00000000 </v>
     <v>      -0.06044096       0.10475144       0.00000000 </v>
     <v>       0.00000000       0.00000000       0.03333333 </v>
    </varray>
   </crystal>
   <varray name="positions" >
    <v>       0.66699173      -0.00606488       0.00052808 </v>
    <v>       0.32110801      -0.01307278      -0.00003938 </v>
    <v>       1.00879709       0.34026925      -0.00000633 </v>
    <v>       0.32511646       0.66064934      -0.00033191 </v>
    <v>      -0.00102267       0.67320324      -0.00013363 </v>
    <v>      -0.00292042      -0.01301295       0.00018450 </v>
    <v>       0.33075389       0.33932462      -0.00025035 </v>
    <v>       0.67276393       0.34649588       0.00010774 </v>
    <v>       0.67677503       0.66867326       0.00008349 </v>
    <v>       0.10713436       0.22385585       0.94927026 </v>
    <v>       0.22603682       0.10871598       0.05096970 </v>
    <v>       0.10650816       0.54894492       0.94790132 </v>
    <v>       0.21516008       0.44057732       0.05284128 </v>
    <v>       0.11788600       0.89184318       0.94659641 </v>
    <v>       0.22515127       0.78383889       0.05223693 </v>
    <v>       0.44163893       0.21656794       0.95021544 </v>
    <v>       0.55284157       0.10700030       0.04810204 </v>
    <v>       0.44610438       0.55657872       0.94764198 </v>
    <v>       0.55500576       0.44579310       0.05296355 </v>
    <v>       0.44684913       0.89445965       0.94997469 </v>
    <v>       0.55840292       0.78250307       0.05093648 </v>
    <v>       0.78053071       0.22036442       0.95115030 </v>
    <v>       0.88674925       0.11364596       0.04926803 </v>
    <v>       0.77860269       0.55700919       0.94575252 </v>
    <v>       0.89230476       0.44205740       0.05149246 </v>
    <v>       0.77455145       0.89123281       0.94794090 </v>
    <v>       0.88839318       0.77676078       0.05460339 </v>
   </varray>
  </structure>
  <varray name="forces" >
   <v>       0.15039083      -0.10398316       0.05409272 </v>
   <v>       0.13660777      -0.35322712       0.01028858 </v>
   <v>       0.06168477       0.25277966      -0.03429919 </v>
   <v>      -0.00800169      -0.22701980      -0.00088773 </v>
   <v>      -0.21497659      -0.07997241       0.02320870 </v>
   <v>       0.17425477      -0.29404727      -0.00358216 </v>
   <v>      -0.27582891       0.25570615      -0.02557719 </v>
   <v>      -0.21463191       0.33374081      -0.00679366 </v>
   <v>       0.31866307       0.11803753       0.02126607 </v>
   <v>       0.06512751      -0.05943955       0.10516285 </v>
   <v>      -0.04969096       0.00006352      -0.14885969 </v>
   <v>      -0.09304136       0.01129745      -0.06051064 </v>
   <v>      -0.01758648       0.01387151       0.17034381 </v>
   <v>       0.00943990      -0.06228594      -0.14263346 </v>
   <v>       0.01422183      -0.09356576       0.05893812 </v>
   <v>      -0.03575522       0.02820822       0.19762612 </v>
   <v>      -0.08317380       0.04945155      -0.21585548 </v>
   <v>      -0.04260927       0.11790660      -0.01102915 </v>
   <v>      -0.07285170       0.03866197       0.11431014 </v>
   <v>       0.00992151      -0.07933700      -0.00753060 </v>
   <v>       0.08393072      -0.08624804      -0.07092092 </v>
   <v>      -0.06027269       0.04803649       0.13211088 </v>
   <v>       0.10651446       0.03759729      -0.09783320 </v>
   <v>      -0.00794018       0.08971889      -0.23600579 </v>
   <v>      -0.04831901       0.05662069       0.03846505 </v>
   <v>       0.07386194      -0.02172337      -0.07063019 </v>
   <v>       0.02006070       0.00915110       0.20713601 </v>
  </varray>
  <varray name="stress" >
   <v>       0.03267816      -0.03069397       0.03808547 </v>
   <v>      -0.03069402       0.01403443      -0.05481006 </v>
   <v>       0.03808552      -0.05480994      -1.01516498 </v>
  </varray>
  <energy>
   <i name="e_fr_energy">   -191.31962850 </i>
   <i name="e_wo_entrp">   -191.22420095 </i>
   <i name="e_0_energy">     -0.19085511 </i>
  </energy>
  <time name="totalsc">  284.69  285.43</time>
 </calculation>
 <calculation>
  <scstep>
   <time name="dav">   21.55   21.61</time>
   <time name="total">   22.06   22.11</time>
   <energy>
    <i name="alphaZ">     90.42921221 </i>
    <i name="ewald">  44762.38450059 </i>
    <i name="hartreedc"> -50774.16984569 </i>
    <i name="XCdc">   -233.37717384 </i>
    <i name="pawpsdc">   4082.68977975 </i>
    <i name="pawaedc">  -3498.57904496 </i>
    <i name="eentropy">     -0.19373373 </i>
    <i name="bandstr">  -1381.98655673 </i>
    <i name="atom">   6761.44252427 </i>
    <i name="e_fr_energy">   -191.36033813 </i>
    <i name="e_wo_entrp">   -191.16660440 </i>
    <i name="e_0_energy">   -191.26347126 </i>
   </energy>
  </scstep>
  <scstep>
   <time name="dav">   32.93   33.01</time>
   <time name="total">   33.44   33.53</time>
   <energy>
    <i name="e_fr_energy">   -191.38245757 </i>
    <i name="e_wo_entrp">   -191.18265711 </i>
    <i name="e_0_energy">   -191.28255734 </i>
   </energy>
  </scstep>
  <scstep>
   <time name="dav">   29.24   29.31</time>
   <time name="total">   29.74   29.82</time>
   <energy>
    <i name="e_fr_energy">   -191.36354015 </i>
    <i name="e_wo_entrp">   -191.16928787 </i>
    <i name="e_0_energy">   -191.26641401 </i>
   </energy>
  </scstep>
  <scstep>
   <time name="dav">   28.08   28.15</time>
   <time name="total">   28.59   28.67</time>
   <energy>
    <i name="e_fr_energy">   -191.36367591 </i>
    <i name="e_wo_entrp">   -191.16944172 </i>
    <i name="e_0_energy">   -191.26655881 </i>
   </energy>
  </scstep>
  <scstep>
   <time name="dav">   27.84   27.91</time>
   <time name="total">   28.35   28.42</time>
   <energy>
    <i name="e_fr_energy">   -191.36241834 </i>
    <i name="e_wo_entrp">   -191.16765615 </i>
    <i name="e_0_energy">   -191.26503725 </i>
   </energy>
  </scstep>
  <scstep>
   <time name="dav">   26.55   26.62</time>
   <time name="total">   27.06   27.13</time>
   <energy>
    <i name="e_fr_energy">   -191.36224116 </i>
    <i name="e_wo_entrp">   -191.16751466 </i>
    <i name="e_0_energy">   -191.26487791 </i>
   </energy>
  </scstep>
  <scstep>
   <time name="dav">   24.67   24.72</time>
   <time name="total">   25.17   25.24</time>
   <energy>
    <i name="e_fr_energy">   -191.36234441 </i>
    <i name="e_wo_entrp">   -191.16762816 </i>
    <i name="e_0_energy">   -191.26498628 </i>
   </energy>
  </scstep>
  <scstep>
   <time name="dav">   22.59   22.64</time>
   <time name="total">   23.09   23.16</time>
   <energy>
    <i name="e_fr_energy">   -191.36219522 </i>
    <i name="e_wo_entrp">   -191.16747012 </i>
    <i name="e_0_energy">   -191.26483267 </i>
   </energy>
  </scstep>
  <scstep>
   <time name="dav">   18.06   18.11</time>
   <time name="total">   18.10   18.15</time>
   <energy>
    <i name="alphaZ">     90.42921221 </i>
    <i name="ewald">  44762.38450059 </i>
    <i name="hartreedc"> -50774.82472989 </i>
    <i name="XCdc">   -233.35846673 </i>
[...]
      <set comment="kpoint 31">
       <r>  -17.5678    1.0000 </r>
       <r>  -17.2170    1.0000 </r>
       <r>  -16.9329    1.0000 </r>
       <r>  -16.6794    1.0000 </r>
       <r>  -16.5017    1.0000 </r>
       <r>  -16.4337    1.0000 </r>
       <r>  -16.3160    1.0000 </r>
       <r>  -16.2348    1.0000 </r>
       <r>  -16.0941    1.0000 </r>
       <r>  -16.0232    1.0000 </r>
       <r>  -15.9586    1.0000 </r>
       <r>  -15.8803    1.0000 </r>
       <r>  -15.7691    1.0000 </r>
       <r>  -15.6917    1.0000 </r>
       <r>  -15.6022    1.0000 </r>
       <r>  -15.5245    1.0000 </r>
       <r>  -15.3603    1.0000 </r>
       <r>  -15.2204    1.0000 </r>
       <r>   -9.7262    1.0000 </r>
       <r>   -9.4303    1.0000 </r>
       <r>   -9.3799    1.0000 </r>
       <r>   -9.0401    1.0000 </r>
       <r>   -8.9400    1.0000 </r>
       <r>   -8.7215    1.0000 </r>
       <r>   -8.6047    1.0000 </r>
       <r>   -8.3829    1.0000 </r>
       <r>   -8.3400    1.0000 </r>
       <r>   -8.3201    1.0000 </r>
       <r>   -8.2698    1.0000 </r>
       <r>   -8.2213    1.0000 </r>
       <r>   -8.1958    1.0000 </r>
       <r>   -8.0837    1.0000 </r>
       <r>   -8.0138    1.0000 </r>
       <r>   -7.9109    1.0000 </r>
       <r>   -7.7833    1.0000 </r>
       <r>   -7.7260    1.0000 </r>
       <r>   -7.5918    1.0000 </r>
       <r>   -7.4203    1.0000 </r>
       <r>   -7.3428    1.0000 </r>
       <r>   -7.2884    1.0000 </r>
       <r>   -7.1355    1.0000 </r>
       <r>   -7.0666    1.0000 </r>
       <r>   -6.9895    1.0000 </r>
       <r>   -6.9622    1.0000 </r>
       <r>   -6.8715    1.0000 </r>
       <r>   -6.7615    1.0000 </r>
       <r>   -6.6599    1.0000 </r>
       <r>   -6.5807    1.0000 </r>
       <r>   -6.5580    1.0000 </r>
       <r>   -6.4858    1.0000 </r>
       <r>   -6.3782    1.0000 </r>
       <r>   -6.3158    1.0000 </r>
       <r>   -6.2507    1.0000 </r>
       <r>   -6.1879    1.0000 </r>
       <r>   -6.1630    1.0000 </r>
       <r>   -6.0789    1.0000 </r>
       <r>   -6.0064    1.0000 </r>
       <r>   -5.9085    1.0000 </r>
       <r>   -5.8406    1.0000 </r>
       <r>   -5.8149    1.0000 </r>
       <r>   -5.6950    1.0000 </r>
       <r>   -5.6466    1.0000 </r>
       <r>   -5.5194    1.0000 </r>
       <r>   -5.4089    1.0000 </r>
       <r>   -5.2619    1.0000 </r>
       <r>   -5.1744    1.0000 </r>
       <r>   -5.1169    1.0000 </r>
       <r>   -4.8902    1.0000 </r>
       <r>   -4.7828    1.0000 </r>
       <r>   -4.7032    1.0000 </r>
       <r>   -4.5148    1.0000 </r>
       <r>   -4.4426    1.0000 </r>
       <r>   -4.2894    1.0000 </r>
       <r>   -4.2037    1.0000 </r>
       <r>   -4.1237    1.0000 </r>
       <r>   -4.0033    1.0000 </r>
       <r>   -3.8723    1.0000 </r>
       <r>   -3.6661    0.9939 </r>
       <r>   -3.5661    0.9638 </r>
       <r>   -3.2103    0.2359 </r>
       <r>   -3.1012    0.0680 </r>
       <r>   -2.7860    0.0001 </r>
       <r>   -2.6707    0.0000 </r>
       <r>   -2.5539    0.0000 </r>
       <r>   -2.5084    0.0000 </r>
       <r>   -2.3104    0.0000 </r>
       <r>   -2.2377    0.0000 </r>
       <r>   -2.0961    0.0000 </r>
       <r>   -1.9824    0.0000 </r>
       <r>   -1.8761    0.0000 </r>
       <r>   -1.6981    0.0000 </r>
       <r>   -1.5690    0.0000 </r>
       <r>   -1.4293    0.0000 </r>
       <r>   -1.3843    0.0000 </r>
       <r>   -1.2630    0.0000 </r>
       <r>   -1.1884    0.0000 </r>
       <r>   -1.1287    0.0000 </r>
       <r>   -1.0349    0.0000 </r>
       <r>   -1.0267    0.0000 </r>
       <r>   -0.9306    0.0000 </r>
       <r>   -0.8999    0.0000 </r>
       <r>   -0.7312    0.0000 </r>
       <r>   -0.6754    0.0000 </r>
       <r>   -0.5553    0.0000 </r>
       <r>   -0.4015    0.0000 </r>
       <r>   -0.3634    0.0000 </r>
       <r>   -0.1975    0.0000 </r>
       <r>   -0.0738    0.0000 </r>
       <r>    0.0720    0.0000 </r>
       <r>    0.2463    0.0000 </r>
       <r>    0.3727    0.0000 </r>
       <r>    0.5220    0.0000 </r>
       <r>    0.6595    0.0000 </r>
       <r>    0.8369    0.0000 </r>
       <r>    1.0167    0.0000 </r>
       <r>    1.2913    0.0000 </r>
       <r>    1.4394    0.0000 </r>
       <r>    2.1161    0.0000 </r>
       <r>    2.2997    0.0000 </r>
       <r>    2.3802    0.0000 </r>
      </set>
      <set comment="kpoint 32">
       <r>  -17.5648    1.0000 </r>
       <r>  -17.1504    1.0000 </r>
       <r>  -17.0590    1.0000 </r>
       <r>  -16.6711    1.0000 </r>
       <r>  -16.4555    1.0000 </r>
       <r>  -16.3319    1.0000 </r>
       <r>  -16.3102    1.0000 </r>
       <r>  -16.2468    1.0000 </r>
       <r>  -16.1893    1.0000 </r>
       <r>  -16.0611    1.0000 </r>
       <r>  -15.9832    1.0000 </r>
       <r>  -15.8756    1.0000 </r>
       <r>  -15.7493    1.0000 </r>
       <r>  -15.6697    1.0000 </r>
       <r>  -15.5753    1.0000 </r>
       <r>  -15.5030    1.0000 </r>
       <r>  -15.3791    1.0000 </r>
       <r>  -15.2297    1.0000 </r>
       <r>   -9.6657    1.0000 </r>
       <r>   -9.5592    1.0000 </r>
       <r>   -9.4468    1.0000 </r>
       <r>   -9.0004    1.0000 </r>
       <r>   -8.7806    1.0000 </r>
       <r>   -8.6258    1.0000 </r>
       <r>   -8.4881    1.0000 </r>
       <r>   -8.4657    1.0000 </r>
       <r>   -8.4403    1.0000 </r>
       <r>   -8.3450    1.0000 </r>
       <r>   -8.2930    1.0000 </r>
       <r>   -8.2280    1.0000 </r>
       <r>   -8.1981    1.0000 </r>
       <r>   -8.1151    1.0000 </r>
       <r>   -8.0433    1.0000 </r>
       <r>   -7.9352    1.0000 </r>
       <r>   -7.8094    1.0000 </r>
       <r>   -7.6676    1.0000 </r>
       <r>   -7.6172    1.0000 </r>
       <r>   -7.4400    1.0000 </r>
       <r>   -7.3547    1.0000 </r>
       <r>   -7.2781    1.0000 </r>
       <r>   -7.1477    1.0000 </r>
       <r>   -7.0822    1.0000 </r>
       <r>   -7.0279    1.0000 </r>
       <r>   -6.9753    1.0000 </r>
       <r>   -6.8518    1.0000 </r>
       <r>   -6.7394    1.0000 </r>
       <r>   -6.6684    1.0000 </r>
       <r>   -6.6250    1.0000 </r>
       <r>   -6.5166    1.0000 </r>
       <r>   -6.4845    1.0000 </r>
       <r>   -6.3541    1.0000 </r>
       <r>   -6.2961    1.0000 </r>
       <r>   -6.2576    1.0000 </r>
       <r>   -6.1891    1.0000 </r>
       <r>   -6.1451    1.0000 </r>
       <r>   -6.0643    1.0000 </r>
       <r>   -5.9794    1.0000 </r>
       <r>   -5.8713    1.0000 </r>
       <r>   -5.7937    1.0000 </r>
       <r>   -5.7020    1.0000 </r>
       <r>   -5.6619    1.0000 </r>
       <r>   -5.6107    1.0000 </r>
       <r>   -5.5377    1.0000 </r>
       <r>   -5.4549    1.0000 </r>
       <r>   -5.3198    1.0000 </r>
       <r>   -5.2196    1.0000 </r>
       <r>   -5.0965    1.0000 </r>
       <r>   -4.9912    1.0000 </r>
       <r>   -4.7647    1.0000 </r>
       <r>   -4.6659    1.0000 </r>
       <r>   -4.5306    1.0000 </r>
       <r>   -4.4060    1.0000 </r>
       <r>   -4.3627    1.0000 </r>
       <r>   -4.2637    1.0000 </r>
       <r>   -4.1087    1.0000 </r>
       <r>   -3.9887    1.0000 </r>
       <r>   -3.8569    0.9999 </r>
       <r>   -3.6728    0.9946 </r>
       <r>   -3.5136    0.9230 </r>
       <r>   -3.2016    0.2174 </r>
       <r>   -3.1241    0.0919 </r>
       <r>   -2.8291    0.0003 </r>
       <r>   -2.6622    0.0000 </r>
       <r>   -2.5617    0.0000 </r>
       <r>   -2.5363    0.0000 </r>
       <r>   -2.3541    0.0000 </r>
       <r>   -2.2242    0.0000 </r>
       <r>   -2.1328    0.0000 </r>
       <r>   -1.9895    0.0000 </r>
       <r>   -1.8722    0.0000 </r>
       <r>   -1.7383    0.0000 </r>
       <r>   -1.5383    0.0000 </r>
       <r>   -1.3909    0.0000 </r>
       <r>   -1.3234    0.0000 </r>
       <r>   -1.2305    0.0000 </r>
       <r>   -1.1638    0.0000 </r>
       <r>   -1.1193    0.0000 </r>
       <r>   -1.0302    0.0000 </r>
       <r>   -1.0017    0.0000 </r>
       <r>   -0.9428    0.0000 </r>
       <r>   -0.8732    0.0000 </r>
       <r>   -0.7686    0.0000 </r>
       <r>   -0.7048    0.0000 </r>
       <r>   -0.5593    0.0000 </r>
       <r>   -0.4756    0.0000 </r>
       <r>   -0.3116    0.0000 </r>
       <r>   -0.2323    0.0000 </r>
       <r>   -0.0845    0.0000 </r>
       <r>    0.1290    0.0000 </r>
       <r>    0.2095    0.0000 </r>
       <r>    0.3401    0.0000 </r>
       <r>    0.6152    0.0000 </r>
       <r>    0.7090    0.0000 </r>
       <r>    0.8671    0.0000 </r>
       <r>    0.9867    0.0000 </r>
       <r>    1.2314    0.0000 </r>
       <r>    1.4123    0.0000 </r>
       <r>    2.0947    0.0000 </r>
       <r>    2.2688    0.0000 </r>
       <r>    2.5619    0.0000 </r>
      </set>
      <set comment="kpoint 33">
       <r>  -17.5381    1.0000 </r>
       <r>  -17.2751    1.0000 </r>
       <r>  -16.9066    1.0000 </r>
       <r>  -16.6624    1.0000 </r>
       <r>  -16.4819    1.0000 </r>
       <r>  -16.4725    1.0000 </r>
       <r>  -16.2881    1.0000 </r>
       <r>  -16.2356    1.0000 </r>
       <r>  -16.1380    1.0000 </r>
       <r>  -16.0738    1.0000 </r>
       <r>  -15.9886    1.0000 </r>
       <r>  -15.8560    1.0000 </r>
       <r>  -15.7329    1.0000 </r>
       <r>  -15.6542    1.0000 </r>
       <r>  -15.5758    1.0000 </r>
       <r>  -15.4768    1.0000 </r>
       <r>  -15.3834    1.0000 </r>
       <r>  -15.2634    1.0000 </r>
       <r>   -9.7590    1.0000 </r>
       <r>   -9.4717    1.0000 </r>
       <r>   -9.3522    1.0000 </r>
       <r>   -8.9566    1.0000 </r>
       <r>   -8.8689    1.0000 </r>
       <r>   -8.7336    1.0000 </r>
       <r>   -8.6081    1.0000 </r>
       <r>   -8.5486    1.0000 </r>
       <r>   -8.4392    1.0000 </r>
       <r>   -8.3191    1.0000 </r>
       <r>   -8.2704    1.0000 </r>
       <r>   -8.1604    1.0000 </r>
       <r>   -8.1257    1.0000 </r>
       <r>   -8.0482    1.0000 </r>
       <r>   -8.0199    1.0000 </r>
       <r>   -7.8743    1.0000 </r>
       <r>   -7.8082    1.0000 </r>
       <r>   -7.6862    1.0000 </r>
       <r>   -7.5874    1.0000 </r>
       <r>   -7.5182    1.0000 </r>
       <r>   -7.4094    1.0000 </r>
       <r>   -7.2878    1.0000 </r>
       <r>   -7.1431    1.0000 </r>
       <r>   -7.0431    1.0000 </r>
       <r>   -7.0328    1.0000 </r>
       <r>   -6.9511    1.0000 </r>
       <r>   -6.8702    1.0000 </r>
       <r>   -6.7654    1.0000 </r>
       <r>   -6.6368    1.0000 </r>
       <r>   -6.5875    1.0000 </r>
       <r>   -6.5178    1.0000 </r>
       <r>   -6.4645    1.0000 </r>
       <r>   -6.3994    1.0000 </r>
       <r>   -6.3196    1.0000 </r>
       <r>   -6.2699    1.0000 </r>
       <r>   -6.1606    1.0000 </r>
       <r>   -6.0973    1.0000 </r>
       <r>   -6.0307    1.0000 </r>
       <r>   -5.9943    1.0000 </r>
       <r>   -5.9316    1.0000 </r>
       <r>   -5.8380    1.0000 </r>
       <r>   -5.7377    1.0000 </r>
       <r>   -5.6510    1.0000 </r>
       <r>   -5.5997    1.0000 </r>
       <r>   -5.5278    1.0000 </r>
       <r>   -5.4202    1.0000 </r>
       <r>   -5.3514    1.0000 </r>
       <r>   -5.1972    1.0000 </r>
       <r>   -5.0816    1.0000 </r>
       <r>   -4.8801    1.0000 </r>
       <r>   -4.7578    1.0000 </r>
       <r>   -4.7062    1.0000 </r>
       <r>   -4.5547    1.0000 </r>
       <r>   -4.4010    1.0000 </r>
       <r>   -4.3481    1.0000 </r>
       <r>   -4.2661    1.0000 </r>
       <r>   -4.1200    1.0000 </r>
       <r>   -3.9984    1.0000 </r>
       <r>   -3.8467    0.9999 </r>
       <r>   -3.7160    0.9979 </r>
       <r>   -3.4799    0.8824 </r>
       <r>   -3.2716    0.3876 </r>
       <r>   -3.0639    0.0397 </r>
       <r>   -2.8862    0.0013 </r>
       <r>   -2.6990    0.0000 </r>
       <r>   -2.5590    0.0000 </r>
       <r>   -2.5169    0.0000 </r>
       <r>   -2.3945    0.0000 </r>
       <r>   -2.2391    0.0000 </r>
       <r>   -2.1883    0.0000 </r>
       <r>   -1.9471    0.0000 </r>
       <r>   -1.8598    0.0000 </r>
       <r>   -1.7570    0.0000 </r>
       <r>   -1.5032    0.0000 </r>
       <r>   -1.3566    0.0000 </r>
       <r>   -1.2994    0.0000 </r>
       <r>   -1.1724    0.0000 </r>
       <r>   -1.1468    0.0000 </r>
       <r>   -1.1160    0.0000 </r>
       <r>   -1.0276    0.0000 </r>
       <r>   -0.9900    0.0000 </r>
       <r>   -0.9265    0.0000 </r>
       <r>   -0.8465    0.0000 </r>
       <r>   -0.8114    0.0000 </r>
       <r>   -0.7366    0.0000 </r>
       <r>   -0.5907    0.0000 </r>
       <r>   -0.5414    0.0000 </r>
       <r>   -0.3728    0.0000 </r>
       <r>   -0.1856    0.0000 </r>
       <r>   -0.0700    0.0000 </r>
       <r>    0.0962    0.0000 </r>
       <r>    0.2128    0.0000 </r>
       <r>    0.3322    0.0000 </r>
       <r>    0.6455    0.0000 </r>
       <r>    0.7956    0.0000 </r>
       <r>    0.8700    0.0000 </r>
       <r>    1.0729    0.0000 </r>
       <r>    1.1878    0.0000 </r>
       <r>    1.3989    0.0000 </r>
       <r>    2.1327    0.0000 </r>
       <r>    2.2990    0.0000 </r>
       <r>    2.3960    0.0000 </r>
      </set>
      <set comment="kpoint 34">
       <r>  -17.5115    1.0000 </r>
       <r>  -17.3414    1.0000 </r>
       <r>  -16.7328    1.0000 </r>
       <r>  -16.6778    1.0000 </r>
       <r>  -16.6438    1.0000 </r>
       <r>  -16.4912    1.0000 </r>
       <r>  -16.2723    1.0000 </r>
       <r>  -16.2247    1.0000 </r>
       <r>  -16.1439    1.0000 </r>
       <r>  -16.0374    1.0000 </r>
       <r>  -15.9964    1.0000 </r>
       <r>  -15.8419    1.0000 </r>
       <r>  -15.7277    1.0000 </r>
       <r>  -15.6488    1.0000 </r>
       <r>  -15.5767    1.0000 </r>
       <r>  -15.4693    1.0000 </r>
       <r>  -15.3742    1.0000 </r>
       <r>  -15.2910    1.0000 </r>
       <r>   -9.8015    1.0000 </r>
       <r>   -9.4133    1.0000 </r>
       <r>   -9.1903    1.0000 </r>
       <r>   -9.0475    1.0000 </r>
       <r>   -8.9353    1.0000 </r>
       <r>   -8.8493    1.0000 </r>
       <r>   -8.6478    1.0000 </r>
       <r>   -8.5569    1.0000 </r>
       <r>   -8.4502    1.0000 </r>
       <r>   -8.3245    1.0000 </r>
       <r>   -8.2525    1.0000 </r>
       <r>   -8.1488    1.0000 </r>
       <r>   -8.0992    1.0000 </r>
       <r>   -7.9900    1.0000 </r>
       <r>   -7.9241    1.0000 </r>
       <r>   -7.8571    1.0000 </r>
       <r>   -7.7372    1.0000 </r>
       <r>   -7.6807    1.0000 </r>
       <r>   -7.6301    1.0000 </r>
       <r>   -7.5958    1.0000 </r>
       <r>   -7.4596    1.0000 </r>
       <r>   -7.3090    1.0000 </r>
       <r>   -7.1540    1.0000 </r>
       <r>   -7.0583    1.0000 </r>
       <r>   -6.9574    1.0000 </r>
       <r>   -6.9225    1.0000 </r>
       <r>   -6.8477    1.0000 </r>
       <r>   -6.7211    1.0000 </r>
       <r>   -6.6195    1.0000 </r>
       <r>   -6.5705    1.0000 </r>
       <r>   -6.5509    1.0000 </r>
       <r>   -6.4745    1.0000 </r>
       <r>   -6.4070    1.0000 </r>
       <r>   -6.3397    1.0000 </r>
       <r>   -6.2811    1.0000 </r>
       <r>   -6.2527    1.0000 </r>
       <r>   -6.1399    1.0000 </r>
       <r>   -6.0006    1.0000 </r>
       <r>   -5.9687    1.0000 </r>
       <r>   -5.9479    1.0000 </r>
       <r>   -5.8309    1.0000 </r>
       <r>   -5.7025    1.0000 </r>
       <r>   -5.6730    1.0000 </r>
       <r>   -5.6250    1.0000 </r>
       <r>   -5.5123    1.0000 </r>
       <r>   -5.4646    1.0000 </r>
       <r>   -5.3587    1.0000 </r>
       <r>   -5.1078    1.0000 </r>
       <r>   -5.0643    1.0000 </r>
       <r>   -4.8939    1.0000 </r>
       <r>   -4.8106    1.0000 </r>
       <r>   -4.6211    1.0000 </r>
       <r>   -4.4809    1.0000 </r>
       <r>   -4.4483    1.0000 </r>
       <r>   -4.3348    1.0000 </r>
       <r>   -4.2670    1.0000 </r>
       <r>   -4.1601    1.0000 </r>
       <r>   -3.9745    1.0000 </r>
       <r>   -3.8883    1.0000 </r>
       <r>   -3.7291    0.9984 </r>
       <r>   -3.4725    0.8717 </r>
       <r>   -3.2886    0.4342 </r>
       <r>   -3.0248    0.0211 </r>
       <r>   -2.9285    0.0033 </r>
       <r>   -2.7245    0.0000 </r>
       <r>   -2.5580    0.0000 </r>
       <r>   -2.4912    0.0000 </r>
       <r>   -2.4157    0.0000 </r>
       <r>   -2.2683    0.0000 </r>
       <r>   -2.1922    0.0000 </r>
       <r>   -1.9224    0.0000 </r>
       <r>   -1.8618    0.0000 </r>
       <r>   -1.7526    0.0000 </r>
       <r>   -1.4813    0.0000 </r>
       <r>   -1.3574    0.0000 </r>
       <r>   -1.2818    0.0000 </r>
       <r>   -1.1609    0.0000 </r>
       <r>   -1.1343    0.0000 </r>
       <r>   -1.1122    0.0000 </r>
       <r>   -1.0473    0.0000 </r>
       <r>   -0.9895    0.0000 </r>
       <r>   -0.8820    0.0000 </r>
       <r>   -0.8567    0.0000 </r>
       <r>   -0.7996    0.0000 </r>
       <r>   -0.7402    0.0000 </r>
       <r>   -0.6151    0.0000 </r>
       <r>   -0.6136    0.0000 </r>
       <r>   -0.3973    0.0000 </r>
       <r>   -0.1251    0.0000 </r>
       <r>   -0.0822    0.0000 </r>
       <r>    0.0584    0.0000 </r>
       <r>    0.2266    0.0000 </r>
       <r>    0.3238    0.0000 </r>
       <r>    0.6374    0.0000 </r>
       <r>    0.8553    0.0000 </r>
       <r>    0.8808    0.0000 </r>
       <r>    1.1319    0.0000 </r>
       <r>    1.1592    0.0000 </r>
       <r>    1.4001    0.0000 </r>
       <r>    2.2227    0.0000 </r>
       <r>    2.2413    0.0000 </r>
       <r>    2.4025    0.0000 </r>
      </set>
     </set>
    </set>
   </array>
  </eigenvalues>
  <separator name="orbital magnetization" >
   <v name="MAGDIPOLOUT">      0.00000000      0.00000000      0.00000000</v>
  </separator>
 </calculation>
 <structure name="finalpos" >
  <crystal>
   <varray name="basis" >
    <v>       8.31860722       4.81827046       0.00000000 </v>
    <v>      -8.32768945       4.83410026       0.00000000 </v>
    <v>       0.00000000       0.00000000      30.00000000 </v>
   </varray>
   <i name="volume">   2410.14124123 </i>
   <varray name="rec_basis" >
    <v>       0.06017200       0.10365811       0.00000000 </v>
    <v>      -0.05997496       0.10354506       0.00000000 </v>
    <v>       0.00000000       0.00000000       0.03333333 </v>
   </varray>
  </crystal>
  <varray name="positions" >
   <v>       0.65357920      -0.03562164      -0.00073865 </v>
   <v>       0.31190241      -0.03447158      -0.00120083 </v>
   <v>       1.01588694       0.36383953       0.00108897 </v>
   <v>       0.30966070       0.65650946      -0.00001159 </v>
   <v>       0.00029453       0.67229745       0.00031427 </v>
   <v>      -0.01312945      -0.03163433      -0.00030592 </v>
   <v>       0.31603128       0.35339772       0.00005491 </v>
   <v>       0.69970474       0.36667298       0.00004033 </v>
   <v>       0.69838624       0.67863777       0.00065899 </v>
   <v>       0.10042458       0.22248241       0.95210156 </v>
   <v>       0.22582519       0.10997630       0.04694556 </v>
   <v>       0.10532818       0.55352763       0.94577476 </v>
   <v>       0.21127942       0.44399541       0.05634751 </v>
   <v>       0.11618657       0.89053884       0.94513610 </v>
   <v>       0.22468559       0.78190461       0.05444258 </v>
   <v>       0.44217379       0.22168732       0.95827106 </v>
   <v>       0.55721348       0.10886834       0.04213532 </v>
   <v>       0.45080384       0.56403814       0.95054168 </v>
   <v>       0.55695459       0.44635619       0.05068641 </v>
   <v>       0.44259837       0.88836890       0.94833579 </v>
   <v>       0.55419268       0.76977937       0.05023386 </v>
   <v>       0.78136981       0.22049864       0.95392118 </v>
   <v>       0.88502840       0.11214560       0.04352927 </v>
   <v>       0.78545210       0.56467606       0.94370750 </v>
   <v>       0.89692864       0.44728488       0.05507909 </v>
   <v>       0.77572850       0.88738343       0.94549159 </v>
   <v>       0.89372413       0.77507500       0.05741860 </v>
  </varray>
 </structure>
</modeling>
