unknown system                          
           1
     8.854530    5.104526    0.000000
    -8.855598    5.106364    0.000000
     0.000000    0.000000   30.000000
   V    Mo   W    S 
   3   3   3  18
Direct configuration=     1
   0.66666669  0.00000000  0.00000000
   0.33333334  0.00000000  0.00000000
   1.00000000  0.33333334  0.00000000
   0.33333334  0.66666669  0.00000000
   0.00000000  0.66666669  0.00000000
   0.00000000  0.00000000  0.00000000
   0.33333334  0.33333334  0.00000000
   0.66666669  0.33333334  0.00000000
   0.66666669  0.66666669  0.00000000
   0.11068511  0.22244981  0.95539999
   0.22244981  0.11068511  0.04460000
   0.11068511  0.55578315  0.95539999
   0.22244981  0.44401845  0.04460000
   0.11068511  0.88911647  0.95539999
   0.22244981  0.77735180  0.04460000
   0.44401845  0.22244981  0.95539999
   0.55578315  0.11068511  0.04460000
   0.44401845  0.55578315  0.95539999
   0.55578315  0.44401845  0.04460000
   0.44401845  0.88911647  0.95539999
   0.55578315  0.77735180  0.04460000
   0.77735180  0.22244981  0.95539999
   0.88911647  0.11068511  0.04460000
   0.77735180  0.55578315  0.95539999
   0.88911647  0.44401845  0.04460000
   0.77735180  0.88911647  0.95539999
   0.88911647  0.77735180  0.04460000
unknown system                          
           1
     8.666379    4.998326    0.000000
    -8.667225    4.999780    0.000000
     0.000000    0.000000   30.000000
   V    Mo   W    S 
   3   3   3  18
Direct configuration=     2
   0.66673575 -0.00068048  0.00004687
   0.33144779 -0.00237043 -0.00018711
   1.00078334  0.33410133  0.00019380
   0.33192167  0.66694398 -0.00011569
   0.00142701  0.66799241 -0.00023448
  -0.00009037 -0.00116512  0.00011301
   0.33157315  0.33310552  0.00019034
   0.66813756  0.33404828  0.00002142
   0.66815009  0.66837318  0.00000834
   0.10952892  0.22494531  0.95200331
   0.22505907  0.10966260  0.04796840
   0.10880723  0.55106562  0.95195090
   0.21795280  0.44152411  0.04814638
   0.11558528  0.89098674  0.95186194
   0.22438219  0.78212365  0.04810698
   0.44255796  0.21825557  0.95193754
   0.55395243  0.10755334  0.04683343
   0.44493590  0.55512226  0.95080946
   0.55532660  0.44442222  0.04930929
   0.44621222  0.89323866  0.95309698
   0.55808463  0.78162681  0.04806618
   0.77938556  0.22037921  0.95304610
   0.88666853  0.11324075  0.04691711
   0.77694407  0.55507633  0.95070654
   0.89026959  0.44130546  0.04800290
   0.77475545  0.89016680  0.95196107
   0.88772003  0.77717035  0.04923887
unknown system                          
           1
     8.486740    4.899731    0.000000
    -8.487283    4.900660    0.000000
     0.000000    0.000000   30.000000
   V    Mo   W    S 
   3   3   3  18
Direct configuration=     3
   0.66675999 -0.00098454  0.00009809
   0.33074506 -0.00313832 -0.00021318
   1.00118078  0.33440548  0.00021545
   0.33146860  0.66672933 -0.00016359
   0.00160390  0.66846167 -0.00025936
  -0.00019938 -0.00182935  0.00015490
   0.33126961  0.33325656  0.00016269
   0.66848600  0.33469415  0.00002711
   0.66869840  0.66866590  0.00001465
   0.10969050  0.22507781  0.95203274
   0.22525011  0.10985470  0.04796127
   0.10870441  0.55090738  0.95190294
   0.21790487  0.44131500  0.04820526
   0.11576201  0.89108796  0.95174748
   0.22448430  0.78228300  0.04817198
   0.44260224  0.21839523  0.95206191
   0.55401810  0.10773351  0.04670722
   0.44504840  0.55498868  0.95086646
   0.55532778  0.44443561  0.04925203
   0.44626528  0.89332593  0.95311358
   0.55825462  0.78162613  0.04803586
   0.77930046  0.22047404  0.95313508
   0.88662952  0.11325914  0.04684673
   0.77673043  0.55500204  0.95067985
   0.89010328  0.44115875  0.04800411
   0.77461686  0.89000773  0.95192054
   0.88750834  0.77702096  0.04931811
unknown system                          
           1
     8.268022    4.773487    0.000000
    -8.268978    4.775133    0.000000
     0.000000    0.000000   30.000000
   V    Mo   W    S 
   3   3   3  18
Direct configuration=     4
   0.66684421 -0.00235211  0.00027023
   0.32800178 -0.00585136 -0.00021605
   1.00306252  0.33586554  0.00021585
   0.32979899  0.66533380 -0.00026335
   0.00151688  0.67003058 -0.00024489
  -0.00073919 -0.00470952  0.00024322
   0.33081928  0.33440535 -0.00001443
   0.66954167  0.33778317  0.00004331
   0.67067148  0.66899289  0.00002865
   0.10893745  0.22536633  0.95072598
   0.22599969  0.10938250  0.04937708
   0.10781283  0.54949286  0.95030128
   0.21658091  0.44072320  0.04993582
   0.11715541  0.89184760  0.94982750
   0.22519441  0.78357230  0.04981535
   0.44209233  0.21747703  0.95109449
   0.55346983  0.10691854  0.04751810
   0.44519064  0.55494688  0.94950861
   0.55530777  0.44456745  0.05067953
   0.44693593  0.89444921  0.95186857
   0.55870587  0.78268230  0.04933264
   0.77979361  0.22002880  0.95215733
   0.88612255  0.11372107  0.04786594
   0.77678195  0.55519215  0.94892178
   0.89081815  0.44086281  0.04945761
   0.77420507  0.89071208  0.95029821
   0.88759243  0.77677300  0.05125153
unknown system                          
           1
     8.265076    4.768899    0.000000
    -8.268809    4.775355    0.000000
     0.000000    0.000000   30.000000
   V    Mo   W    S 
   3   3   3  18
Direct configuration=     5
   0.66703435 -0.00512641  0.00048135
   0.32260823 -0.01112847 -0.00002654
   1.00727555  0.33908346  0.00003341
   0.32620720  0.66186956 -0.00030913
   0.00013067  0.67296270 -0.00012243
  -0.00216987 -0.01115133  0.00023575
   0.33037401  0.33749667 -0.00028066
   0.67178206  0.34429104  0.00008636
   0.67522354  0.66902576  0.00004121
   0.10745026  0.22470929  0.94916076
   0.22642665  0.10866403  0.05112759
   0.10668530  0.54836625  0.94802995
   0.21506493  0.44043794  0.05254796
   0.11831822  0.89228197  0.94687879
   0.22567267  0.78452022  0.05206315
   0.44155824  0.21632334  0.94996422
   0.55282030  0.10640445  0.04839506
   0.44559067  0.55569528  0.94769867
   0.55510922  0.44524753  0.05274593
   0.44733233  0.89508724  0.95001428
   0.55869200  0.78338094  0.05100860
   0.78045493  0.21985492  0.95098613
   0.88606586  0.11392284  0.04935306
   0.77789797  0.55628967  0.94619749
   0.89211050  0.44140407  0.05143434
   0.77427317  0.89158357  0.94807938
   0.88822551  0.77671795  0.05417522
unknown system                          
           1
     8.265627    4.768776    0.000000
    -8.269862    4.776100    0.000000
     0.000000    0.000000   30.000000
   V    Mo   W    S 
   3   3   3  18
Direct configuration=     6
   0.66699173 -0.00606488  0.00052808
   0.32110801 -0.01307278 -0.00003938
   1.00879709  0.34026925 -0.00000633
   0.32511646  0.66064934 -0.00033191
  -0.00102267  0.67320324 -0.00013363
  -0.00292042 -0.01301295  0.00018450
   0.33075389  0.33932462 -0.00025035
   0.67276393  0.34649588  0.00010774
   0.67677503  0.66867326  0.00008349
   0.10713436  0.22385585  0.94927026
   0.22603682  0.10871598  0.05096970
   0.10650816  0.54894492  0.94790132
   0.21516008  0.44057732  0.05284128
   0.11788600  0.89184318  0.94659641
   0.22515127  0.78383889  0.05223693
   0.44163893  0.21656794  0.95021544
   0.55284157  0.10700030  0.04810204
   0.44610438  0.55657872  0.94764198
   0.55500576  0.44579310  0.05296355
   0.44684913  0.89445965  0.94997469
   0.55840292  0.78250307  0.05093648
   0.78053071  0.22036442  0.95115030
   0.88674925  0.11364596  0.04926803
   0.77860269  0.55700919  0.94575252
   0.89230476  0.44205740  0.05149246
   0.77455145  0.89123281  0.94794090
   0.88839318  0.77676078  0.05460339
unknown system                          
           1
     8.262242    4.767656    0.000000
    -8.264786    4.772051    0.000000
     0.000000    0.000000   30.000000
   V    Mo   W    S 
   3   3   3  18
Direct configuration=     7
   0.66693395 -0.00669391  0.00058508
   0.32020701 -0.01450100 -0.00002881
   1.00974816  0.34098484 -0.00004233
   0.32435242  0.65991705 -0.00033265
  -0.00169948  0.67334280 -0.00010914
  -0.00356290 -0.01431289  0.00018089
   0.33107678  0.34070098 -0.00027706
   0.67345853  0.34800534  0.00010030
   0.67777127  0.66845401  0.00010598
   0.10706678  0.22353532  0.94938694
   0.22594096  0.10881460  0.05080609
   0.10636970  0.54916419  0.94784386
   0.21517680  0.44065816  0.05301443
   0.11769335  0.89161621  0.94645363
   0.22486536  0.78349715  0.05229257
   0.44166576  0.21673453  0.95042910
   0.55284837  0.10732704  0.04786981
   0.44641456  0.55705122  0.94763596
   0.55499520  0.44605994  0.05307851
   0.44660262  0.89417448  0.94997225
   0.55827721  0.78205226  0.05085595
   0.78057266  0.22064115  0.95129442
   0.88707964  0.11356616  0.04915946
   0.77888258  0.55731979  0.94551023
   0.89239642  0.44233700  0.05152740
   0.77462057  0.89101545  0.94787259
   0.88846020  0.77675257  0.05481441
unknown system                          
           1
     8.259962    4.765224    0.000000
    -8.261887    4.768545    0.000000
     0.000000    0.000000   30.000000
   V    Mo   W    S 
   3   3   3  18
Direct configuration=     8
   0.66704659 -0.00584243  0.00051327
   0.32109505 -0.01270234 -0.00001013
   1.00872554  0.34020308 -0.00001287
   0.32527927  0.66064896 -0.00031056
  -0.00113754  0.67329379 -0.00010511
  -0.00264250 -0.01285910  0.00020444
   0.33056397  0.33883359 -0.00027553
   0.67263057  0.34635039  0.00009110
   0.67682006  0.66861575  0.00008279
   0.10704207  0.22374609  0.94921861
   0.22591013  0.10862479  0.05107789
   0.10652734  0.54905506  0.94788378
   0.21519835  0.44058928  0.05285243
   0.11785851  0.89179677  0.94653353
   0.22515129  0.78382617  0.05221557
   0.44165441  0.21657482  0.95014156
   0.55283111  0.10700807  0.04816262
   0.44603818  0.55646119  0.94764514
   0.55495775  0.44585906  0.05298650
   0.44677601  0.89435469  0.94996162
   0.55837144  0.78246176  0.05096027
   0.78054038  0.22042058  0.95110397
   0.88683530  0.11357313  0.04931688
   0.77865313  0.55704782  0.94574966
   0.89238715  0.44223218  0.05148785
   0.77462201  0.89121568  0.94791974
   0.88847887  0.77682562  0.05460492
unknown system                          
           1
     8.254552    4.761522    0.000000
    -8.257204    4.766102    0.000000
     0.000000    0.000000   30.000000
   V    Mo   W    S 
   3   3   3  18
Direct configuration=     9
   0.66739605 -0.00422797  0.00037339
   0.32232736 -0.00906995 -0.00000050
   1.00728163  0.33901426  0.00002740
   0.32692320  0.66147440 -0.00031239
  -0.00086812  0.67335719 -0.00018376
  -0.00073540 -0.01052146  0.00013125
   0.32907597  0.33488140 -0.00024867
   0.67125812  0.34385317  0.00015627
   0.67576222  0.66902958  0.00003532
   0.10670281  0.22375877  0.94885284
   0.22559593  0.10816929  0.05177973
   0.10678871  0.54910438  0.94798484
   0.21515504  0.44026433  0.05263091
   0.11805669  0.89200997  0.94658080
   0.22550686  0.78421504  0.05210586
   0.44168081  0.21628447  0.94951399
   0.55281379  0.10659935  0.04868163
   0.44560959  0.55545587  0.94768657
   0.55474388  0.44562974  0.05286144
   0.44697212  0.89448425  0.94999920
   0.55865905  0.78303282  0.05110828
   0.78056368  0.22023284  0.95073162
   0.88666379  0.11350354  0.04960876
   0.77850725  0.55684598  0.94599499
   0.89250778  0.44232494  0.05142218
   0.77476680  0.89145224  0.94802691
   0.88849885  0.77705601  0.05445103
unknown system                          
           1
     8.259336    4.763912    0.000000
    -8.262345    4.769113    0.000000
     0.000000    0.000000   30.000000
   V    Mo   W    S 
   3   3   3  18
Direct configuration=    10
   0.66729438 -0.00499624  0.00047575
   0.32105850 -0.01048028  0.00003409
   1.00854329  0.33989728 -0.00001533
   0.32601073  0.66045345 -0.00030920
  -0.00187255  0.67360882 -0.00010640
  -0.00106563 -0.01197166  0.00017963
   0.32902821  0.33595908 -0.00026790
   0.67212248  0.34581483  0.00016584
   0.67729292  0.66895340  0.00008181
   0.10663244  0.22338508  0.94898947
   0.22549742  0.10825969  0.05158805
   0.10660388  0.54936451  0.94796518
   0.21515814  0.44019727  0.05280703
   0.11792104  0.89177496  0.94639587
   0.22515813  0.78383009  0.05205494
   0.44173828  0.21649597  0.94980684
   0.55283955  0.10710969  0.04831724
   0.44603258  0.55581098  0.94776626
   0.55461044  0.44586305  0.05292402
   0.44664963  0.89422500  0.95008525
   0.55860744  0.78252538  0.05095761
   0.78056106  0.22065948  0.95095669
   0.88710561  0.11344982  0.04939869
   0.77871270  0.55709286  0.94567842
   0.89255202  0.44265196  0.05141469
   0.77485701  0.89117967  0.94795773
   0.88856476  0.77710032  0.05469762
unknown system                          
           1
     8.263918    4.765366    0.000000
    -8.267630    4.771782    0.000000
     0.000000    0.000000   30.000000
   V    Mo   W    S 
   3   3   3  18
Direct configuration=    11
   0.66721850 -0.00543795  0.00050729
   0.32053396 -0.01139390  0.00002492
   1.00912598  0.34032902 -0.00003623
   0.32552615  0.66002903 -0.00032088
  -0.00224180  0.67364315 -0.00011507
  -0.00145947 -0.01270229  0.00016047
   0.32916977  0.33680229 -0.00028120
   0.67259501  0.34675180  0.00015827
   0.67789082  0.66888433  0.00008338
   0.10660844  0.22325220  0.94905336
   0.22551463  0.10833455  0.05148637
   0.10651094  0.54942856  0.94793405
   0.21513678  0.44022416  0.05291400
   0.11784485  0.89166987  0.94633107
   0.22501060  0.78366505  0.05209841
   0.44174628  0.21657282  0.94994449
   0.55282760  0.10727964  0.04817147
   0.44623299  0.55607731  0.94776727
   0.55461254  0.44598585  0.05298483
   0.44654800  0.89413118  0.95008875
   0.55854732  0.78230048  0.05091925
   0.78058031  0.22078176  0.95104946
   0.88725594  0.11345937  0.04932661
   0.77883042  0.55723060  0.94553556
   0.89258359  0.44273636  0.05145060
   0.77487820  0.89108910  0.94792263
   0.88858612  0.77709011  0.05484074
unknown system                          
           1
     8.259116    4.763094    0.000000
    -8.261590    4.767365    0.000000
     0.000000    0.000000   30.000000
   V    Mo   W    S 
   3   3   3  18
Direct configuration=    12
   0.66697551 -0.00656834  0.00060567
   0.31903839 -0.01378074  0.00002278
   1.01067205  0.34143832 -0.00008477
   0.32427692  0.65891485 -0.00034135
  -0.00325665  0.67382771 -0.00010838
  -0.00229979 -0.01458376  0.00014128
   0.32939408  0.33880368 -0.00031447
   0.67382451  0.34926039  0.00015472
   0.67956590  0.66869374  0.00011286
   0.10653179  0.22287284  0.94922178
   0.22553122  0.10850159  0.05121061
   0.10629052  0.54964730  0.94786246
   0.21511580  0.44028376  0.05317418
   0.11764667  0.89138276  0.94616324
   0.22461090  0.78323769  0.05216126
   0.44179373  0.21680591  0.95032664
   0.55279057  0.10777209  0.04775070
   0.44677904  0.55674366  0.94781260
   0.55462209  0.44634219  0.05310164
   0.44623808  0.89384872  0.95012570
   0.55840103  0.78166176  0.05078223
   0.78061404  0.22114639  0.95130817
   0.88767940  0.11344856  0.04910692
   0.77913104  0.55759674  0.94516062
   0.89263772  0.44300055  0.05151549
   0.77495561  0.89082140  0.94784915
   0.88865428  0.77709471  0.05517818
unknown system                          
           1
     8.258273    4.762551    0.000000
    -8.260204    4.765881    0.000000
     0.000000    0.000000   30.000000
   V    Mo   W    S 
   3   3   3  18
Direct configuration=    13
   0.66723225 -0.00517379  0.00048341
   0.32052845 -0.01097657  0.00003024
   1.00896478  0.34018476 -0.00003680
   0.32575006  0.66012146 -0.00031645
  -0.00225042  0.67379168 -0.00013553
  -0.00109132 -0.01254048  0.00014149
   0.32915482  0.33636475 -0.00028556
   0.67235375  0.34657373  0.00015169
   0.67779569  0.66874087  0.00006331
   0.10658399  0.22321230  0.94902103
   0.22546633  0.10827305  0.05156372
   0.10654340  0.54948847  0.94794105
   0.21516057  0.44018217  0.05290364
   0.11788949  0.89168238  0.94634042
   0.22507460  0.78375753  0.05205608
   0.44174123  0.21653800  0.94987837
   0.55279154  0.10725338  0.04822070
   0.44618056  0.55591977  0.94777570
   0.55456127  0.44597602  0.05298933
   0.44650905  0.89412486  0.95011680
   0.55856515  0.78233014  0.05093348
   0.78057415  0.22080494  0.95100594
   0.88728678  0.11343117  0.04936010
   0.77878749  0.55717587  0.94555800
   0.89257743  0.44278033  0.05145145
   0.77490360  0.89108067  0.94793130
   0.88857976  0.77711701  0.05485699
unknown system                          
           1
     8.256160    4.760527    0.000000
    -8.258767    4.765029    0.000000
     0.000000    0.000000   30.000000
   V    Mo   W    S 
   3   3   3  18
Direct configuration=    14
   0.66762709 -0.00329047  0.00034880
   0.32212133 -0.00718766  0.00007009
   1.00718102  0.33876538  0.00002892
   0.32752492  0.66115171 -0.00027518
  -0.00166273  0.67377627 -0.00012263
   0.00055866 -0.01028170  0.00014490
   0.32863221  0.33309016 -0.00023509
   0.67064096  0.34372981  0.00020066
   0.67609446  0.66873205  0.00002536
   0.10651978  0.22342713  0.94876363
   0.22525986  0.10790912  0.05211639
   0.10680014  0.54941145  0.94806490
   0.21516424  0.43988901  0.05259422
   0.11820523  0.89198607  0.94641110
   0.22552885  0.78429607  0.05187724
   0.44170736  0.21620631  0.94926755
   0.55276325  0.10676635  0.04874471
   0.44561042  0.55486751  0.94774880
   0.55437918  0.44559932  0.05290743
   0.44676360  0.89441862  0.95016637
   0.55888596  0.78307759  0.05105425
   0.78054041  0.22056169  0.95065983
   0.88700058  0.11337524  0.04960635
   0.77844740  0.55673391  0.94587737
   0.89253444  0.44268690  0.05133209
   0.77491319  0.89130998  0.94805627
   0.88847264  0.77720664  0.05456558
unknown system                          
           1
     8.259814    4.762368    0.000000
    -8.262524    4.767048    0.000000
     0.000000    0.000000   30.000000
   V    Mo   W    S 
   3   3   3  18
Direct configuration=    15
   0.66747107 -0.00423181  0.00043121
   0.32085491 -0.00874582  0.00004495
   1.00852656  0.33968884 -0.00003331
   0.32656686  0.66005848 -0.00032138
  -0.00266127  0.67398158 -0.00013973
   0.00003475 -0.01179322  0.00011639
   0.32857585  0.33437303 -0.00026933
   0.67156858  0.34577417  0.00019652
   0.67764300  0.66878895  0.00004060
   0.10648432  0.22310295  0.94892316
   0.22525923  0.10803657  0.05193333
   0.10661273  0.54957924  0.94808668
   0.21513802  0.43981920  0.05277966
   0.11804739  0.89173696  0.94629174
   0.22518011  0.78389095  0.05187376
   0.44177405  0.21641733  0.94957575
   0.55277402  0.10727972  0.04837488
   0.44605348  0.55524514  0.94784193
   0.55431223  0.44582464  0.05297569
   0.44650819  0.89423880  0.95025884
   0.55884518  0.78260708  0.05091382
   0.78052634  0.22093060  0.95091003
   0.88738694  0.11340038  0.04939163
   0.77865512  0.55697165  0.94558526
   0.89254747  0.44290881  0.05134010
   0.77502121  0.89108808  0.94804092
   0.88850808  0.77724214  0.05483678
unknown system                          
           1
     8.268204    4.766431    0.000000
    -8.271181    4.771574    0.000000
     0.000000    0.000000   30.000000
   V    Mo   W    S 
   3   3   3  18
Direct configuration=    16
   0.66739869 -0.00459227  0.00046459
   0.32042376 -0.00942951  0.00005036
   1.00901573  0.34002804 -0.00004466
   0.32619511  0.65969238 -0.00032169
  -0.00299856  0.67400291 -0.00012940
  -0.00023915 -0.01233439  0.00012157
   0.32857058  0.33492686 -0.00027136
   0.67196129  0.34652893  0.00019811
   0.67818201  0.66879511  0.00005777
   0.10644757  0.22298940  0.94896034
   0.22526510  0.10808014  0.05185906
   0.10653656  0.54962589  0.94806228
   0.21512017  0.43983125  0.05286134
   0.11798681  0.89164791  0.94622814
   0.22505226  0.78374868  0.05188901
   0.44179158  0.21648899  0.94967999
   0.55276165  0.10742406  0.04825074
   0.44623169  0.55543685  0.94784962
   0.55431794  0.44593714  0.05300846
   0.44643359  0.89416546  0.95026484
   0.55880307  0.78242706  0.05087846
   0.78053927  0.22103032  0.95098744
   0.88750906  0.11341557  0.04932624
   0.77874094  0.55707932  0.94546171
   0.89257894  0.44298664  0.05135791
   0.77504829  0.89102703  0.94800944
   0.88854048  0.77725467  0.05493960
unknown system                          
           1
     8.268472    4.766506    0.000000
    -8.271720    4.772119    0.000000
     0.000000    0.000000   30.000000
   V    Mo   W    S 
   3   3   3  18
Direct configuration=    17
   0.66714923 -0.00592970  0.00058342
   0.31889503 -0.01196979  0.00005528
   1.01084905  0.34125929 -0.00009790
   0.32481859  0.65831135 -0.00034541
  -0.00423998  0.67403014 -0.00011619
  -0.00129916 -0.01425013  0.00012056
   0.32845563  0.33696123 -0.00030084
   0.67343943  0.34926583  0.00019323
   0.68016067  0.66887739  0.00010753
   0.10632616  0.22259522  0.94913128
   0.22527254  0.10825960  0.05156486
   0.10628693  0.54979333  0.94800275
   0.21505840  0.43989160  0.05314111
   0.11770677  0.89130493  0.94604584
   0.22456645  0.78319793  0.05193775
   0.44188250  0.21680716  0.95009979
   0.55274854  0.10797283  0.04777435
   0.44688913  0.55616393  0.94791857
   0.55438045  0.44637868  0.05309528
   0.44616902  0.89385409  0.95031054
   0.55865892  0.78175240  0.05072283
   0.78059043  0.22140017  0.95130294
   0.88793719  0.11345216  0.04906508
   0.77904769  0.55749696  0.94505701
   0.89267492  0.44325843  0.05140859
   0.77514226  0.89077352  0.94793565
   0.88864764  0.77730590  0.05528601
unknown system                          
           1
     8.263559    4.763427    0.000000
    -8.266858    4.769126    0.000000
     0.000000    0.000000   30.000000
   V    Mo   W    S 
   3   3   3  18
Direct configuration=    18
   0.66704045 -0.00635678  0.00061857
   0.31844803 -0.01279059  0.00005378
   1.01133890  0.34161149 -0.00011089
   0.32440986  0.65798352 -0.00035462
  -0.00450082  0.67405163 -0.00010930
  -0.00159580 -0.01478943  0.00012439
   0.32844171  0.33758304 -0.00030777
   0.67386789  0.35001992  0.00019455
   0.68068469  0.66891055  0.00012482
   0.10630753  0.22250640  0.94917328
   0.22530037  0.10832169  0.05146258
   0.10622006  0.54983494  0.94797886
   0.21504996  0.43992072  0.05322421
   0.11764419  0.89122708  0.94600928
   0.22444160  0.78305890  0.05195622
   0.44189808  0.21688686  0.95023222
   0.55274427  0.10811448  0.04763982
   0.44706271  0.55637811  0.94793746
   0.55440219  0.44648173  0.05310910
   0.44609790  0.89378107  0.95031405
   0.55860082  0.78156347  0.05068817
   0.78060170  0.22148634  0.95138696
   0.88803401  0.11347336  0.04900111
   0.77913413  0.55761346  0.94494975
   0.89269523  0.44331212  0.05142541
   0.77515748  0.89072101  0.94790392
   0.88868732  0.77730936  0.05537396
unknown system                          
           1
     8.273107    4.768866    0.000000
    -8.276776    4.775207    0.000000
     0.000000    0.000000   30.000000
   V    Mo   W    S 
   3   3   3  18
Direct configuration=    19
   0.66704250 -0.00624184  0.00061502
   0.31836627 -0.01270952  0.00006289
   1.01135618  0.34160256 -0.00011256
   0.32443995  0.65795452 -0.00035131
  -0.00460882  0.67413396 -0.00011173
  -0.00151981 -0.01489184  0.00012343
   0.32845653  0.33749819 -0.00030435
   0.67384024  0.35009051  0.00019949
   0.68079392  0.66885013  0.00013017
   0.10632448  0.22248366  0.94917618
   0.22527340  0.10830380  0.05147055
   0.10624086  0.54986702  0.94800172
   0.21507439  0.43989326  0.05321129
   0.11767070  0.89123623  0.94602023
   0.22445131  0.78307806  0.05191392
   0.44190705  0.21690094  0.95022090
   0.55272101  0.10812123  0.04764153
   0.44705088  0.55630386  0.94795467
   0.55437462  0.44646593  0.05309388
   0.44609047  0.89378329  0.95034352
   0.55860070  0.78156676  0.05067194
   0.78058941  0.22151249  0.95138599
   0.88806038  0.11346987  0.04899934
   0.77910259  0.55757296  0.94495159
   0.89267212  0.44332789  0.05140305
   0.77516672  0.89071924  0.94791533
   0.88867641  0.77732128  0.05537324
unknown system                          
           1
     8.273696    4.769146    0.000000
    -8.277468    4.775665    0.000000
     0.000000    0.000000   30.000000
   V    Mo   W    S 
   3   3   3  18
Direct configuration=    20
   0.66678425 -0.00751103  0.00071503
   0.31728402 -0.01498608  0.00004560
   1.01269845  0.34254365 -0.00015223
   0.32331355  0.65704212 -0.00038568
  -0.00526799  0.67404864 -0.00010369
  -0.00247496 -0.01620840  0.00012053
   0.32838077  0.33929467 -0.00034008
   0.67505039  0.35206338  0.00018766
   0.68209893  0.66902689  0.00015781
   0.10622406  0.22223361  0.94930025
   0.22535332  0.10848437  0.05120057
   0.10602147  0.54994203  0.94791027
   0.21500298  0.44000314  0.05345976
   0.11743682  0.89098751  0.94589037
   0.22407055  0.78264469  0.05202934
   0.44195261  0.21711273  0.95058936
   0.55274336  0.10851110  0.04726746
   0.44757399  0.55701240  0.94798515
   0.55447493  0.44680434  0.05317405
   0.44591838  0.89356512  0.95032356
   0.55847102  0.78104824  0.05058497
   0.78064298  0.22171900  0.95162748
   0.88830450  0.11351074  0.04881142
   0.77939275  0.55796114  0.94464366
   0.89277327  0.44347625  0.05148390
   0.77519934  0.89055407  0.94783433
   0.88879070  0.77733016  0.05563904
unknown system                          
           1
     8.267290    4.763744    0.000000
    -8.270643    4.769535    0.000000
     0.000000    0.000000   30.000000
   V    Mo   W    S 
   3   3   3  18
Direct configuration=    21
   0.66672483 -0.00772162  0.00073281
   0.31705675 -0.01538693  0.00004458
   1.01291795  0.34269693 -0.00015893
   0.32313537  0.65690557 -0.00039101
  -0.00538153  0.67406944 -0.00010208
  -0.00261969 -0.01647020  0.00012025
   0.32839695  0.33960401 -0.00034492
   0.67524926  0.35241994  0.00018743
   0.68233958  0.66905010  0.00016327
   0.10620892  0.22217111  0.94931683
   0.22536652  0.10850671  0.05115710
   0.10598089  0.54996428  0.94789241
   0.21499814  0.44001262  0.05350708
   0.11741838  0.89095757  0.94586324
   0.22400823  0.78257860  0.05204567
   0.44195412  0.21713626  0.95064835
   0.55273581  0.10857668  0.04720363
   0.44766810  0.55712263  0.94798834
   0.55447596  0.44685044  0.05319268
   0.44589491  0.89354536  0.95032396
   0.55845028  0.78096704  0.05057085
   0.78064337  0.22174898  0.95166567
   0.88834730  0.11351593  0.04878070
   0.77943915  0.55801661  0.94457978
   0.89278861  0.44350256  0.05149762
   0.77520342  0.89053808  0.94781833
   0.88881287  0.77733576  0.05569626
unknown system                          
           1
     8.268839    4.764718    0.000000
    -8.271711    4.769674    0.000000
     0.000000    0.000000   30.000000
   V    Mo   W    S 
   3   3   3  18
Direct configuration=    22
   0.66730271 -0.00538156  0.00058149
   0.31838240 -0.01220909  0.00007535
   1.01132418  0.34135196 -0.00010029
   0.32425232  0.65786670 -0.00034261
  -0.00450807  0.67425988 -0.00012084
  -0.00082000 -0.01428513  0.00010264
   0.32779719  0.33664557 -0.00031420
   0.67376133  0.34959806  0.00020515
   0.68075236  0.66873008  0.00012465
   0.10622366  0.22269358  0.94916186
   0.22524979  0.10820072  0.05154683
   0.10620691  0.54968249  0.94804456
   0.21494019  0.43980986  0.05318326
   0.11780805  0.89127138  0.94606935
   0.22459488  0.78331399  0.05185795
   0.44193163  0.21685294  0.95013986
   0.55254314  0.10788107  0.04774511
   0.44696052  0.55607303  0.94797788
   0.55437084  0.44645403  0.05306364
   0.44602913  0.89379370  0.95036308
   0.55859965  0.78162231  0.05066961
   0.78080649  0.22163780  0.95131479
   0.88814586  0.11368739  0.04903608
   0.77901352  0.55744021  0.94497650
   0.89271630  0.44321674  0.05136767
   0.77515103  0.89066506  0.94790965
   0.88867845  0.77734169  0.05536088
unknown system                          
           1
     8.270219    4.765739    0.000000
    -8.272023    4.768841    0.000000
     0.000000    0.000000   30.000000
   V    Mo   W    S 
   3   3   3  18
Direct configuration=    23
   0.66750147 -0.00456978  0.00055091
   0.31867306 -0.01140688  0.00007067
   1.01104144  0.34099253 -0.00006884
   0.32438779  0.65794748 -0.00033674
  -0.00441371  0.67431280 -0.00011897
  -0.00027637 -0.01368501  0.00010034
   0.32738946  0.33577984 -0.00030572
   0.67349389  0.34894033  0.00022025
   0.68058154  0.66867757  0.00011280
   0.10614638  0.22277666  0.94908755
   0.22522616  0.10812010  0.05167589
   0.10620793  0.54960118  0.94807369
   0.21490268  0.43972559  0.05313221
   0.11790713  0.89132843  0.94609053
   0.22470910  0.78347509  0.05181516
   0.44193383  0.21680020  0.95003116
   0.55245195  0.10772170  0.04787484
   0.44681393  0.55580496  0.94801643
   0.55432702  0.44634913  0.05300649
   0.44601323  0.89382235  0.95039520
   0.55865420  0.78175518  0.05064212
   0.78090491  0.22167343  0.95121438
   0.88815400  0.11375001  0.04908859
   0.77892030  0.55729689  0.94505167
   0.89272640  0.44317315  0.05132933
   0.77515906  0.89065812  0.94795714
   0.88867767  0.77739338  0.05529280
unknown system                          
           1
     8.274456    4.769141    0.000000
    -8.276916    4.773382    0.000000
     0.000000    0.000000   30.000000
   V    Mo   W    S 
   3   3   3  18
Direct configuration=    24
   0.66752047 -0.00407288  0.00060400
   0.31806088 -0.01203861  0.00001759
   1.01186682  0.34118485 -0.00005011
   0.32350544  0.65700924 -0.00036764
  -0.00514930  0.67441964 -0.00011933
  -0.00012397 -0.01401273  0.00009165
   0.32646683  0.33586051 -0.00031576
   0.67419814  0.34983341  0.00024095
   0.68198670  0.66881287  0.00011537
   0.10594523  0.22243281  0.94899929
   0.22527631  0.10816938  0.05170298
   0.10597835  0.54967784  0.94803961
   0.21491850  0.43963047  0.05330761
   0.11780797  0.89118946  0.94595476
   0.22444642  0.78318991  0.05183911
   0.44195911  0.21694590  0.95023064
   0.55234808  0.10805166  0.04774042
   0.44708323  0.55592162  0.94820491
   0.55419773  0.44635819  0.05291829
   0.44576898  0.89362764  0.95048438