   27   27  100    1
  0.9710400E+02  0.1002848E-08  0.1002848E-08  0.3000000E-08  0.5000000E-15
  1.000000000000000E-004
  CAR 
 unknown system                          
    159     34    120
 
  0.0000000E+00  0.0000000E+00  0.0000000E+00  0.1562500E-01
    1      -17.822068   1.000000
    2      -16.627688   1.000000
    3      -16.595326   1.000000
    4      -16.471399   1.000000
    5      -16.465792   1.000000
    6      -16.451443   1.000000
    7      -16.399532   1.000000
    8      -16.309940   1.000000
    9      -16.112809   1.000000
   10      -16.067654   1.000000
   11      -16.016633   1.000000
   12      -15.974716   1.000000
   13      -15.936133   1.000000
   14      -15.872997   1.000000
   15      -15.603561   1.000000
   16      -15.528969   1.000000
   17      -15.454416   1.000000
   18      -15.424171   1.000000
   19       -9.306411   1.000000
   20       -8.908865   1.000000
   21       -8.826808   1.000000
   22       -8.769896   1.000000
   23       -8.676726   1.000000
   24       -8.631506   1.000000
   25       -8.612387   1.000000
   26       -8.518763   1.000000
   27       -8.500434   1.000000
   28       -8.412110   1.000000
   29       -8.375011   1.000000
   30       -8.284483   1.000000
   31       -8.262566   1.000000
   32       -8.191838   1.000000
   33       -8.158228   1.000000
   34       -8.041655   1.000000
   35       -7.924391   1.000000
   36       -7.882830   1.000000
   37       -7.728880   1.000000
   38       -7.624009   1.000000
   39       -7.520787   1.000000
   40       -7.393709   1.000000
   41       -7.345966   1.000000
   42       -7.241488   1.000000
   43       -7.204109   1.000000
   44       -6.866925   1.000000
   45       -6.804672   1.000000
   46       -6.736261   1.000000
   47       -6.699701   1.000000
   48       -6.666866   1.000000
   49       -6.566798   1.000000
   50       -6.514041   1.000000
   51       -6.459918   1.000000
   52       -6.395895   1.000000
   53       -6.323626   1.000000
   54       -6.266494   1.000000
   55       -6.238096   1.000000
   56       -6.134835   1.000000
   57       -6.055471   1.000000
   58       -5.848743   1.000000
   59       -5.648998   1.000000
   60       -5.581604   1.000000
   61       -5.453366   1.000000
   62       -5.450655   1.000000
   63       -5.355287   1.000000
   64       -5.241778   1.000000
   65       -4.952711   1.000000
   66       -4.915106   1.000000
   67       -4.779681   1.000000
   68       -4.735408   1.000000
   69       -4.648957   1.000000
   70       -4.569789   1.000000
   71       -4.545023   1.000000
   72       -4.475500   1.000000
   73       -4.458676   1.000000
   74       -4.314258   1.000000
   75       -4.142625   1.000000
   76       -4.073196   1.000000
   77       -3.538071   0.999807
   78       -3.491542   0.999359
   79       -3.427792   0.997192
   80       -3.090732   0.650261
   81       -3.026198   0.471978
   82       -2.678094   0.005675
   83       -2.571584   0.000510
   84       -2.524120   0.000147
   85       -2.512194   0.000106
   86       -2.451165   0.000018
   87       -2.278248   0.000000
   88       -2.227336   0.000000
   89       -2.038820   0.000000
   90       -1.957645   0.000000
   91       -1.888128   0.000000
   92       -1.807181   0.000000
   93       -1.675193   0.000000
   94       -1.599687   0.000000
   95       -1.401205   0.000000
   96       -1.250684   0.000000
   97       -1.121014   0.000000
   98       -1.012438   0.000000
   99       -0.903256   0.000000
  100       -0.441055   0.000000
  101       -0.363327   0.000000
  102       -0.327653   0.000000
  103       -0.307124   0.000000
  104       -0.209550   0.000000
  105       -0.135038   0.000000
  106        0.131200   0.000000
  107        0.273354   0.000000
  108        0.317459   0.000000
  109        0.354072   0.000000
  110        0.378037   0.000000
  111        0.446929   0.000000
  112        0.715787   0.000000
  113        0.832408   0.000000
  114        0.882909   0.000000
  115        0.930343   0.000000
  116        0.987103   0.000000
  117        1.010420   0.000000
  118        1.679969   0.000000
  119        1.835029   0.000000
  120        2.186467   0.000000
 
  0.1250000E+00  0.2775558E-16  0.0000000E+00  0.3125000E-01
    1      -17.796243   1.000000
    2      -16.731756   1.000000
    3      -16.621504   1.000000
    4      -16.563590   1.000000
    5      -16.501551   1.000000
    6      -16.369878   1.000000
    7      -16.320590   1.000000
    8      -16.272644   1.000000
    9      -16.150262   1.000000
   10      -16.054863   1.000000
   11      -16.014583   1.000000
   12      -15.954105   1.000000
   13      -15.907876   1.000000
   14      -15.803075   1.000000
   15      -15.614114   1.000000
   16      -15.557614   1.000000
   17      -15.457985   1.000000
   18      -15.428992   1.000000
   19       -9.298238   1.000000
   20       -9.098106   1.000000
   21       -8.917347   1.000000
   22       -8.854712   1.000000
   23       -8.766283   1.000000
   24       -8.700369   1.000000
   25       -8.612174   1.000000
   26       -8.543161   1.000000
   27       -8.472917   1.000000
   28       -8.405102   1.000000
   29       -8.360249   1.000000
   30       -8.233981   1.000000
   31       -8.199389   1.000000
   32       -8.138671   1.000000
   33       -8.015096   1.000000
   34       -7.912604   1.000000
   35       -7.818198   1.000000
   36       -7.758465   1.000000
   37       -7.686672   1.000000
   38       -7.580698   1.000000
   39       -7.536298   1.000000
   40       -7.459060   1.000000
   41       -7.323833   1.000000
   42       -7.224021   1.000000
   43       -7.156458   1.000000
   44       -6.940965   1.000000
   45       -6.897585   1.000000
   46       -6.735737   1.000000
   47       -6.721129   1.000000
   48       -6.669424   1.000000
   49       -6.590017   1.000000
   50       -6.494749   1.000000
   51       -6.438973   1.000000
   52       -6.382475   1.000000
   53       -6.334353   1.000000
   54       -6.288382   1.000000
   55       -6.237595   1.000000
   56       -6.162360   1.000000
   57       -6.038749   1.000000
   58       -5.790416   1.000000
   59       -5.712770   1.000000
   60       -5.526492   1.000000
   61       -5.482269   1.000000
   62       -5.385399   1.000000
   63       -5.264312   1.000000
   64       -5.133304   1.000000
   65       -5.109985   1.000000
   66       -5.035294   1.000000
   67       -4.985796   1.000000
   68       -4.905001   1.000000
   69       -4.724221   1.000000
   70       -4.661332   1.000000
   71       -4.608118   1.000000
   72       -4.340460   1.000000
   73       -4.211926   1.000000
   74       -4.178785   1.000000
   75       -4.023495   1.000000
   76       -3.908188   1.000000
   77       -3.742106   1.000000
   78       -3.626553   0.999985
   79       -3.464409   0.998770
   80       -2.984758   0.358180
   81       -2.905390   0.177603
   82       -2.725647   0.014063
   83       -2.595889   0.000926
   84       -2.548081   0.000279
   85       -2.501318   0.000078
   86       -2.441836   0.000013
   87       -2.298363   0.000000
   88       -2.265056   0.000000
   89       -2.089630   0.000000
   90       -2.065242   0.000000
   91       -1.815577   0.000000
   92       -1.774989   0.000000
   93       -1.608892   0.000000
   94       -1.543989   0.000000
   95       -1.370864   0.000000
   96       -1.237675   0.000000
   97       -1.123056   0.000000
   98       -0.988245   0.000000
   99       -0.876424   0.000000
  100       -0.492670   0.000000
  101       -0.449673   0.000000
  102       -0.406709   0.000000
  103       -0.385071   0.000000
  104       -0.247400   0.000000
  105       -0.129244   0.000000
  106        0.042176   0.000000
  107        0.096976   0.000000
  108        0.259141   0.000000
  109        0.280614   0.000000
  110        0.393052   0.000000
  111        0.500544   0.000000
  112        0.754781   0.000000
  113        0.787697   0.000000
  114        0.950771   0.000000
  115        1.009403   0.000000
  116        1.061331   0.000000
  117        1.118354   0.000000
  118        1.723195   0.000000
  119        1.874180   0.000000
  120        2.221906   0.000000
 
  0.2500000E+00  0.5551115E-16  0.0000000E+00  0.3125000E-01
    1      -17.720241   1.000000
    2      -16.956003   1.000000
    3      -16.668534   1.000000
    4      -16.606017   1.000000
    5      -16.527420   1.000000
    6      -16.322593   1.000000
    7      -16.261433   1.000000
    8      -16.229651   1.000000
    9      -16.139388   1.000000
   10      -16.046685   1.000000
   11      -16.026251   1.000000
   12      -15.884104   1.000000
   13      -15.829894   1.000000
   14      -15.717829   1.000000
   15      -15.629795   1.000000
   16      -15.592116   1.000000
   17      -15.485835   1.000000
   18      -15.443127   1.000000
   19       -9.469998   1.000000
   20       -9.242613   1.000000
   21       -9.027279   1.000000
   22       -8.969532   1.000000
   23       -8.915796   1.000000
   24       -8.835795   1.000000
   25       -8.566843   1.000000
   26       -8.524689   1.000000
   27       -8.416202   1.000000
   28       -8.352799   1.000000
   29       -8.298935   1.000000
   30       -8.236725   1.000000
   31       -8.170155   1.000000
   32       -8.090924   1.000000
   33       -7.870400   1.000000
   34       -7.767379   1.000000
   35       -7.715121   1.000000
   36       -7.636437   1.000000
   37       -7.594571   1.000000
   38       -7.525792   1.000000
   39       -7.439959   1.000000
   40       -7.324648   1.000000
   41       -7.231055   1.000000
   42       -7.144450   1.000000
   43       -7.073059   1.000000
   44       -7.016648   1.000000
   45       -6.970518   1.000000
   46       -6.821369   1.000000
   47       -6.744344   1.000000
   48       -6.666530   1.000000
   49       -6.638994   1.000000
   50       -6.547060   1.000000
   51       -6.477694   1.000000
   52       -6.380631   1.000000
   53       -6.314043   1.000000
   54       -6.259515   1.000000
   55       -6.142186   1.000000
   56       -6.131139   1.000000
   57       -5.997567   1.000000
   58       -5.802181   1.000000
   59       -5.675093   1.000000
   60       -5.579539   1.000000
   61       -5.512243   1.000000
   62       -5.457735   1.000000
   63       -5.407760   1.000000
   64       -5.307792   1.000000
   65       -5.237884   1.000000
   66       -5.157702   1.000000
   67       -5.056764   1.000000
   68       -4.934191   1.000000
   69       -4.705359   1.000000
   70       -4.662518   1.000000
   71       -4.643420   1.000000
   72       -4.274499   1.000000
   73       -4.094861   1.000000
   74       -4.046321   1.000000
   75       -3.934244   1.000000
   76       -3.896806   1.000000
   77       -3.773363   1.000000
   78       -3.626630   0.999985
   79       -3.432011   0.997439
   80       -2.938749   0.245519
   81       -2.843927   0.087049
   82       -2.752993   0.022634
   83       -2.608641   0.001252
   84       -2.567763   0.000463
   85       -2.489689   0.000056
   86       -2.424010   0.000008
   87       -2.379510   0.000002
   88       -2.306885   0.000000
   89       -2.173909   0.000000
   90       -2.145035   0.000000
   91       -1.794063   0.000000
   92       -1.720890   0.000000
   93       -1.512000   0.000000
   94       -1.431135   0.000000
   95       -1.294228   0.000000
   96       -1.192258   0.000000
   97       -1.110181   0.000000
   98       -0.942712   0.000000
   99       -0.835887   0.000000
  100       -0.646111   0.000000
  101       -0.591181   0.000000
  102       -0.554735   0.000000
  103       -0.491453   0.000000
  104       -0.347218   0.000000
  105       -0.254688   0.000000
  106       -0.133368   0.000000
  107       -0.080372   0.000000
  108        0.079941   0.000000
  109        0.160955   0.000000
  110        0.362949   0.000000
  111        0.556039   0.000000
  112        0.700059   0.000000
  113        0.883918   0.000000
  114        1.028545   0.000000
  115        1.139182   0.000000
  116        1.259240   0.000000
  117        1.315223   0.000000
  118        1.844868   0.000000
  119        1.987927   0.000000
  120        2.327194   0.000000
 
  0.3750000E+00  0.0000000E+00  0.0000000E+00  0.3125000E-01
    1      -17.600954   1.000000
    2      -17.179864   1.000000
    3      -16.714372   1.000000
    4      -16.634944   1.000000
    5      -16.501158   1.000000
    6      -16.380479   1.000000
    7      -16.229803   1.000000
    8      -16.174321   1.000000
    9      -16.105921   1.000000
   10      -16.035702   1.000000
   11      -15.967169   1.000000
   12      -15.833324   1.000000
   13      -15.785010   1.000000
   14      -15.730948   1.000000
   15      -15.667988   1.000000
   16      -15.533463   1.000000
   17      -15.507567   1.000000
   18      -15.468617   1.000000
   19       -9.705851   1.000000
   20       -9.281825   1.000000
   21       -9.121887   1.000000
   22       -9.023136   1.000000
   23       -8.943389   1.000000
   24       -8.925619   1.000000
   25       -8.513831   1.000000
   26       -8.488593   1.000000
   27       -8.399618   1.000000
   28       -8.310290   1.000000
   29       -8.270585   1.000000
   30       -8.250654   1.000000
   31       -8.160991   1.000000
   32       -8.022899   1.000000
   33       -7.875743   1.000000
   34       -7.817468   1.000000
   35       -7.693088   1.000000
   36       -7.587567   1.000000
   37       -7.553303   1.000000
   38       -7.431797   1.000000
   39       -7.323220   1.000000
   40       -7.244550   1.000000
   41       -7.170086   1.000000
   42       -7.096744   1.000000
   43       -7.031552   1.000000
   44       -6.922961   1.000000
   45       -6.878538   1.000000
   46       -6.775447   1.000000
   47       -6.698318   1.000000
   48       -6.648216   1.000000
   49       -6.600823   1.000000
   50       -6.575371   1.000000
   51       -6.399218   1.000000
   52       -6.327213   1.000000
   53       -6.244556   1.000000
   54       -6.224831   1.000000
   55       -6.107544   1.000000
   56       -5.973611   1.000000
   57       -5.929465   1.000000
   58       -5.897845   1.000000
   59       -5.856629   1.000000
   60       -5.778255   1.000000
   61       -5.704395   1.000000
   62       -5.661869   1.000000
   63       -5.658554   1.000000
   64       -5.564520   1.000000
   65       -5.195036   1.000000
   66       -5.036992   1.000000
   67       -4.926115   1.000000
   68       -4.880881   1.000000
   69       -4.764266   1.000000
   70       -4.676367   1.000000
   71       -4.618955   1.000000
   72       -4.586963   1.000000
   73       -4.189451   1.000000
   74       -3.982423   1.000000
   75       -3.871480   1.000000
   76       -3.716015   0.999999
   77       -3.593858   0.999960
   78       -3.495061   0.999413
   79       -3.315780   0.975999
   80       -3.014575   0.439401
   81       -2.941488   0.251655
   82       -2.762718   0.026594
   83       -2.610265   0.001300
   84       -2.567789   0.000464
   85       -2.466721   0.000028
   86       -2.427207   0.000008
   87       -2.388326   0.000002
   88       -2.311295   0.000000
   89       -2.239820   0.000000
   90       -2.168877   0.000000
   91       -1.770073   0.000000
   92       -1.705236   0.000000
   93       -1.453077   0.000000
   94       -1.385564   0.000000
   95       -1.233848   0.000000
   96       -1.138574   0.000000
   97       -1.061676   0.000000
   98       -0.927292   0.000000
   99       -0.860131   0.000000
  100       -0.728933   0.000000
  101       -0.680022   0.000000
  102       -0.634304   0.000000
  103       -0.579966   0.000000
  104       -0.476560   0.000000
  105       -0.426385   0.000000
  106       -0.312464   0.000000
  107       -0.201735   0.000000
  108       -0.038281   0.000000
  109        0.062999   0.000000
  110        0.313154   0.000000
  111        0.596618   0.000000
  112        0.661686   0.000000
  113        0.978322   0.000000
  114        1.073544   0.000000
  115        1.257463   0.000000
  116        1.420404   0.000000
  117        1.461482   0.000000
  118        2.029973   0.000000
  119        2.167458   0.000000
  120        2.499532   0.000000
 
  0.5000000E+00  0.1110223E-15  0.0000000E+00  0.1562500E-01
    1      -17.496895   1.000000
    2      -17.320616   1.000000
    3      -16.730575   1.000000
    4      -16.646838   1.000000
    5      -16.464321   1.000000
    6      -16.427910   1.000000
    7      -16.228864   1.000000
    8      -16.163619   1.000000
    9      -16.071538   1.000000
   10      -16.028968   1.000000
   11      -15.905686   1.000000
   12      -15.859249   1.000000
   13      -15.783525   1.000000
   14      -15.724160   1.000000
   15      -15.675304   1.000000
   16      -15.548952   1.000000
   17      -15.502273   1.000000
   18      -15.457400   1.000000
   19       -9.791883   1.000000
   20       -9.306364   1.000000
   21       -9.161095   1.000000
   22       -9.054977   1.000000
   23       -8.980274   1.000000
   24       -8.854435   1.000000
   25       -8.563714   1.000000
   26       -8.470090   1.000000
   27       -8.404117   1.000000
   28       -8.307505   1.000000
   29       -8.258414   1.000000
   30       -8.190859   1.000000
   31       -8.146294   1.000000
   32       -7.983000   1.000000
   33       -7.907824   1.000000
   34       -7.809682   1.000000
   35       -7.737794   1.000000
   36       -7.637374   1.000000
   37       -7.541662   1.000000
   38       -7.374042   1.000000
   39       -7.357572   1.000000
   40       -7.296426   1.000000
   41       -7.104237   1.000000
   42       -7.015699   1.000000
   43       -6.956080   1.000000
   44       -6.859805   1.000000
   45       -6.840940   1.000000
   46       -6.717585   1.000000
   47       -6.681500   1.000000
   48       -6.633611   1.000000
   49       -6.509223   1.000000
   50       -6.428688   1.000000
   51       -6.422606   1.000000
   52       -6.372917   1.000000
   53       -6.298813   1.000000
   54       -6.162749   1.000000
   55       -6.087458   1.000000
   56       -6.054295   1.000000
   57       -6.025804   1.000000
   58       -5.854266   1.000000
   59       -5.824911   1.000000
   60       -5.761920   1.000000
   61       -5.751829   1.000000
   62       -5.714114   1.000000
   63       -5.669548   1.000000
   64       -5.596347   1.000000
   65       -5.521702   1.000000
   66       -4.993126   1.000000
   67       -4.981544   1.000000
   68       -4.862687   1.000000
   69       -4.802507   1.000000
   70       -4.681738   1.000000
   71       -4.606025   1.000000
   72       -4.493585   1.000000
   73       -4.342980   1.000000
   74       -3.950210   1.000000
   75       -3.791036   1.000000
   76       -3.642452   0.999991
   77       -3.535008   0.999790
   78       -3.435976   0.997653
   79       -3.248768   0.933646
   80       -3.079075   0.619282
   81       -2.974475   0.331406
   82       -2.739464   0.017961
   83       -2.707926   0.010148
   84       -2.572226   0.000518
   85       -2.449142   0.000017
   86       -2.412435   0.000005
   87       -2.345142   0.000001
   88       -2.310034   0.000000
   89       -2.269443   0.000000
   90       -2.174793   0.000000
   91       -1.757911   0.000000
   92       -1.704168   0.000000
   93       -1.421778   0.000000
   94       -1.394314   0.000000
   95       -1.218636   0.000000
   96       -1.140100   0.000000
   97       -1.022409   0.000000
   98       -0.929706   0.000000
   99       -0.896222   0.000000
  100       -0.723042   0.000000
  101       -0.682613   0.000000
  102       -0.646582   0.000000
  103       -0.603630   0.000000
  104       -0.564891   0.000000
  105       -0.493783   0.000000
  106       -0.410920   0.000000
  107       -0.241305   0.000000
  108       -0.081675   0.000000
  109        0.034936   0.000000
  110        0.292977   0.000000
  111        0.610726   0.000000
  112        0.648844   0.000000
  113        1.012664   0.000000
  114        1.090969   0.000000
  115        1.303311   0.000000
  116        1.479576   0.000000
  117        1.509076   0.000000
  118        2.260776   0.000000
  119        2.274735   0.000000
  120        2.390361   0.000000
 
  0.0000000E+00  0.1250000E+00  0.0000000E+00  0.3125000E-01
    1      -17.795846   1.000000
    2      -16.751530   1.000000
    3      -16.611615   1.000000
    4      -16.556961   1.000000
    5      -16.500540   1.000000
    6      -16.342511   1.000000
    7      -16.312149   1.000000
    8      -16.279248   1.000000
    9      -16.156922   1.000000
   10      -16.114485   1.000000
   11      -16.011465   1.000000
   12      -15.920838   1.000000
   13      -15.865657   1.000000
   14      -15.843652   1.000000
   15      -15.625408   1.000000
   16      -15.537039   1.000000
   17      -15.466311   1.000000
   18      -15.429370   1.000000
   19       -9.297516   1.000000
   20       -9.124772   1.000000
   21       -8.917716   1.000000
   22       -8.860950   1.000000
   23       -8.769589   1.000000
   24       -8.648619   1.000000
   25       -8.618641   1.000000
   26       -8.544986   1.000000
   27       -8.486868   1.000000
   28       -8.387285   1.000000
   29       -8.314213   1.000000
   30       -8.245164   1.000000
   31       -8.173984   1.000000
   32       -8.128079   1.000000
   33       -8.020871   1.000000
   34       -7.977363   1.000000
   35       -7.841518   1.000000
   36       -7.756748   1.000000
   37       -7.719201   1.000000
   38       -7.582307   1.000000
   39       -7.491661   1.000000
   40       -7.468383   1.000000
   41       -7.322197   1.000000
   42       -7.215722   1.000000
   43       -7.151458   1.000000
   44       -6.969130   1.000000
   45       -6.856684   1.000000
   46       -6.802116   1.000000
   47       -6.709520   1.000000
   48       -6.626540   1.000000
   49       -6.561367   1.000000
   50       -6.495002   1.000000
   51       -6.439120   1.000000
   52       -6.374492   1.000000
   53       -6.344049   1.000000
   54       -6.308785   1.000000
   55       -6.228379   1.000000
   56       -6.150878   1.000000
   57       -6.091542   1.000000
   58       -5.820479   1.000000
   59       -5.651107   1.000000
   60       -5.579073   1.000000
   61       -5.474679   1.000000
   62       -5.334796   1.000000
   63       -5.281029   1.000000
   64       -5.168633   1.000000
   65       -5.111853   1.000000
   66       -5.073650   1.000000
   67       -4.984571   1.000000
   68       -4.871597   1.000000
   69       -4.672045   1.000000
   70       -4.647296   1.000000
   71       -4.560765   1.000000
   72       -4.396378   1.000000
   73       -4.279344   1.000000
   74       -4.121683   1.000000
   75       -4.030081   1.000000
   76       -3.928293   1.000000
   77       -3.684801   0.999998
   78       -3.638046   0.999990
   79       -3.522116   0.999705
   80       -2.967043   0.312565
   81       -2.910794   0.187720
   82       -2.711485   0.010848
   83       -2.638821   0.002481
   84       -2.524286   0.000148
   85       -2.519473   0.000129
   86       -2.428462   0.000009
   87       -2.273602   0.000000
   88       -2.239930   0.000000
   89       -2.081368   0.000000
   90       -1.960086   0.000000
   91       -1.881238   0.000000
   92       -1.791109   0.000000
   93       -1.672041   0.000000
   94       -1.546635   0.000000
   95       -1.374192   0.000000
   96       -1.237932   0.000000
   97       -1.113031   0.000000
   98       -0.990998   0.000000
   99       -0.864130   0.000000
  100       -0.513000   0.000000
  101       -0.473681   0.000000
  102       -0.410731   0.000000
  103       -0.347186   0.000000
  104       -0.252309   0.000000
  105       -0.123600   0.000000
  106       -0.005957   0.000000
  107        0.154248   0.000000
  108        0.269467   0.000000
  109        0.319241   0.000000
  110        0.456885   0.000000
  111        0.476242   0.000000
  112        0.697154   0.000000
  113        0.826207   0.000000
  114        0.924463   0.000000
  115        0.981772   0.000000
  116        1.060515   0.000000
  117        1.094958   0.000000
  118        1.723059   0.000000
  119        1.874688   0.000000
  120        2.221740   0.000000
 
  0.1250000E+00  0.1250000E+00  0.0000000E+00  0.3125000E-01
    1      -17.744314   1.000000
    2      -16.886814   1.000000
    3      -16.738807   1.000000
    4      -16.562545   1.000000
    5      -16.424821   1.000000
    6      -16.343291   1.000000
    7      -16.282760   1.000000
    8      -16.244303   1.000000
    9      -16.145402   1.000000
   10      -16.111926   1.000000
   11      -15.998062   1.000000
   12      -15.934154   1.000000
   13      -15.796140   1.000000
   14      -15.748221   1.000000
   15      -15.642618   1.000000
   16      -15.574797   1.000000
   17      -15.489435   1.000000
   18      -15.429371   1.000000
   19       -9.331361   1.000000
   20       -9.312776   1.000000
   21       -9.114830   1.000000
   22       -8.955138   1.000000
   23       -8.774955   1.000000
   24       -8.688598   1.000000
   25       -8.562288   1.000000
   26       -8.541481   1.000000
   27       -8.487704   1.000000
   28       -8.361323   1.000000
   29       -8.269971   1.000000
   30       -8.241507   1.000000
   31       -8.168129   1.000000
   32       -8.113573   1.000000
   33       -7.994022   1.000000
   34       -7.804897   1.000000
   35       -7.754036   1.000000
   36       -7.683360   1.000000
   37       -7.594562   1.000000
   38       -7.468275   1.000000
   39       -7.409802   1.000000
   40       -7.316367   1.000000
   41       -7.307078   1.000000
   42       -7.233139   1.000000
   43       -7.111636   1.000000
   44       -7.030772   1.000000
   45       -6.945072   1.000000
   46       -6.805174   1.000000
   47       -6.759372   1.000000
   48       -6.660690   1.000000
   49       -6.579163   1.000000
   50       -6.561464   1.000000
   51       -6.436353   1.000000
   52       -6.388033   1.000000
   53       -6.339596   1.000000
   54       -6.269314   1.000000
   55       -6.188688   1.000000
   56       -6.136601   1.000000
   57       -6.056170   1.000000
   58       -5.796091   1.000000
   59       -5.729706   1.000000
   60       -5.467592   1.000000
   61       -5.428776   1.000000
   62       -5.409001   1.000000
   63       -5.391582   1.000000
   64       -5.340318   1.000000
   65       -5.138626   1.000000
   66       -5.089862   1.000000
   67       -5.012977   1.000000
   68       -4.943095   1.000000
   69       -4.888936   1.000000
   70       -4.767963   1.000000
   71       -4.414868   1.000000
   72       -4.280002   1.000000
   73       -4.135371   1.000000
   74       -4.042015   1.000000
   75       -3.939606   1.000000
   76       -3.890871   1.000000
   77       -3.792167   1.000000
   78       -3.707290   0.999999
   79       -3.488099   0.999303
   80       -2.920028   0.205813
   81       -2.803413   0.049920
   82       -2.759395   0.025181
   83       -2.602028   0.001072
   84       -2.568061   0.000467
   85       -2.526285   0.000156
   86       -2.444296   0.000014
   87       -2.328102   0.000000
   88       -2.264033   0.000000
   89       -2.157803   0.000000
   90       -2.038055   0.000000
   91       -1.804123   0.000000
   92       -1.760975   0.000000
   93       -1.601681   0.000000
   94       -1.466195   0.000000
   95       -1.323029   0.000000
   96       -1.217491   0.000000
   97       -1.106784   0.000000
   98       -0.966674   0.000000
   99       -0.827719   0.000000
  100       -0.600641   0.000000
  101       -0.559641   0.000000
  102       -0.528291   0.000000
  103       -0.496319   0.000000
  104       -0.329674   0.000000
  105       -0.145848   0.000000
  106       -0.124998   0.000000
  107       -0.034916   0.000000
  108        0.170425   0.000000
  109        0.281844   0.000000
  110        0.366247   0.000000
  111        0.592292   0.000000
  112        0.661441   0.000000
  113        0.849984   0.000000
  114        0.947508   0.000000
  115        1.073844   0.000000
  116        1.207834   0.000000
  117        1.256336   0.000000
  118        1.805294   0.000000
  119        1.951089   0.000000
  120        2.291861   0.000000
 
  0.2500000E+00  0.1250000E+00  0.0000000E+00  0.3125000E-01
    1      -17.645026   1.000000
    2      -17.075214   1.000000
    3      -16.853077   1.000000
    4      -16.531823   1.000000
    5      -16.434214   1.000000
    6      -16.335217   1.000000
    7      -16.271690   1.000000
    8      -16.199113   1.000000
    9      -16.123169   1.000000
   10      -16.052042   1.000000
   11      -15.992505   1.000000
   12      -15.903644   1.000000
   13      -15.761531   1.000000
   14      -15.720322   1.000000
   15      -15.639467   1.000000
   16      -15.560067   1.000000
   17      -15.531704   1.000000
   18      -15.432749   1.000000
   19       -9.587426   1.000000
   20       -9.395440   1.000000
   21       -9.226528   1.000000
   22       -8.990166   1.000000
   23       -8.816080   1.000000
   24       -8.731473   1.000000
   25       -8.513466   1.000000
   26       -8.470059   1.000000
   27       -8.398732   1.000000
   28       -8.340774   1.000000
   29       -8.283159   1.000000
   30       -8.256600   1.000000
   31       -8.195006   1.000000
   32       -8.087812   1.000000
   33       -7.971499   1.000000
   34       -7.837694   1.000000
   35       -7.779138   1.000000
   36       -7.538499   1.000000
   37       -7.451627   1.000000
   38       -7.366095   1.000000
   39       -7.331759   1.000000
   40       -7.275710   1.000000
   41       -7.202998   1.000000
   42       -7.123921   1.000000
   43       -7.039140   1.000000
   44       -6.975888   1.000000
   45       -6.921714   1.000000
   46       -6.789092   1.000000
   47       -6.740145   1.000000