       N       E                     dE             d eps       ncg     rms          rms(c)
DAV:   1     0.112347252479E+04    0.11235E+04   -0.35865E+04  8160   0.577E+02
DAV:   2    -0.480067490957E+01   -0.11283E+04   -0.10873E+04 11320   0.173E+02
DAV:   3    -0.199902703531E+03   -0.19510E+03   -0.18752E+03 10880   0.818E+01
DAV:   4    -0.208994332117E+03   -0.90916E+01   -0.88157E+01 12360   0.260E+01
DAV:   5    -0.209288221444E+03   -0.29389E+00   -0.29298E+00 11280   0.336E+00    0.275E+01
DAV:   6    -0.236748375200E+03   -0.27460E+02   -0.11033E+02 12680   0.603E+01    0.594E+01
DAV:   7    -0.196695322986E+03    0.40053E+02   -0.17915E+02 13400   0.152E+02    0.203E+01
DAV:   8    -0.190044759798E+03    0.66506E+01   -0.20764E+01 11680   0.134E+01    0.136E+01
DAV:   9    -0.188248756049E+03    0.17960E+01   -0.31264E+00 12040   0.628E+00    0.921E+00
DAV:  10    -0.187060148304E+03    0.11886E+01   -0.18284E+00 13360   0.774E+00    0.301E+00
DAV:  11    -0.187001253017E+03    0.58895E-01   -0.63153E-01 12840   0.249E+00    0.256E+00
DAV:  12    -0.187127546977E+03   -0.12629E+00   -0.69470E-01 12680   0.464E+00    0.513E+00
DAV:  13    -0.186914399691E+03    0.21315E+00   -0.56039E-01 13000   0.399E+00    0.199E+00
DAV:  14    -0.186901780930E+03    0.12619E-01   -0.13007E-01 13000   0.220E+00    0.190E+00
DAV:  15    -0.186872948377E+03    0.28833E-01   -0.68677E-02 12600   0.163E+00    0.731E-01
DAV:  16    -0.186868359358E+03    0.45890E-02   -0.97045E-03 12240   0.369E-01    0.451E-01
DAV:  17    -0.186866026502E+03    0.23329E-02   -0.75055E-03 12800   0.366E-01    0.197E-01
DAV:  18    -0.186865474148E+03    0.55235E-03   -0.18083E-03 11600   0.126E-01    0.141E-01
DAV:  19    -0.186865299159E+03    0.17499E-03   -0.63977E-04 10120   0.107E-01    0.446E-02
DAV:  20    -0.186866131243E+03   -0.83208E-03   -0.75909E-04  9160   0.506E-02    0.378E-02
DAV:  21    -0.186866766301E+03   -0.63506E-03   -0.19481E-04  8280   0.392E-02    0.357E-02
DAV:  22    -0.186867846217E+03   -0.10799E-02   -0.17055E-04  7520   0.473E-02    0.383E-02
DAV:  23    -0.186869005420E+03   -0.11592E-02   -0.13395E-04  7600   0.456E-02    0.145E-02
DAV:  24    -0.186869600072E+03   -0.59465E-03   -0.29548E-05  6640   0.162E-02    0.454E-03
DAV:  25    -0.186869952936E+03   -0.35286E-03   -0.15864E-05  5600   0.937E-03    0.409E-03
DAV:  26    -0.186870199142E+03   -0.24621E-03   -0.94246E-06  6720   0.702E-03    0.156E-03
DAV:  27    -0.186870288021E+03   -0.88879E-04   -0.32822E-06  7200   0.417E-03
   1 F= -.18687029E+03 E0= -.18669830E+03  d E =-.186870E+03
       N       E                     dE             d eps       ncg     rms          rms(c)
DAV:   1    -0.187506906386E+03   -0.63671E+00   -0.27169E+02  8160   0.350E+01    0.462E+00
DAV:   2    -0.189392898610E+03   -0.18860E+01   -0.20194E+01 12240   0.152E+01    0.890E+00
DAV:   3    -0.189401671026E+03   -0.87724E-02   -0.45541E+00 12280   0.122E+01    0.675E+00
DAV:   4    -0.188784932498E+03    0.61674E+00   -0.62346E-01 12400   0.477E+00    0.217E+00
DAV:   5    -0.188893587944E+03   -0.10866E+00   -0.45428E-01 11280   0.376E+00    0.532E+00
DAV:   6    -0.188758793776E+03    0.13479E+00   -0.75405E-01 12680   0.420E+00    0.227E+00
DAV:   7    -0.188711863372E+03    0.46930E-01   -0.21009E-01 11720   0.172E+00    0.175E+00
DAV:   8    -0.188711121390E+03    0.74198E-03   -0.14220E-01 12920   0.216E+00    0.203E+00
DAV:   9    -0.188680452349E+03    0.30669E-01   -0.49810E-02 12120   0.125E+00    0.499E-01
DAV:  10    -0.188677593979E+03    0.28584E-02   -0.62898E-03 11240   0.284E-01    0.296E-01
DAV:  11    -0.188677153242E+03    0.44074E-03   -0.32796E-03 12960   0.240E-01    0.135E-01
DAV:  12    -0.188677036292E+03    0.11695E-03   -0.11529E-03 11800   0.108E-01    0.968E-02
DAV:  13    -0.188677051265E+03   -0.14973E-04   -0.25434E-04  7480   0.648E-02
   2 F= -.18867705E+03 E0= -.18853554E+03  d E =-.180676E+01
       N       E                     dE             d eps       ncg     rms          rms(c)
DAV:   1    -0.190595061661E+03   -0.19180E+01   -0.31142E+01  9120   0.142E+01    0.444E+00
DAV:   2    -0.190557993184E+03    0.37068E-01   -0.27963E+00 11200   0.950E+00    0.732E+00
DAV:   3    -0.190080849830E+03    0.47714E+00   -0.13977E+00 12320   0.858E+00    0.423E+00
DAV:   4    -0.189876639750E+03    0.20421E+00   -0.76212E-01 12720   0.420E+00    0.265E+00
DAV:   5    -0.189916032508E+03   -0.39393E-01   -0.47390E-01 12240   0.403E+00    0.373E+00
DAV:   6    -0.189772497239E+03    0.14354E+00   -0.21448E-01 12280   0.315E+00    0.678E-01
DAV:   7    -0.189765818255E+03    0.66790E-02   -0.16719E-02 12080   0.511E-01    0.243E-01
DAV:   8    -0.189766769740E+03   -0.95148E-03   -0.46432E-03 11720   0.370E-01    0.380E-01
DAV:   9    -0.189765797326E+03    0.97241E-03   -0.25506E-03 10400   0.329E-01    0.151E-01
DAV:  10    -0.189765986804E+03   -0.18948E-03   -0.92535E-04 10120   0.131E-01    0.125E-01
DAV:  11    -0.189765809283E+03    0.17752E-03   -0.43985E-04  8800   0.755E-02    0.170E-02
DAV:  12    -0.189765829564E+03   -0.20281E-04   -0.63110E-05  7360   0.246E-02
   3 F= -.18976583E+03 E0= -.18964557E+03  d E =-.108878E+01
       N       E                     dE             d eps       ncg     rms          rms(c)
DAV:   1    -0.191335667632E+03   -0.15699E+01   -0.76304E+01  8160   0.199E+01    0.461E+00
DAV:   2    -0.191178769367E+03    0.15690E+00   -0.54250E+00 13200   0.789E+00    0.483E+00
DAV:   3    -0.191283801680E+03   -0.10503E+00   -0.16092E+00 12240   0.913E+00    0.650E+00
DAV:   4    -0.190883065630E+03    0.40074E+00   -0.12620E+00 12840   0.734E+00    0.269E+00
DAV:   5    -0.190804186334E+03    0.78879E-01   -0.33502E-01 12280   0.294E+00    0.206E+00
DAV:   6    -0.190775474879E+03    0.28711E-01   -0.17333E-01 12560   0.274E+00    0.159E+00
DAV:   7    -0.190755351811E+03    0.20123E-01   -0.61084E-02 11840   0.147E+00    0.478E-01
DAV:   8    -0.190752480287E+03    0.28715E-02   -0.89267E-03 11720   0.468E-01    0.326E-01
DAV:   9    -0.190751862335E+03    0.61795E-03   -0.28943E-03 11280   0.370E-01    0.213E-01
DAV:  10    -0.190751982914E+03   -0.12058E-03   -0.15255E-03 11400   0.207E-01    0.138E-01
DAV:  11    -0.190751759168E+03    0.22375E-03   -0.92013E-04 10000   0.111E-01    0.470E-02
DAV:  12    -0.190751754888E+03    0.42797E-05   -0.14187E-04  7440   0.442E-02
   4 F= -.19075175E+03 E0= -.19064671E+03  d E =-.985925E+00
       N       E                     dE             d eps       ncg     rms          rms(c)
DAV:   1    -0.192124478701E+03   -0.13727E+01   -0.16509E+02  8160   0.287E+01    0.571E+00
DAV:   2    -0.191856911694E+03    0.26757E+00   -0.95776E+00 11280   0.814E+00    0.381E+00
DAV:   3    -0.191992937083E+03   -0.13603E+00   -0.20042E+00 11880   0.847E+00    0.730E+00
DAV:   4    -0.191750051228E+03    0.24289E+00   -0.24436E+00 11440   0.106E+01    0.452E+00
DAV:   5    -0.191582226445E+03    0.16782E+00   -0.75991E-01 12280   0.572E+00    0.340E+00
DAV:   6    -0.191438556519E+03    0.14367E+00   -0.27097E-01 12320   0.376E+00    0.121E+00
DAV:   7    -0.191431105152E+03    0.74514E-02   -0.73911E-02 12320   0.146E+00    0.862E-01
DAV:   8    -0.191428887436E+03    0.22177E-02   -0.35460E-02 12080   0.125E+00    0.776E-01
DAV:   9    -0.191422228818E+03    0.66586E-02   -0.10657E-02 12440   0.698E-01    0.183E-01
DAV:  10    -0.191422531890E+03   -0.30307E-03   -0.23513E-03 11000   0.179E-01    0.110E-01
DAV:  11    -0.191422378467E+03    0.15342E-03   -0.65632E-04 11120   0.978E-02    0.544E-02
DAV:  12    -0.191422362528E+03    0.15939E-04   -0.10741E-04  7040   0.455E-02
   5 F= -.19142236E+03 E0= -.19131972E+03  d E =-.670608E+00
       N       E                     dE             d eps       ncg     rms          rms(c)
DAV:   1    -0.191493588667E+03   -0.71210E-01   -0.59788E+00  8160   0.515E+00    0.682E-01
DAV:   2    -0.191564741024E+03   -0.71152E-01   -0.31959E-01 13520   0.317E+00    0.239E+00
DAV:   3    -0.191507531895E+03    0.57209E-01   -0.12100E-01 12360   0.243E+00    0.498E-01
DAV:   4    -0.191509318154E+03   -0.17863E-02   -0.18501E-02 11440   0.872E-01    0.691E-01
DAV:   5    -0.191504638303E+03    0.46799E-02   -0.10513E-02 11480   0.680E-01    0.224E-01
DAV:   6    -0.191504512510E+03    0.12579E-03   -0.27489E-03 10520   0.244E-01    0.192E-01
DAV:   7    -0.191505097510E+03   -0.58500E-03   -0.36424E-03 11520   0.398E-01    0.336E-01
DAV:   8    -0.191503987975E+03    0.11095E-02   -0.19976E-03  9520   0.294E-01    0.413E-02
DAV:   9    -0.191503999826E+03   -0.11850E-04   -0.10339E-04  5800   0.419E-02
   6 F= -.19150400E+03 E0= -.19139900E+03  d E =-.816373E-01
       N       E                     dE             d eps       ncg     rms          rms(c)
DAV:   1    -0.191550429878E+03   -0.46442E-01   -0.22798E+00  8160   0.317E+00    0.363E-01
DAV:   2    -0.191566106374E+03   -0.15676E-01   -0.75441E-02 13600   0.129E+00    0.111E+00
DAV:   3    -0.191553590021E+03    0.12516E-01   -0.31102E-02 12240   0.120E+00    0.325E-01
DAV:   4    -0.191554065759E+03   -0.47574E-03   -0.62972E-03 11080   0.494E-01    0.397E-01
DAV:   5    -0.191552532451E+03    0.15333E-02   -0.35746E-03 11040   0.399E-01    0.124E-01
DAV:   6    -0.191552483781E+03    0.48670E-04   -0.78980E-04 10080   0.121E-01
   7 F= -.19155248E+03 E0= -.19144670E+03  d E =-.484840E-01
       N       E                     dE             d eps       ncg     rms          rms(c)
DAV:   1    -0.191521970042E+03    0.30562E-01   -0.82507E-01  8160   0.192E+00    0.243E-01
DAV:   2    -0.191531209860E+03   -0.92398E-02   -0.35282E-02 13520   0.106E+00    0.870E-01
DAV:   3    -0.191523017872E+03    0.81920E-02   -0.13694E-02 11360   0.857E-01    0.175E-01
DAV:   4    -0.191523268937E+03   -0.25107E-03   -0.19672E-03  9920   0.292E-01    0.226E-01
DAV:   5    -0.191522743332E+03    0.52561E-03   -0.10973E-03 10160   0.224E-01    0.689E-02
DAV:   6    -0.191522741065E+03    0.22666E-05   -0.22902E-04  6560   0.786E-02
   8 F= -.19152274E+03 E0= -.19141742E+03  d E =0.297427E-01
       N       E                     dE             d eps       ncg     rms          rms(c)
DAV:   1    -0.191380795586E+03    0.14195E+00   -0.19034E+01  8160   0.925E+00    0.998E-01
DAV:   2    -0.191476085099E+03   -0.95290E-01   -0.57808E-01 12880   0.319E+00    0.244E+00
DAV:   3    -0.191409402140E+03    0.66683E-01   -0.13903E-01 11920   0.276E+00    0.851E-01
DAV:   4    -0.191411846936E+03   -0.24448E-02   -0.36391E-02 12240   0.122E+00    0.105E+00
DAV:   5    -0.191401523950E+03    0.10323E-01   -0.25597E-02 11400   0.111E+00    0.354E-01
DAV:   6    -0.191401503096E+03    0.20855E-04   -0.64674E-03 10920   0.400E-01    0.273E-01
DAV:   7    -0.191401002726E+03    0.50037E-03   -0.49314E-03 12880   0.436E-01    0.324E-01
DAV:   8    -0.191400027656E+03    0.97507E-03   -0.21380E-03  9960   0.309E-01    0.695E-02
DAV:   9    -0.191400002958E+03    0.24698E-04   -0.19097E-04  6360   0.658E-02
   9 F= -.19140000E+03 E0= -.19129812E+03  d E =0.122738E+00
       N       E                     dE             d eps       ncg     rms          rms(c)
DAV:   1    -0.191340664421E+03    0.59363E-01   -0.11117E+01  8160   0.706E+00    0.748E-01
DAV:   2    -0.191386879892E+03   -0.46215E-01   -0.27439E-01 13480   0.239E+00    0.183E+00
DAV:   3    -0.191352136288E+03    0.34744E-01   -0.77747E-02 12120   0.209E+00    0.667E-01
DAV:   4    -0.191353445760E+03   -0.13095E-02   -0.20755E-02 11280   0.969E-01    0.782E-01
DAV:   5    -0.191347639018E+03    0.58067E-02   -0.15382E-02 11080   0.889E-01    0.318E-01
DAV:   6    -0.191346849834E+03    0.78918E-03   -0.39850E-03 11040   0.322E-01    0.151E-01
DAV:   7    -0.191346423016E+03    0.42682E-03   -0.12509E-03 11360   0.132E-01    0.558E-02
DAV:   8    -0.191346370859E+03    0.52157E-04   -0.17412E-04  7120   0.627E-02
  10 F= -.19134637E+03 E0= -.19124735E+03  d E =0.536321E-01
       N       E                     dE             d eps       ncg     rms          rms(c)
DAV:   1    -0.191354191887E+03   -0.77689E-02   -0.80365E+00  8160   0.603E+00    0.609E-01
DAV:   2    -0.191374178517E+03   -0.19987E-01   -0.17676E-01 13600   0.157E+00    0.120E+00
DAV:   3    -0.191365054307E+03    0.91242E-02   -0.52919E-02 11800   0.157E+00    0.714E-01
DAV:   4    -0.191361052872E+03    0.40014E-02   -0.10944E-02 12240   0.697E-01    0.371E-01
DAV:   5    -0.191360818316E+03    0.23456E-03   -0.71415E-03 11600   0.662E-01    0.396E-01
DAV:   6    -0.191359354105E+03    0.14642E-02   -0.39770E-03 11600   0.425E-01    0.128E-01
DAV:   7    -0.191359107897E+03    0.24621E-03   -0.90396E-04 10640   0.138E-01    0.756E-02
DAV:   8    -0.191359079832E+03    0.28065E-04   -0.29113E-04  8720   0.114E-01
  11 F= -.19135908E+03 E0= -.19125937E+03  d E =-.127090E-01
       N       E                     dE             d eps       ncg     rms          rms(c)
DAV:   1    -0.191393160632E+03   -0.34053E-01   -0.59301E+00  8160   0.521E+00    0.584E-01
DAV:   2    -0.191416142169E+03   -0.22982E-01   -0.16720E-01 13280   0.190E+00    0.129E+00
DAV:   3    -0.191400474656E+03    0.15668E-01   -0.49472E-02 12240   0.159E+00    0.513E-01
DAV:   4    -0.191400715520E+03   -0.24086E-03   -0.12492E-02 11800   0.766E-01    0.586E-01
DAV:   5    -0.191397842262E+03    0.28733E-02   -0.86337E-03 11520   0.714E-01    0.313E-01
DAV:   6    -0.191396881334E+03    0.96093E-03   -0.32643E-03 11520   0.312E-01    0.121E-01
DAV:   7    -0.191396936682E+03   -0.55348E-04   -0.12612E-03 10520   0.209E-01    0.170E-01
DAV:   8    -0.191396650757E+03    0.28592E-03   -0.65049E-04  8720   0.182E-01    0.502E-02
DAV:   9    -0.191396635016E+03    0.15742E-04   -0.73582E-05  6080   0.496E-02
  12 F= -.19139664E+03 E0= -.19129546E+03  d E =-.375552E-01
       N       E                     dE             d eps       ncg     rms          rms(c)
DAV:   1    -0.191437048679E+03   -0.40398E-01   -0.47394E+00  8160   0.466E+00    0.519E-01
DAV:   2    -0.191453993990E+03   -0.16945E-01   -0.14661E-01 13360   0.160E+00    0.100E+00
DAV:   3    -0.191444761697E+03    0.92323E-02   -0.36077E-02 12320   0.137E+00    0.496E-01
DAV:   4    -0.191443539192E+03    0.12225E-02   -0.95691E-03 11440   0.642E-01    0.437E-01
DAV:   5    -0.191442208720E+03    0.13305E-02   -0.62486E-03 11400   0.597E-01    0.307E-01
DAV:   6    -0.191441319126E+03    0.88959E-03   -0.31282E-03 11280   0.336E-01    0.124E-01
DAV:   7    -0.191441244425E+03    0.74701E-04   -0.93121E-04 10520   0.163E-01
  13 F= -.19144124E+03 E0= -.19133942E+03  d E =-.446094E-01
       N       E                     dE             d eps       ncg     rms          rms(c)
DAV:   1    -0.191429505898E+03    0.11813E-01   -0.29157E-01  8160   0.116E+00    0.142E-01
DAV:   2    -0.191431443617E+03   -0.19377E-02   -0.10620E-02 13560   0.476E-01    0.410E-01
DAV:   3    -0.191429844916E+03    0.15987E-02   -0.35152E-03 11480   0.433E-01    0.119E-01
DAV:   4    -0.191429781309E+03    0.63607E-04   -0.51967E-04  8480   0.148E-01
  14 F= -.19142978E+03 E0= -.19132796E+03  d E =0.114631E-01
       N       E                     dE             d eps       ncg     rms          rms(c)
DAV:   1    -0.191351704670E+03    0.78140E-01   -0.12928E+01  8160   0.767E+00    0.829E-01
DAV:   2    -0.191389431659E+03   -0.37727E-01   -0.36345E-01 13160   0.222E+00    0.143E+00
DAV:   3    -0.191374730398E+03    0.14701E-01   -0.82013E-02 11440   0.203E+00    0.105E+00
DAV:   4    -0.191367192361E+03    0.75380E-02   -0.30926E-02 12120   0.116E+00    0.587E-01
DAV:   5    -0.191364281276E+03    0.29111E-02   -0.12315E-02 11400   0.815E-01    0.461E-01
DAV:   6    -0.191362706147E+03    0.15751E-02   -0.78418E-03 11880   0.617E-01    0.262E-01
DAV:   7    -0.191361851383E+03    0.85476E-03   -0.21671E-03 12480   0.255E-01    0.100E-01
DAV:   8    -0.191361835159E+03    0.16224E-04   -0.61407E-04  9640   0.167E-01
  15 F= -.19136184E+03 E0= -.19126092E+03  d E =0.679461E-01
       N       E                     dE             d eps       ncg     rms          rms(c)
DAV:   1    -0.191384558309E+03   -0.22707E-01   -0.18205E+00  8160   0.287E+00    0.349E-01
DAV:   2    -0.191395370346E+03   -0.10812E-01   -0.69480E-02 13560   0.124E+00    0.867E-01
DAV:   3    -0.191387702727E+03    0.76676E-02   -0.19263E-02 11960   0.103E+00    0.310E-01
DAV:   4    -0.191387615497E+03    0.87230E-04   -0.48128E-03 11040   0.446E-01    0.335E-01
DAV:   5    -0.191386642486E+03    0.97301E-03   -0.29296E-03  9840   0.385E-01    0.172E-01
DAV:   6    -0.191386305151E+03    0.33733E-03   -0.11667E-03 10360   0.187E-01    0.730E-02
DAV:   7    -0.191386249525E+03    0.55626E-04   -0.31140E-04  7600   0.729E-02
  16 F= -.19138625E+03 E0= -.19128452E+03  d E =-.244144E-01
       N       E                     dE             d eps       ncg     rms          rms(c)
DAV:   1    -0.191399654200E+03   -0.13349E-01   -0.52376E-01  8160   0.155E+00    0.193E-01
DAV:   2    -0.191402202147E+03   -0.25479E-02   -0.18834E-02 13560   0.622E-01    0.417E-01
DAV:   3    -0.191400434241E+03    0.17679E-02   -0.50114E-03 11920   0.530E-01    0.173E-01
DAV:   4    -0.191400356298E+03    0.77943E-04   -0.12929E-03  9680   0.230E-01    0.170E-01
DAV:   5    -0.191400163767E+03    0.19253E-03   -0.93450E-04  9280   0.217E-01    0.116E-01
DAV:   6    -0.191400025468E+03    0.13830E-03   -0.37393E-04  7240   0.116E-01    0.379E-02
DAV:   7    -0.191400014688E+03    0.10780E-04   -0.87094E-05  6240   0.412E-02
  17 F= -.19140001E+03 E0= -.19129791E+03  d E =-.137652E-01
       N       E                     dE             d eps       ncg     rms          rms(c)
DAV:   1    -0.191396547693E+03    0.34778E-02   -0.33835E-02  8160   0.394E-01    0.512E-02
DAV:   2    -0.191396930775E+03   -0.38308E-03   -0.15397E-03 13200   0.205E-01    0.185E-01
DAV:   3    -0.191396563301E+03    0.36747E-03   -0.65016E-04  8160   0.181E-01    0.339E-02
DAV:   4    -0.191396578997E+03   -0.15695E-04   -0.63747E-05  5440   0.565E-02
  18 F= -.19139658E+03 E0= -.19129448E+03  d E =0.343569E-02
       N       E                     dE             d eps       ncg     rms          rms(c)
DAV:   1    -0.191344511603E+03    0.52052E-01   -0.69273E+00  8160   0.560E+00    0.633E-01
DAV:   2    -0.191372688572E+03   -0.28177E-01   -0.22805E-01 13560   0.193E+00    0.122E+00
DAV:   3    -0.191357110106E+03    0.15578E-01   -0.49104E-02 12120   0.161E+00    0.607E-01
DAV:   4    -0.191355218346E+03    0.18918E-02   -0.14464E-02 11800   0.758E-01    0.489E-01
DAV:   5    -0.191353592570E+03    0.16258E-02   -0.82786E-03 11640   0.655E-01    0.387E-01
DAV:   6    -0.191352294434E+03    0.12981E-02   -0.45405E-03 11720   0.441E-01    0.164E-01
DAV:   7    -0.191352015624E+03    0.27881E-03   -0.12157E-03 11720   0.161E-01    0.626E-02
DAV:   8    -0.191351973966E+03    0.41658E-04   -0.24943E-04  8400   0.949E-02
  19 F= -.19135197E+03 E0= -.19125042E+03  d E =0.446050E-01
       N       E                     dE             d eps       ncg     rms          rms(c)
DAV:   1    -0.191310475459E+03    0.41540E-01   -0.69602E+00  8160   0.561E+00    0.635E-01
DAV:   2    -0.191341137453E+03   -0.30662E-01   -0.21421E-01 13600   0.197E+00    0.137E+00
DAV:   3    -0.191321328696E+03    0.19809E-01   -0.56005E-02 11680   0.172E+00    0.643E-01
DAV:   4    -0.191320060536E+03    0.12682E-02   -0.16227E-02 12120   0.810E-01    0.560E-01
DAV:   5    -0.191317610201E+03    0.24503E-02   -0.97277E-03 10200   0.692E-01    0.350E-01
DAV:   6    -0.191316298786E+03    0.13114E-02   -0.36437E-03 11560   0.377E-01    0.134E-01
DAV:   7    -0.191316428378E+03   -0.12959E-03   -0.13898E-03 12240   0.219E-01    0.177E-01
DAV:   8    -0.191316116895E+03    0.31148E-03   -0.75578E-04  8760   0.202E-01    0.698E-02
DAV:   9    -0.191316076179E+03    0.40715E-04   -0.11136E-04  5920   0.672E-02
  20 F= -.19131608E+03 E0= -.19121562E+03  d E =0.358978E-01
       N       E                     dE             d eps       ncg     rms          rms(c)
DAV:   1    -0.191337042365E+03   -0.20925E-01   -0.18906E+00  8160   0.293E+00    0.420E-01
DAV:   2    -0.191355961058E+03   -0.18919E-01   -0.97643E-02 13160   0.162E+00    0.120E+00
DAV:   3    -0.191340731362E+03    0.15230E-01   -0.31347E-02 12200   0.133E+00    0.326E-01
DAV:   4    -0.191341072126E+03   -0.34076E-03   -0.68876E-03 11480   0.538E-01    0.411E-01
DAV:   5    -0.191339548647E+03    0.15235E-02   -0.46940E-03 11560   0.485E-01    0.199E-01
DAV:   6    -0.191339081974E+03    0.46667E-03   -0.13454E-03 10120   0.195E-01    0.688E-02
DAV:   7    -0.191339178017E+03   -0.96042E-04   -0.65154E-04 10560   0.139E-01
  21 F= -.19133918E+03 E0= -.19123748E+03  d E =-.231018E-01
       N       E                     dE             d eps       ncg     rms          rms(c)
DAV:   1    -0.191356926199E+03   -0.17844E-01   -0.16429E+00  8160   0.273E+00    0.349E-01
DAV:   2    -0.191368612856E+03   -0.11687E-01   -0.64577E-02 13480   0.121E+00    0.921E-01
DAV:   3    -0.191359764485E+03    0.88484E-02   -0.20711E-02 12120   0.107E+00    0.319E-01
DAV:   4    -0.191359592129E+03    0.17236E-03   -0.51812E-03 11160   0.445E-01    0.311E-01
DAV:   5    -0.191358822455E+03    0.76967E-03   -0.32089E-03 11000   0.397E-01    0.191E-01
DAV:   6    -0.191358398223E+03    0.42423E-03   -0.10213E-03 10240   0.192E-01    0.613E-02
DAV:   7    -0.191358499201E+03   -0.10098E-03   -0.45820E-04  8840   0.118E-01    0.105E-01
DAV:   8    -0.191358387722E+03    0.11148E-03   -0.28653E-04  7320   0.125E-01    0.471E-02
DAV:   9    -0.191358370900E+03    0.16822E-04   -0.54269E-05  6160   0.477E-02
  22 F= -.19135837E+03 E0= -.19125594E+03  d E =-.191929E-01
       N       E                     dE             d eps       ncg     rms          rms(c)
DAV:   1    -0.191367106462E+03   -0.87187E-02   -0.84991E-01  8160   0.195E+00    0.243E-01
DAV:   2    -0.191372763426E+03   -0.56570E-02   -0.28876E-02 13600   0.878E-01    0.695E-01
DAV:   3    -0.191368064978E+03    0.46984E-02   -0.10771E-02 11760   0.768E-01    0.217E-01
DAV:   4    -0.191367932012E+03    0.13297E-03   -0.23290E-03 10360   0.296E-01    0.192E-01
DAV:   5    -0.191367659734E+03    0.27228E-03   -0.14188E-03 10560   0.264E-01    0.137E-01
DAV:   6    -0.191367440673E+03    0.21906E-03   -0.54318E-04  8480   0.145E-01    0.411E-02
DAV:   7    -0.191367436921E+03    0.37514E-05   -0.14286E-04  5520   0.516E-02
  23 F= -.19136744E+03 E0= -.19126492E+03  d E =-.906602E-02
       N       E                     dE             d eps       ncg     rms          rms(c)
DAV:   1    -0.191377835292E+03   -0.10395E-01   -0.63802E-01  8160   0.170E+00    0.192E-01
DAV:   2    -0.191379926163E+03   -0.20909E-02   -0.18408E-02 13480   0.535E-01    0.346E-01
DAV:   3    -0.191378801952E+03    0.11242E-02   -0.45758E-03 12000   0.484E-01    0.203E-01
DAV:   4    -0.191378571895E+03    0.23006E-03   -0.13715E-03 10000   0.242E-01    0.153E-01
DAV:   5    -0.191378446115E+03    0.12578E-03   -0.85087E-04  8840   0.210E-01    0.131E-01
DAV:   6    -0.191378283777E+03    0.16234E-03   -0.45612E-04  8200   0.142E-01    0.472E-02
DAV:   7    -0.191378275851E+03    0.79265E-05   -0.10477E-04  5960   0.555E-02
  24 F= -.19137828E+03 E0= -.19127569E+03  d E =-.108389E-01
       N       E                     dE             d eps       ncg     rms          rms(c)
DAV:   1    -0.191376066803E+03    0.22170E-02   -0.37998E-02  8160   0.417E-01    0.485E-02
DAV:   2    -0.191376350575E+03   -0.28377E-03   -0.12386E-03 13160   0.169E-01    0.156E-01
DAV:   3    -0.191376103464E+03    0.24711E-03   -0.47891E-04  8320   0.161E-01    0.419E-02
DAV:   4    -0.191376104262E+03   -0.79815E-06   -0.62143E-05  5560   0.463E-02
  25 F= -.19137610E+03 E0= -.19127348E+03  d E =0.217159E-02
       N       E                     dE             d eps       ncg     rms          rms(c)
DAV:   1    -0.191373080885E+03    0.30226E-02   -0.25979E+00  8160   0.340E+00    0.378E-01
DAV:   2    -0.191383360868E+03   -0.10280E-01   -0.72774E-02 13600   0.116E+00    0.883E-01
DAV:   3    -0.191376743023E+03    0.66178E-02   -0.22155E-02 12400   0.106E+00    0.402E-01
DAV:   4    -0.191375538874E+03    0.12041E-02   -0.47660E-03 11840   0.411E-01    0.217E-01
DAV:   5    -0.191375151278E+03    0.38760E-03   -0.22768E-03 10920   0.312E-01    0.211E-01
DAV:   6    -0.191374977921E+03    0.17336E-03   -0.16458E-03 10120   0.302E-01    0.157E-01
DAV:   7    -0.191374919799E+03    0.58122E-04   -0.90853E-04  9280   0.212E-01
  26 F= -.19137492E+03 E0= -.19127254E+03  d E =0.118446E-02
       N       E                     dE             d eps       ncg     rms          rms(c)
DAV:   1    -0.191374890194E+03    0.87727E-04   -0.34200E-01  8160   0.124E+00    0.137E-01
DAV:   2    -0.191376537499E+03   -0.16473E-02   -0.98865E-03 13560   0.417E-01    0.350E-01
DAV:   3    -0.191375345756E+03    0.11917E-02   -0.32902E-03 11760   0.405E-01    0.137E-01
DAV:   4    -0.191375273920E+03    0.71836E-04   -0.56484E-04  8280   0.155E-01
  27 F= -.19137527E+03 E0= -.19127279E+03  d E =-.354122E-03
       N       E                     dE             d eps       ncg     rms          rms(c)
DAV:   1    -0.191394327633E+03   -0.18982E-01   -0.14881E+00  8160   0.260E+00    0.298E-01
DAV:   2    -0.191403608206E+03   -0.92806E-02   -0.49997E-02 13600   0.987E-01    0.819E-01
DAV:   3    -0.191396944489E+03    0.66637E-02   -0.15221E-02 11800   0.924E-01    0.273E-01
DAV:   4    -0.191396940790E+03    0.36994E-05   -0.35258E-03 11200   0.357E-01    0.259E-01
DAV:   5    -0.191396245912E+03    0.69488E-03   -0.19306E-03 10280   0.312E-01    0.130E-01
DAV:   6    -0.191396167890E+03    0.78022E-04   -0.76266E-04 10840   0.172E-01
  28 F= -.19139617E+03 E0= -.19129464E+03  d E =-.208940E-01
       N       E                     dE             d eps       ncg     rms          rms(c)
DAV:   1    -0.191387614564E+03    0.86313E-02   -0.23053E-01  8160   0.104E+00    0.165E-01
DAV:   2    -0.191393247452E+03   -0.56329E-02   -0.14784E-02 12440   0.752E-01    0.733E-01
DAV:   3    -0.191387699785E+03    0.55477E-02   -0.78868E-03 10880   0.660E-01    0.844E-02
DAV:   4    -0.191387735796E+03   -0.36011E-04   -0.44932E-04  8720   0.111E-01
  29 F= -.19138774E+03 E0= -.19128575E+03  d E =0.843209E-02
       N       E                     dE             d eps       ncg     rms          rms(c)
DAV:   1    -0.191398587112E+03   -0.10887E-01   -0.60850E-01  8160   0.168E+00    0.290E-01
DAV:   2    -0.191406353337E+03   -0.77662E-02   -0.31774E-02 12680   0.110E+00    0.903E-01
DAV:   3    -0.191398137686E+03    0.82157E-02   -0.13962E-02 11360   0.918E-01    0.200E-01
DAV:   4    -0.191398626879E+03   -0.48919E-03   -0.33231E-03 11280   0.411E-01    0.308E-01
DAV:   5    -0.191397657631E+03    0.96925E-03   -0.24741E-03 10320   0.358E-01    0.123E-01
DAV:   6    -0.191397509855E+03    0.14778E-03   -0.78055E-04  9520   0.145E-01    0.866E-02
DAV:   7    -0.191397489243E+03    0.20612E-04   -0.34778E-04  7360   0.135E-01
  30 F= -.19139749E+03 E0= -.19129548E+03  d E =-.975345E-02
       N       E                     dE             d eps       ncg     rms          rms(c)
DAV:   1    -0.191413558264E+03   -0.16048E-01   -0.73587E-01  8160   0.184E+00    0.206E-01
DAV:   2    -0.191415093986E+03   -0.15357E-02   -0.19837E-02 12280   0.472E-01    0.291E-01
DAV:   3    -0.191414963923E+03    0.13006E-03   -0.46430E-03 12160   0.494E-01    0.308E-01
DAV:   4    -0.191414128914E+03    0.83501E-03   -0.19840E-03 10080   0.304E-01    0.112E-01
DAV:   5    -0.191414045013E+03    0.83901E-04   -0.78122E-04  9760   0.155E-01
  31 F= -.19141405E+03 E0= -.19131309E+03  d E =-.165558E-01
       N       E                     dE             d eps       ncg     rms          rms(c)
DAV:   1    -0.191438368490E+03   -0.24240E-01   -0.16690E+00  8160   0.275E+00    0.299E-01
DAV:   2    -0.191445985254E+03   -0.76168E-02   -0.44501E-02 13520   0.928E-01    0.751E-01
DAV:   3    -0.191440445271E+03    0.55400E-02   -0.12566E-02 11840   0.861E-01    0.257E-01
DAV:   4    -0.191440812316E+03   -0.36705E-03   -0.34049E-03 11520   0.396E-01    0.313E-01
DAV:   5    -0.191439738399E+03    0.10739E-02   -0.22121E-03 10240   0.353E-01    0.101E-01
DAV:   6    -0.191439910918E+03   -0.17252E-03   -0.77054E-04 10480   0.167E-01    0.140E-01
DAV:   7    -0.191439751807E+03    0.15911E-03   -0.60304E-04  8320   0.185E-01    0.937E-02
DAV:   8    -0.191439661685E+03    0.90122E-04   -0.15046E-04  5800   0.909E-02
  32 F= -.19143966E+03 E0= -.19134036E+03  d E =-.256167E-01
       N       E                     dE             d eps       ncg     rms          rms(c)
DAV:   1    -0.191427910662E+03    0.11841E-01   -0.32708E-01  8160   0.121E+00    0.123E-01
DAV:   2    -0.191428899887E+03   -0.98923E-03   -0.79708E-03 13440   0.369E-01    0.254E-01
DAV:   3    -0.191428285140E+03    0.61475E-03   -0.16802E-03 10320   0.316E-01    0.117E-01
DAV:   4    -0.191428266307E+03    0.18833E-04   -0.57995E-04  8200   0.159E-01
  33 F= -.19142827E+03 E0= -.19132823E+03  d E =0.113954E-01
       N       E                     dE             d eps       ncg     rms          rms(c)
DAV:   1    -0.191342729862E+03    0.85555E-01   -0.21854E+01  8160   0.992E+00    0.101E+00
DAV:   2    -0.191388649655E+03   -0.45920E-01   -0.52312E-01 12560   0.234E+00    0.146E+00
DAV:   3    -0.191379600064E+03    0.90496E-02   -0.10214E-01 12280   0.227E+00    0.136E+00
DAV:   4    -0.191367993232E+03    0.11607E-01   -0.51045E-02 12440   0.153E+00    0.816E-01
DAV:   5    -0.191362376858E+03    0.56164E-02   -0.25884E-02 11040   0.105E+00    0.597E-01
DAV:   6    -0.191360400771E+03    0.19761E-02   -0.12533E-02 12440   0.800E-01    0.346E-01
DAV:   7    -0.191358919270E+03    0.14815E-02   -0.48073E-03 12080   0.401E-01    0.213E-01
DAV:   8    -0.191358653421E+03    0.26585E-03   -0.17031E-03 10600   0.282E-01    0.135E-01
DAV:   9    -0.191358475098E+03    0.17832E-03   -0.41009E-04  8600   0.126E-01    0.347E-02
DAV:  10    -0.191358474110E+03    0.98848E-06   -0.12243E-04  6680   0.398E-02
  34 F= -.19135847E+03 E0= -.19125509E+03  d E =0.697922E-01
       N       E                     dE             d eps       ncg     rms          rms(c)
DAV:   1    -0.191362368216E+03   -0.38931E-02   -0.83942E-01  8160   0.196E+00    0.278E-01
DAV:   2    -0.191367474723E+03   -0.51065E-02   -0.31397E-02 13400   0.958E-01    0.701E-01
DAV:   3    -0.191362584780E+03    0.48899E-02   -0.11123E-02 11800   0.784E-01    0.218E-01
DAV:   4    -0.191362756718E+03   -0.17194E-03   -0.29043E-03 10640   0.366E-01    0.293E-01
DAV:   5    -0.191362081807E+03    0.67491E-03   -0.24139E-03  9800   0.352E-01    0.166E-01
DAV:   6    -0.191361809217E+03    0.27259E-03   -0.96093E-04  9520   0.156E-01    0.644E-02
DAV:   7    -0.191361750399E+03    0.58818E-04   -0.22937E-04  6560   0.784E-02
  35 F= -.19136175E+03 E0= -.19125744E+03  d E =-.327629E-02
       N       E                     dE             d eps       ncg     rms          rms(c)
DAV:   1    -0.191374646535E+03   -0.12837E-01   -0.11453E+00  8160   0.229E+00    0.247E-01
DAV:   2    -0.191378133455E+03   -0.34869E-02   -0.38408E-02 12240   0.579E-01    0.328E-01
DAV:   3    -0.191377526960E+03    0.60650E-03   -0.73114E-03 11880   0.530E-01    0.315E-01
DAV:   4    -0.191376821862E+03    0.70510E-03   -0.29239E-03 11320   0.384E-01    0.192E-01
DAV:   5    -0.191376497827E+03    0.32404E-03   -0.10114E-03  9440   0.225E-01    0.138E-01
DAV:   6    -0.191376432097E+03    0.65730E-04   -0.81989E-04 10480   0.208E-01
  36 F= -.19137643E+03 E0= -.19127260E+03  d E =-.146817E-01
       N       E                     dE             d eps       ncg     rms          rms(c)
DAV:   1    -0.191384517230E+03   -0.80194E-02   -0.36337E-01  8160   0.129E+00    0.139E-01
DAV:   2    -0.191385407335E+03   -0.89011E-03   -0.95232E-03 13360   0.310E-01    0.193E-01
DAV:   3    -0.191385153167E+03    0.25417E-03   -0.18339E-03 11320   0.294E-01    0.175E-01
DAV:   4    -0.191384963912E+03    0.18926E-03   -0.83380E-04  9280   0.205E-01    0.108E-01
DAV:   5    -0.191384887334E+03    0.76577E-04   -0.50221E-04  8120   0.145E-01
  37 F= -.19138489E+03 E0= -.19128115E+03  d E =-.845524E-02
       N       E                     dE             d eps       ncg     rms          rms(c)
DAV:   1    -0.191391380857E+03   -0.64169E-02   -0.22805E-01  8160   0.103E+00    0.134E-01
DAV:   2    -0.191392722409E+03   -0.13416E-02   -0.75870E-03 13600   0.417E-01    0.326E-01
DAV:   3    -0.191391560429E+03    0.11620E-02   -0.25083E-03 11360   0.369E-01    0.985E-02
DAV:   4    -0.191391676544E+03   -0.11612E-03   -0.62619E-04  8680   0.168E-01    0.147E-01
DAV:   5    -0.191391482187E+03    0.19436E-03   -0.49935E-04  8200   0.170E-01    0.662E-02
DAV:   6    -0.191391454212E+03    0.27975E-04   -0.13541E-04  5480   0.670E-02
  38 F= -.19139145E+03 E0= -.19128800E+03  d E =-.656688E-02
       N       E                     dE             d eps       ncg     rms          rms(c)
DAV:   1    -0.191407761410E+03   -0.16279E-01   -0.10625E+00  8160   0.223E+00    0.274E-01
DAV:   2    -0.191411009278E+03   -0.32479E-02   -0.34578E-02 13520   0.727E-01    0.451E-01
DAV:   3    -0.191409157435E+03    0.18518E-02   -0.83871E-03 12240   0.640E-01    0.268E-01
DAV:   4    -0.191408634904E+03    0.52253E-03   -0.27395E-03 10800   0.343E-01    0.196E-01
DAV:   5    -0.191408425843E+03    0.20906E-03   -0.15299E-03 10040   0.279E-01    0.190E-01
DAV:   6    -0.191408157015E+03    0.26883E-03   -0.11911E-03  9320   0.240E-01    0.959E-02
DAV:   7    -0.191408057080E+03    0.99935E-04   -0.31253E-04  7720   0.945E-02
  39 F= -.19140806E+03 E0= -.19130501E+03  d E =-.166029E-01
       N       E                     dE             d eps       ncg     rms          rms(c)
DAV:   1    -0.191413413343E+03   -0.52563E-02   -0.10240E-01  8160   0.686E-01    0.783E-02
DAV:   2    -0.191413751904E+03   -0.33856E-03   -0.30177E-03 13400   0.193E-01    0.153E-01
DAV:   3    -0.191413581209E+03    0.17070E-03   -0.87651E-04  9520   0.202E-01    0.100E-01
DAV:   4    -0.191413514158E+03    0.67051E-04   -0.22643E-04  6280   0.100E-01
  40 F= -.19141351E+03 E0= -.19131076E+03  d E =-.545708E-02
       N       E                     dE             d eps       ncg     rms          rms(c)
DAV:   1    -0.191413048068E+03    0.53314E-03   -0.50825E-02  8160   0.497E-01    0.106E-01
DAV:   2    -0.191413767764E+03   -0.71970E-03   -0.38767E-03 11720   0.377E-01    0.270E-01
DAV:   3    -0.191412935891E+03    0.83187E-03   -0.14510E-03 10000   0.297E-01    0.614E-02
DAV:   4    -0.191412929168E+03    0.67228E-05   -0.19410E-04  5440   0.909E-02
  41 F= -.19141293E+03 E0= -.19131018E+03  d E =0.584990E-03
       N       E                     dE             d eps       ncg     rms          rms(c)
DAV:   1    -0.191345810582E+03    0.67125E-01   -0.18744E+01  8160   0.930E+00    0.989E-01
DAV:   2    -0.191376578676E+03   -0.30768E-01   -0.44564E-01 12480   0.197E+00    0.106E+00
DAV:   3    -0.191375084521E+03    0.14942E-02   -0.97932E-02 12160   0.182E+00    0.132E+00
DAV:   4    -0.191365267076E+03    0.98174E-02   -0.58748E-02 12160   0.171E+00    0.885E-01
DAV:   5    -0.191357268670E+03    0.79984E-02   -0.20045E-02 11400   0.940E-01    0.537E-01
DAV:   6    -0.191355986469E+03    0.12822E-02   -0.12172E-02 12320   0.815E-01    0.425E-01
DAV:   7    -0.191354316666E+03    0.16698E-02   -0.47729E-03 12360   0.468E-01    0.143E-01
DAV:   8    -0.191354064988E+03    0.25168E-03   -0.11797E-03 10520   0.198E-01    0.131E-01
DAV:   9    -0.191353956029E+03    0.10896E-03   -0.54498E-04  9000   0.159E-01    0.719E-02
DAV:  10    -0.191353911104E+03    0.44925E-04   -0.12171E-04  5920   0.662E-02
  42 F= -.19135391E+03 E0= -.19124930E+03  d E =0.590181E-01
       N       E                     dE             d eps       ncg     rms          rms(c)
DAV:   1    -0.191392576230E+03   -0.38620E-01   -0.89669E+00  8160   0.646E+00    0.782E-01
DAV:   2    -0.191427647293E+03   -0.35071E-01   -0.25763E-01 13560   0.217E+00    0.162E+00
DAV:   3    -0.191403939818E+03    0.23707E-01   -0.84304E-02 11880   0.211E+00    0.859E-01
DAV:   4    -0.191399946888E+03    0.39929E-02   -0.28230E-02 12080   0.104E+00    0.664E-01
DAV:   5    -0.191397296101E+03    0.26508E-02   -0.19680E-02 12080   0.959E-01    0.566E-01
DAV:   6    -0.191393750113E+03    0.35460E-02   -0.82119E-03 11840   0.601E-01    0.167E-01
DAV:   7    -0.191393828270E+03   -0.78157E-04   -0.24364E-03 11200   0.260E-01    0.196E-01
DAV:   8    -0.191393548694E+03    0.27958E-03   -0.13695E-03 10040   0.262E-01    0.140E-01
DAV:   9    -0.191393351927E+03    0.19677E-03   -0.38606E-04  8280   0.129E-01    0.323E-02
DAV:  10    -0.191393344377E+03    0.75500E-05   -0.64074E-05  6440   0.331E-02
  43 F= -.19139334E+03 E0= -.19128934E+03  d E =-.394333E-01
       N       E                     dE             d eps       ncg     rms          rms(c)
DAV:   1    -0.191363951469E+03    0.29400E-01   -0.84523E+00  8160   0.621E+00    0.627E-01
DAV:   2    -0.191375728717E+03   -0.11777E-01   -0.18288E-01 12600   0.125E+00    0.632E-01
DAV:   3    -0.191378669463E+03   -0.29407E-02   -0.39657E-02 12320   0.119E+00    0.961E-01
DAV:   4    -0.191372592032E+03    0.60774E-02   -0.26439E-02 12000   0.110E+00    0.527E-01
DAV:   5    -0.191369534071E+03    0.30580E-02   -0.78672E-03 10960   0.543E-01    0.310E-01
DAV:   6    -0.191369613597E+03   -0.79526E-04   -0.51294E-03 11880   0.520E-01    0.299E-01
DAV:   7    -0.191368678786E+03    0.93481E-03   -0.21253E-03 12080   0.322E-01    0.962E-02
DAV:   8    -0.191368660511E+03    0.18274E-04   -0.54639E-04  9480   0.157E-01
  44 F= -.19136866E+03 E0= -.19126347E+03  d E =0.246839E-01
       N       E                     dE             d eps       ncg     rms          rms(c)
DAV:   1    -0.191385865147E+03   -0.17186E-01   -0.21150E+00  8160   0.312E+00    0.346E-01
DAV:   2    -0.191391773465E+03   -0.59083E-02   -0.57049E-02 13480   0.819E-01    0.549E-01
DAV:   3    -0.191389506241E+03    0.22672E-02   -0.13902E-02 11280   0.819E-01    0.452E-01
DAV:   4    -0.191388150867E+03    0.13554E-02   -0.58576E-03 12000   0.501E-01    0.270E-01
DAV:   5    -0.191387676882E+03    0.47398E-03   -0.33740E-03 10920   0.374E-01    0.245E-01
DAV:   6    -0.191387118113E+03    0.55877E-03   -0.17004E-03  9800   0.286E-01    0.946E-02
DAV:   7    -0.191387090981E+03    0.27132E-04   -0.43497E-04  9160   0.119E-01
  45 F= -.19138709E+03 E0= -.19128216E+03  d E =-.184305E-01
       N       E                     dE             d eps       ncg     rms          rms(c)
DAV:   1    -0.191372555568E+03    0.14563E-01   -0.93628E-01  8160   0.207E+00    0.248E-01
DAV:   2    -0.191378546092E+03   -0.59905E-02   -0.32457E-02 13440   0.817E-01    0.688E-01
DAV:   3    -0.191373865750E+03    0.46803E-02   -0.11026E-02 11400   0.752E-01    0.240E-01
DAV:   4    -0.191373695816E+03    0.16993E-03   -0.23570E-03 10480   0.294E-01    0.201E-01
DAV:   5    -0.191373344703E+03    0.35111E-03   -0.13827E-03  9800   0.255E-01    0.133E-01
DAV:   6    -0.191373170118E+03    0.17458E-03   -0.58276E-04  8600   0.157E-01    0.669E-02
DAV:   7    -0.191373297512E+03   -0.12739E-03   -0.48329E-04  9080   0.154E-01    0.130E-01
DAV:   8    -0.191373125103E+03    0.17241E-03   -0.29741E-04  7520   0.125E-01    0.244E-02
DAV:   9    -0.191373127254E+03   -0.21506E-05   -0.29328E-05  5560   0.265E-02
  46 F= -.19137313E+03 E0= -.19126822E+03  d E =0.139637E-01
       N       E                     dE             d eps       ncg     rms          rms(c)
DAV:   1    -0.191343439520E+03    0.29686E-01   -0.47240E+00  8160   0.464E+00    0.501E-01
DAV:   2    -0.191359636865E+03   -0.16197E-01   -0.13574E-01 13160   0.132E+00    0.970E-01
DAV:   3    -0.191352556465E+03    0.70804E-02   -0.36830E-02 12360   0.131E+00    0.675E-01
DAV:   4    -0.191349518980E+03    0.30375E-02   -0.12444E-02 12200   0.693E-01    0.366E-01
DAV:   5    -0.191348304102E+03    0.12149E-02   -0.52846E-03 10920   0.454E-01    0.288E-01
DAV:   6    -0.191347682128E+03    0.62197E-03   -0.30446E-03 11600   0.390E-01    0.168E-01
DAV:   7    -0.191347781020E+03   -0.98892E-04   -0.15467E-03 10480   0.259E-01    0.199E-01
DAV:   8    -0.191347393654E+03    0.38737E-03   -0.82677E-04  8640   0.213E-01    0.697E-02
DAV:   9    -0.191347345275E+03    0.48379E-04   -0.10246E-04  5600   0.663E-02
  47 F= -.19134735E+03 E0= -.19124230E+03  d E =0.257820E-01
       N       E                     dE             d eps       ncg     rms          rms(c)
DAV:   1    -0.191352382436E+03   -0.49888E-02   -0.29229E-01  8160   0.115E+00    0.141E-01
DAV:   2    -0.191354620075E+03   -0.22376E-02   -0.13101E-02 13600   0.485E-01    0.399E-01
DAV:   3    -0.191353209180E+03    0.14109E-02   -0.43802E-03 11480   0.464E-01    0.170E-01
DAV:   4    -0.191352955940E+03    0.25324E-03   -0.71366E-04  8680   0.142E-01    0.646E-02
DAV:   5    -0.191352910311E+03    0.45630E-04   -0.18176E-04  6200   0.741E-02
  48 F= -.19135291E+03 E0= -.19124786E+03  d E =-.556504E-02
       N       E                     dE             d eps       ncg     rms          rms(c)
DAV:   1    -0.191358451093E+03   -0.54952E-02   -0.24122E-01  8160   0.106E+00    0.150E-01
DAV:   2    -0.191361118623E+03   -0.26675E-02   -0.99137E-03 13600   0.529E-01    0.495E-01
DAV:   3    -0.191358669744E+03    0.24489E-02   -0.46429E-03 11440   0.505E-01    0.121E-01
DAV:   4    -0.191358722259E+03   -0.52515E-04   -0.73921E-04  8760   0.166E-01
  49 F= -.19135872E+03 E0= -.19125381E+03  d E =-.581195E-02
       N       E                     dE             d eps       ncg     rms          rms(c)
DAV:   1    -0.191345080154E+03    0.13590E-01   -0.12682E+00  8160   0.241E+00    0.284E-01
DAV:   2    -0.191353708320E+03   -0.86282E-02   -0.42522E-02 13600   0.957E-01    0.784E-01
DAV:   3    -0.191346553659E+03    0.71547E-02   -0.13739E-02 11400   0.857E-01    0.226E-01
DAV:   4    -0.191346764777E+03   -0.21112E-03   -0.31883E-03 10920   0.337E-01    0.272E-01
DAV:   5    -0.191346170616E+03    0.59416E-03   -0.21655E-03  9600   0.308E-01    0.149E-01
DAV:   6    -0.191345914438E+03    0.25618E-03   -0.60767E-04  8200   0.148E-01    0.488E-02
DAV:   7    -0.191345922460E+03   -0.80221E-05   -0.19390E-04  7000   0.637E-02
  50 F= -.19134592E+03 E0= -.19124082E+03  d E =0.127998E-01
       N       E                     dE             d eps       ncg     rms          rms(c)
DAV:   1    -0.191341520830E+03    0.43936E-02   -0.52639E-01  8160   0.157E+00    0.212E-01
DAV:   2    -0.191345896464E+03   -0.43756E-02   -0.21222E-02 13560   0.708E-01    0.622E-01
DAV:   3    -0.191342199668E+03    0.36968E-02   -0.84864E-03 11680   0.672E-01    0.203E-01
DAV:   4    -0.191341896809E+03    0.30286E-03   -0.13565E-03 10360   0.194E-01    0.106E-01
DAV:   5    -0.191341717790E+03    0.17902E-03   -0.52395E-04 10120   0.106E-01    0.755E-02
DAV:   6    -0.191341782368E+03   -0.64577E-04   -0.50216E-04  9160   0.157E-01
  51 F= -.19134178E+03 E0= -.19123631E+03  d E =0.414009E-02
       N       E                     dE             d eps       ncg     rms          rms(c)
DAV:   1    -0.191351094352E+03   -0.93766E-02   -0.88392E-01  8160   0.201E+00    0.233E-01
DAV:   2    -0.191355462231E+03   -0.43679E-02   -0.28658E-02 13520   0.675E-01    0.542E-01
DAV:   3    -0.191352868180E+03    0.25941E-02   -0.91014E-03 11440   0.678E-01    0.298E-01
DAV:   4    -0.191352242326E+03    0.62585E-03   -0.25850E-03 10960   0.306E-01    0.167E-01
DAV:   5    -0.191352075960E+03    0.16637E-03   -0.12920E-03  9680   0.239E-01    0.149E-01
DAV:   6    -0.191351844560E+03    0.23140E-03   -0.59295E-04  8400   0.168E-01    0.609E-02
DAV:   7    -0.191351950017E+03   -0.10546E-03   -0.37437E-04  8600   0.125E-01    0.114E-01
DAV:   8    -0.191351823277E+03    0.12674E-03   -0.26072E-04  6840   0.120E-01    0.346E-02
DAV:   9    -0.191351817073E+03    0.62041E-05   -0.37105E-05  5680   0.361E-02
  52 F= -.19135182E+03 E0= -.19124642E+03  d E =-.100347E-01
       N       E                     dE             d eps       ncg     rms          rms(c)
DAV:   1    -0.191357441328E+03   -0.56181E-02   -0.27204E-01  8160   0.111E+00    0.135E-01
DAV:   2    -0.191358968229E+03   -0.15269E-02   -0.92890E-03 13400   0.395E-01    0.333E-01
DAV:   3    -0.191357982402E+03    0.98583E-03   -0.32461E-03 10720   0.401E-01    0.172E-01
DAV:   4    -0.191357778786E+03    0.20362E-03   -0.85256E-04  8480   0.170E-01    0.920E-02
DAV:   5    -0.191357733041E+03    0.45745E-04   -0.39374E-04  8320   0.133E-01
  53 F= -.19135773E+03 E0= -.19125242E+03  d E =-.591597E-02
       N       E                     dE             d eps       ncg     rms          rms(c)
DAV:   1    -0.191359511560E+03   -0.17328E-02   -0.66373E-02  8160   0.555E-01    0.888E-02
DAV:   2    -0.191360901501E+03   -0.13899E-02   -0.36962E-03 13600   0.377E-01    0.365E-01
DAV:   3    -0.191359552560E+03    0.13489E-02   -0.21050E-03  9760   0.349E-01    0.569E-02
DAV:   4    -0.191359587784E+03   -0.35224E-04   -0.14214E-04  5680   0.799E-02
  54 F= -.19135959E+03 E0= -.19125438E+03  d E =-.185474E-02
       N       E                     dE             d eps       ncg     rms          rms(c)
DAV:   1    -0.191369579327E+03   -0.10027E-01   -0.10020E+00  8160   0.213E+00    0.277E-01
DAV:   2    -0.191378656239E+03   -0.90769E-02   -0.37654E-02 13600   0.963E-01    0.903E-01
DAV:   3    -0.191371164514E+03    0.74917E-02   -0.17576E-02 11640   0.952E-01    0.273E-01
DAV:   4    -0.191370626512E+03    0.53800E-03   -0.26398E-03 10720   0.251E-01    0.156E-01
DAV:   5    -0.191370597867E+03    0.28644E-04   -0.14770E-03 10600   0.245E-01    0.197E-01
DAV:   6    -0.191370284031E+03    0.31384E-03   -0.96550E-04  9280   0.208E-01    0.891E-02
DAV:   7    -0.191370387472E+03   -0.10344E-03   -0.49598E-04  8360   0.151E-01    0.118E-01
DAV:   8    -0.191370235083E+03    0.15239E-03   -0.27335E-04  7240   0.127E-01    0.299E-02
DAV:   9    -0.191370229776E+03    0.53070E-05   -0.33389E-05  6360   0.349E-02
  55 F= -.19137023E+03 E0= -.19126522E+03  d E =-.106420E-01
       N       E                     dE             d eps       ncg     rms          rms(c)
DAV:   1    -0.191366151824E+03    0.40833E-02   -0.21388E-01  8160   0.979E-01    0.120E-01
DAV:   2    -0.191367943196E+03   -0.17914E-02   -0.77140E-03 13600   0.438E-01    0.394E-01
DAV:   3    -0.191366432519E+03    0.15107E-02   -0.31751E-03 11360   0.413E-01    0.106E-01
DAV:   4    -0.191366362472E+03    0.70047E-04   -0.37388E-04  8200   0.903E-02
  56 F= -.19136636E+03 E0= -.19126107E+03  d E =0.386730E-02
       N       E                     dE             d eps       ncg     rms          rms(c)
DAV:   1    -0.191355340474E+03    0.11092E-01   -0.24976E+00  8160   0.334E+00    0.435E-01
DAV:   2    -0.191378731425E+03   -0.23391E-01   -0.92787E-02 13600   0.161E+00    0.149E+00
DAV:   3    -0.191358083495E+03    0.20648E-01   -0.45100E-02 12200   0.151E+00    0.365E-01
DAV:   4    -0.191357095592E+03    0.98790E-03   -0.50002E-03 11480   0.347E-01    0.218E-01
DAV:   5    -0.191356937402E+03    0.15819E-03   -0.32351E-03 11360   0.357E-01    0.283E-01
DAV:   6    -0.191356466849E+03    0.47055E-03   -0.27320E-03 10160   0.339E-01    0.168E-01
DAV:   7    -0.191356371912E+03    0.94937E-04   -0.10106E-03  9560   0.208E-01    0.128E-01
DAV:   8    -0.191356202541E+03    0.16937E-03   -0.39027E-04  8560   0.152E-01    0.498E-02
DAV:   9    -0.191356173982E+03    0.28559E-04   -0.70213E-05  6680   0.493E-02
  57 F= -.19135617E+03 E0= -.19125030E+03  d E =0.101885E-01
       N       E                     dE             d eps       ncg     rms          rms(c)
DAV:   1    -0.191360224204E+03   -0.40217E-02   -0.13500E-01  8160   0.788E-01    0.977E-02
DAV:   2    -0.191360948001E+03   -0.72380E-03   -0.45906E-03 13600   0.301E-01    0.240E-01
DAV:   3    -0.191360417347E+03    0.53065E-03   -0.15464E-03 10040   0.280E-01    0.108E-01
DAV:   4    -0.191360376775E+03    0.40572E-04   -0.44821E-04  8080   0.131E-01
  58 F= -.19136038E+03 E0= -.19125457E+03  d E =-.420279E-02
       N       E                     dE             d eps       ncg     rms          rms(c)
DAV:   1    -0.191352539925E+03    0.78774E-02   -0.33492E+00  8160   0.391E+00    0.522E-01
DAV:   2    -0.191376939189E+03   -0.24399E-01   -0.12811E-01 13400   0.194E+00    0.141E+00
DAV:   3    -0.191354656525E+03    0.22283E-01   -0.41020E-02 11840   0.152E+00    0.392E-01
DAV:   4    -0.191355839141E+03   -0.11826E-02   -0.93311E-03 11000   0.693E-01    0.558E-01
DAV:   5    -0.191352982942E+03    0.28562E-02   -0.71397E-03 10040   0.632E-01    0.242E-01
DAV:   6    -0.191352557934E+03    0.42501E-03   -0.24113E-03 11040   0.269E-01    0.160E-01
DAV:   7    -0.191352701923E+03   -0.14399E-03   -0.18983E-03 10200   0.288E-01    0.217E-01
DAV:   8    -0.191352254616E+03    0.44731E-03   -0.85423E-04  8480   0.194E-01    0.380E-02
DAV:   9    -0.191352251872E+03    0.27438E-05   -0.61272E-05  5600   0.359E-02
  59 F= -.19135225E+03 E0= -.19124701E+03  d E =0.812490E-02
       N       E                     dE             d eps       ncg     rms          rms(c)
DAV:   1    -0.191345363225E+03    0.68914E-02   -0.47919E-01  8160   0.148E+00    0.181E-01
DAV:   2    -0.191347621676E+03   -0.22585E-02   -0.14907E-02 13480   0.497E-01    0.399E-01
DAV:   3    -0.191346061640E+03    0.15600E-02   -0.46976E-03 11000   0.486E-01    0.211E-01
DAV:   4    -0.191345884458E+03    0.17718E-03   -0.16138E-03  9640   0.247E-01    0.156E-01
DAV:   5    -0.191345717227E+03    0.16723E-03   -0.93501E-04  8360   0.207E-01    0.119E-01
DAV:   6    -0.191345561871E+03    0.15536E-03   -0.37880E-04  8040   0.133E-01    0.409E-02
DAV:   7    -0.191345603462E+03   -0.41590E-04   -0.15658E-04  6800   0.813E-02
  60 F= -.19134560E+03 E0= -.19124033E+03  d E =0.664841E-02
       N       E                     dE             d eps       ncg     rms          rms(c)
DAV:   1    -0.191351182591E+03   -0.56207E-02   -0.62093E-01  8160   0.169E+00    0.247E-01
DAV:   2    -0.191356464264E+03   -0.52817E-02   -0.25571E-02 13480   0.876E-01    0.678E-01
DAV:   3    -0.191351371396E+03    0.50929E-02   -0.10209E-02 11680   0.745E-01    0.185E-01
DAV:   4    -0.191351466275E+03   -0.94878E-04   -0.23124E-03 10400   0.286E-01    0.236E-01
DAV:   5    -0.191351138301E+03    0.32797E-03   -0.20503E-03  9600   0.306E-01    0.169E-01
DAV:   6    -0.191350804518E+03    0.33378E-03   -0.68676E-04  8640   0.153E-01    0.369E-02
DAV:   7    -0.191350812817E+03   -0.82995E-05   -0.16317E-04  6520   0.563E-02
  61 F= -.19135081E+03 E0= -.19124503E+03  d E =-.520936E-02
       N       E                     dE             d eps       ncg     rms          rms(c)
DAV:   1    -0.191351077973E+03   -0.27346E-03   -0.24141E-01  8160   0.105E+00    0.148E-01
DAV:   2    -0.191354406660E+03   -0.33287E-02   -0.98847E-03 13160   0.589E-01    0.571E-01
DAV:   3    -0.191351145380E+03    0.32613E-02   -0.51330E-03 11280   0.544E-01    0.932E-02
DAV:   4    -0.191351153928E+03   -0.85479E-05   -0.39780E-04  8400   0.108E-01
  62 F= -.19135115E+03 E0= -.19124511E+03  d E =-.341111E-03
       N       E                     dE             d eps       ncg     rms          rms(c)
DAV:   1    -0.191357883952E+03   -0.67386E-02   -0.53475E-01  8160   0.155E+00    0.267E-01
DAV:   2    -0.191371180429E+03   -0.13296E-01   -0.35905E-02 11720   0.114E+00    0.118E+00
DAV:   3    -0.191358521044E+03    0.12659E-01   -0.23400E-02 10640   0.107E+00    0.218E-01
DAV:   4    -0.191358375986E+03    0.14506E-03   -0.24231E-03 11120   0.295E-01    0.186E-01
DAV:   5    -0.191358088940E+03    0.28705E-03   -0.11748E-03 10680   0.231E-01    0.108E-01
DAV:   6    -0.191357960938E+03    0.12800E-03   -0.41197E-04  7560   0.117E-01    0.669E-02
DAV:   7    -0.191358030612E+03   -0.69674E-04   -0.34384E-04  7520   0.133E-01
  63 F= -.19135803E+03 E0= -.19125147E+03  d E =-.687668E-02
       N       E                     dE             d eps       ncg     rms          rms(c)
DAV:   1    -0.191368072676E+03   -0.10112E-01   -0.29056E+00  8160   0.360E+00    0.472E-01
DAV:   2    -0.191404597120E+03   -0.36524E-01   -0.12092E-01 13560   0.188E+00    0.194E+00
DAV:   3    -0.191372033866E+03    0.32563E-01   -0.69856E-02 11640   0.181E+00    0.393E-01
DAV:   4    -0.191371521053E+03    0.51281E-03   -0.75391E-03 11080   0.450E-01    0.370E-01
DAV:   5    -0.191370758106E+03    0.76295E-03   -0.48220E-03 11720   0.471E-01    0.285E-01
DAV:   6    -0.191369970781E+03    0.78732E-03   -0.20142E-03  9920   0.268E-01    0.103E-01
DAV:   7    -0.191369994963E+03   -0.24181E-04   -0.62438E-04 10600   0.113E-01
  64 F= -.19136999E+03 E0= -.19126207E+03  d E =-.119644E-01
       N       E                     dE             d eps       ncg     rms          rms(c)
DAV:   1    -0.191372089800E+03   -0.21190E-02   -0.13970E-01  8160   0.803E-01    0.108E-01
DAV:   2    -0.191373089836E+03   -0.10000E-02   -0.49628E-03 12800   0.351E-01    0.306E-01
DAV:   3    -0.191372184533E+03    0.90530E-03   -0.21309E-03 10000   0.321E-01    0.992E-02
DAV:   4    -0.191372247473E+03   -0.62940E-04   -0.57750E-04  8160   0.154E-01
  65 F= -.19137225E+03 E0= -.19126442E+03  d E =-.225251E-02
       N       E                     dE             d eps       ncg     rms          rms(c)
DAV:   1    -0.191376976050E+03   -0.47915E-02   -0.36172E-01  8160   0.128E+00    0.176E-01
DAV:   2    -0.191381541544E+03   -0.45655E-02   -0.16171E-02 13600   0.653E-01    0.662E-01
DAV:   3    -0.191377483659E+03    0.40579E-02   -0.86026E-03 11040   0.647E-01    0.159E-01
DAV:   4    -0.191377333666E+03    0.14999E-03   -0.98588E-04  9600   0.152E-01    0.102E-01
DAV:   5    -0.191377329180E+03    0.44858E-05   -0.55619E-04  9360   0.165E-01
  66 F= -.19137733E+03 E0= -.19126886E+03  d E =-.508171E-02
       N       E                     dE             d eps       ncg     rms          rms(c)
DAV:   1    -0.191369513502E+03    0.78202E-02   -0.67463E-01  8160   0.174E+00    0.213E-01
DAV:   2    -0.191376929977E+03   -0.74165E-02   -0.28951E-02 13600   0.853E-01    0.825E-01
DAV:   3    -0.191370509120E+03    0.64209E-02   -0.13388E-02 11440   0.777E-01    0.169E-01
DAV:   4    -0.191370340310E+03    0.16881E-03   -0.12498E-03  9840   0.162E-01    0.108E-01
DAV:   5    -0.191370279990E+03    0.60320E-04   -0.54574E-04  9560   0.160E-01
  67 F= -.19137028E+03 E0= -.19126284E+03  d E =0.704919E-02
       N       E                     dE             d eps       ncg     rms          rms(c)
DAV:   1    -0.191370491926E+03   -0.15162E-03   -0.42607E-02  8160   0.470E-01    0.961E-02
DAV:   2    -0.191370613217E+03   -0.12129E-03   -0.20780E-03 10880   0.206E-01    0.155E-01
DAV:   3    -0.191370452693E+03    0.16052E-03   -0.10107E-03  9880   0.228E-01    0.132E-01
DAV:   4    -0.191370339570E+03    0.11312E-03   -0.49265E-04  8240   0.153E-01    0.758E-02
DAV:   5    -0.191370305319E+03    0.34251E-04   -0.24595E-04  6600   0.103E-01
  68 F= -.19137031E+03 E0= -.19126319E+03  d E =-.253289E-04
       N       E                     dE             d eps       ncg     rms          rms(c)
DAV:   1    -0.191361758039E+03    0.85815E-02   -0.14589E+00  8160   0.256E+00    0.317E-01
DAV:   2    -0.191372768200E+03   -0.11010E-01   -0.49785E-02 13600   0.113E+00    0.100E+00
DAV:   3    -0.191363264246E+03    0.95040E-02   -0.21515E-02 12000   0.102E+00    0.289E-01
DAV:   4    -0.191362826181E+03    0.43807E-03   -0.32842E-03 10520   0.326E-01    0.216E-01
DAV:   5    -0.191362597112E+03    0.22907E-03   -0.20316E-03 10320   0.318E-01    0.195E-01
DAV:   6    -0.191362275200E+03    0.32191E-03   -0.11683E-03  9880   0.225E-01    0.110E-01
DAV:   7    -0.191362360016E+03   -0.84815E-04   -0.71632E-04  9040   0.191E-01
  69 F= -.19136236E+03 E0= -.19125687E+03  d E =0.794530E-02
       N       E                     dE             d eps       ncg     rms          rms(c)
DAV:   1    -0.191374733515E+03   -0.12458E-01   -0.33817E+00  8160   0.390E+00    0.504E-01
DAV:   2    -0.191411831200E+03   -0.37098E-01   -0.14242E-01 13560   0.195E+00    0.200E+00
DAV:   3    -0.191379011545E+03    0.32820E-01   -0.79714E-02 12080   0.183E+00    0.411E-01
DAV:   4    -0.191377518131E+03    0.14934E-02   -0.62491E-03 10640   0.392E-01    0.254E-01
DAV:   5    -0.191377733968E+03   -0.21584E-03   -0.43430E-03 11680   0.468E-01    0.368E-01
DAV:   6    -0.191376529203E+03    0.12048E-02   -0.26171E-03 11240   0.356E-01    0.111E-01
DAV:   7    -0.191376736539E+03   -0.20734E-03   -0.11592E-03  9680   0.212E-01    0.169E-01
DAV:   8    -0.191376391448E+03    0.34509E-03   -0.55510E-04  8360   0.170E-01    0.317E-02
DAV:   9    -0.191376392374E+03   -0.92542E-06   -0.57398E-05  6440   0.421E-02
  70 F= -.19137639E+03 E0= -.19126867E+03  d E =-.140324E-01
       N       E                     dE             d eps       ncg     rms          rms(c)
DAV:   1    -0.191382884697E+03   -0.64932E-02   -0.59960E-01  8160   0.164E+00    0.211E-01
DAV:   2    -0.191388858394E+03   -0.59737E-02   -0.24577E-02 13600   0.787E-01    0.771E-01
DAV:   3    -0.191383706321E+03    0.51521E-02   -0.11963E-02 11400   0.734E-01    0.183E-01
DAV:   4    -0.191383511918E+03    0.19440E-03   -0.13012E-03  9800   0.181E-01    0.119E-01
DAV:   5    -0.191383430940E+03    0.80978E-04   -0.71549E-04  9840   0.176E-01
  71 F= -.19138343E+03 E0= -.19127494E+03  d E =-.703857E-02
       N       E                     dE             d eps       ncg     rms          rms(c)
DAV:   1    -0.191374724099E+03    0.87878E-02   -0.88996E-01  8160   0.203E+00    0.279E-01
DAV:   2    -0.191383751612E+03   -0.90275E-02   -0.41119E-02 13520   0.103E+00    0.939E-01
DAV:   3    -0.191375726010E+03    0.80256E-02   -0.18993E-02 11560   0.923E-01    0.252E-01
DAV:   4    -0.191375358819E+03    0.36719E-03   -0.26859E-03 10400   0.288E-01    0.180E-01
DAV:   5    -0.191375144407E+03    0.21441E-03   -0.15314E-03 10360   0.268E-01    0.161E-01
DAV:   6    -0.191374892045E+03    0.25236E-03   -0.81947E-04  9120   0.185E-01    0.785E-02
DAV:   7    -0.191374968529E+03   -0.76485E-04   -0.45590E-04  8880   0.151E-01
  72 F= -.19137497E+03 E0= -.19126782E+03  d E =0.846241E-02
       N       E                     dE             d eps       ncg     rms          rms(c)
DAV:   1    -0.191388514999E+03   -0.13623E-01   -0.19826E+00  8160   0.303E+00    0.450E-01
DAV:   2    -0.191407107212E+03   -0.18592E-01   -0.91228E-02 13480   0.154E+00    0.146E+00
DAV:   3    -0.191390106558E+03    0.17001E-01   -0.48055E-02 11920   0.143E+00    0.427E-01
DAV:   4    -0.191389128559E+03    0.97800E-03   -0.78026E-03 11440   0.559E-01    0.351E-01
DAV:   5    -0.191388200413E+03    0.92815E-03   -0.52945E-03 11600   0.518E-01    0.260E-01
DAV:   6    -0.191387359309E+03    0.84110E-03   -0.22513E-03 11160   0.259E-01    0.686E-02
DAV:   7    -0.191387323348E+03    0.35961E-04   -0.52452E-04  8960   0.982E-02
  73 F= -.19138732E+03 E0= -.19127841E+03  d E =-.123548E-01
       N       E                     dE             d eps       ncg     rms          rms(c)
DAV:   1    -0.191387674117E+03   -0.31481E-03   -0.24203E-02  8160   0.409E-01    0.140E-01
DAV:   2    -0.191389447900E+03   -0.17738E-02   -0.53395E-03 10720   0.505E-01    0.476E-01
DAV:   3    -0.191387228388E+03    0.22195E-02   -0.37447E-03 10280   0.458E-01    0.109E-01
DAV:   4    -0.191387245362E+03   -0.16974E-04   -0.60758E-04  8360   0.167E-01
  74 F= -.19138725E+03 E0= -.19127867E+03  d E =0.779860E-04
       N       E                     dE             d eps       ncg     rms          rms(c)
DAV:   1    -0.191393670119E+03   -0.64417E-02   -0.54102E-01  8160   0.157E+00    0.165E-01
DAV:   2    -0.191395184146E+03   -0.15140E-02   -0.15036E-02 13600   0.401E-01    0.287E-01
DAV:   3    -0.191394784123E+03    0.40002E-03   -0.38673E-03 11280   0.416E-01    0.243E-01
DAV:   4    -0.191394407889E+03    0.37623E-03   -0.14737E-03  9560   0.236E-01    0.137E-01
DAV:   5    -0.191394270030E+03    0.13786E-03   -0.72238E-04  8160   0.184E-01    0.972E-02
DAV:   6    -0.191394205543E+03    0.64487E-04   -0.34344E-04  8560   0.122E-01
  75 F= -.19139421E+03 E0= -.19128543E+03  d E =-.696018E-02
       N       E                     dE             d eps       ncg     rms          rms(c)
DAV:   1    -0.191392812710E+03    0.14573E-02   -0.20474E-02  8160   0.310E-01    0.770E-02
DAV:   2    -0.191394353152E+03   -0.15404E-02   -0.29906E-03 12400   0.395E-01    0.397E-01
DAV:   3    -0.191392756166E+03    0.15970E-02   -0.20001E-03 10080   0.345E-01    0.282E-02
DAV:   4    -0.191392794179E+03   -0.38013E-04   -0.50639E-05  5800   0.406E-02
  76 F= -.19139279E+03 E0= -.19128406E+03  d E =0.141136E-02
       N       E                     dE             d eps       ncg     rms          rms(c)
DAV:   1    -0.191402264465E+03   -0.95083E-02   -0.88003E-01  8160   0.199E+00    0.231E-01
DAV:   2    -0.191407123058E+03   -0.48586E-02   -0.28855E-02 13600   0.791E-01    0.653E-01
DAV:   3    -0.191403542913E+03    0.35801E-02   -0.10046E-02 11440   0.686E-01    0.229E-01
DAV:   4    -0.191403511114E+03    0.31800E-04   -0.22386E-03  9840   0.317E-01    0.221E-01
DAV:   5    -0.191403037813E+03    0.47330E-03   -0.14873E-03 10080   0.276E-01    0.109E-01
DAV:   6    -0.191403043606E+03   -0.57931E-05   -0.58320E-04  8240   0.144E-01
  77 F= -.19140304E+03 E0= -.19129403E+03  d E =-.102494E-01
       N       E                     dE             d eps       ncg     rms          rms(c)
DAV:   1    -0.191376527924E+03    0.26510E-01   -0.61452E+00  8160   0.526E+00    0.583E-01
DAV:   2    -0.191404916525E+03   -0.28389E-01   -0.17009E-01 13600   0.178E+00    0.151E+00
DAV:   3    -0.191384127721E+03    0.20789E-01   -0.55057E-02 11760   0.169E+00    0.574E-01
DAV:   4    -0.191381108777E+03    0.30189E-02   -0.84888E-03 10560   0.534E-01    0.258E-01
DAV:   5    -0.191381111782E+03   -0.30046E-05   -0.52149E-03 12520   0.486E-01    0.327E-01
DAV:   6    -0.191380326420E+03    0.78536E-03   -0.38196E-03 11840   0.427E-01    0.171E-01
DAV:   7    -0.191379898104E+03    0.42832E-03   -0.99478E-04 10160   0.165E-01    0.523E-02
DAV:   8    -0.191379932527E+03   -0.34424E-04   -0.24811E-04  7560   0.985E-02
  78 F= -.19137993E+03 E0= -.19127168E+03  d E =0.231111E-01
       N       E                     dE             d eps       ncg     rms          rms(c)
DAV:   1    -0.191376857558E+03    0.30405E-02   -0.51666E-01  8160   0.151E+00    0.153E-01
DAV:   2    -0.191378286581E+03   -0.14290E-02   -0.11640E-02 12760   0.403E-01    0.330E-01
DAV:   3    -0.191377510822E+03    0.77576E-03   -0.36112E-03 11760   0.402E-01    0.185E-01
DAV:   4    -0.191377253445E+03    0.25738E-03   -0.73703E-04  8400   0.157E-01    0.733E-02
DAV:   5    -0.191377279578E+03   -0.26133E-04   -0.39492E-04  8120   0.125E-01
  79 F= -.19137728E+03 E0= -.19126931E+03  d E =0.265295E-02
       N       E                     dE             d eps       ncg     rms          rms(c)
DAV:   1    -0.191387509991E+03   -0.10257E-01   -0.22593E+00  8160   0.319E+00    0.405E-01
DAV:   2    -0.191407277036E+03   -0.19767E-01   -0.93174E-02 13560   0.147E+00    0.140E+00
DAV:   3    -0.191391360406E+03    0.15917E-01   -0.44402E-02 11880   0.137E+00    0.393E-01
DAV:   4    -0.191390425542E+03    0.93486E-03   -0.58575E-03 11320   0.439E-01    0.282E-01
DAV:   5    -0.191389927719E+03    0.49782E-03   -0.37175E-03 11320   0.417E-01    0.250E-01
DAV:   6    -0.191389433233E+03    0.49449E-03   -0.18822E-03 10040   0.262E-01    0.145E-01
DAV:   7    -0.191389599763E+03   -0.16653E-03   -0.13510E-03  9640   0.265E-01    0.186E-01
DAV:   8    -0.191389214980E+03    0.38478E-03   -0.55654E-04  8240   0.168E-01    0.263E-02
DAV:   9    -0.191389224458E+03   -0.94780E-05   -0.54886E-05  6200   0.307E-02
  80 F= -.19138922E+03 E0= -.19127963E+03  d E =-.119449E-01
       N       E                     dE             d eps       ncg     rms          rms(c)
DAV:   1    -0.191389963068E+03   -0.74809E-03   -0.54174E-01  8160   0.153E+00    0.144E-01
DAV:   2    -0.191391401124E+03   -0.14381E-02   -0.10579E-02 12360   0.435E-01    0.334E-01
DAV:   3    -0.191390493341E+03    0.90778E-03   -0.28387E-03 11240   0.381E-01    0.146E-01
DAV:   4    -0.191390362399E+03    0.13094E-03   -0.54273E-04  8360   0.136E-01    0.829E-02
DAV:   5    -0.191390349008E+03    0.13391E-04   -0.42106E-04  8920   0.131E-01
  81 F= -.19139035E+03 E0= -.19128028E+03  d E =-.112455E-02
       N       E                     dE             d eps       ncg     rms          rms(c)
DAV:   1    -0.191394786332E+03   -0.44239E-02   -0.75205E-01  8160   0.184E+00    0.182E-01
DAV:   2    -0.191396058479E+03   -0.12721E-02   -0.17001E-02 13440   0.424E-01    0.246E-01
DAV:   3    -0.191396199231E+03   -0.14075E-03   -0.42573E-03 12280   0.427E-01    0.304E-01
DAV:   4    -0.191395457733E+03    0.74150E-03   -0.21094E-03  9600   0.289E-01    0.121E-01
DAV:   5    -0.191395389661E+03    0.68072E-04   -0.77896E-04  9320   0.185E-01
  82 F= -.19139539E+03 E0= -.19128471E+03  d E =-.504065E-02
       N       E                     dE             d eps       ncg     rms          rms(c)
DAV:   1    -0.191394673130E+03    0.78460E-03   -0.13285E+00  8160   0.241E+00    0.230E-01
DAV:   2    -0.191399008167E+03   -0.43350E-02   -0.27983E-02 12240   0.659E-01    0.557E-01
DAV:   3    -0.191396130386E+03    0.28778E-02   -0.86012E-03 11600   0.652E-01    0.237E-01
DAV:   4    -0.191396145082E+03   -0.14696E-04   -0.21289E-03 10000   0.303E-01    0.231E-01
DAV:   5    -0.191395668349E+03    0.47673E-03   -0.14723E-03  9600   0.274E-01    0.122E-01
DAV:   6    -0.191395592016E+03    0.76332E-04   -0.64043E-04 10040   0.147E-01
  83 F= -.19139559E+03 E0= -.19128457E+03  d E =-.202355E-03
       N       E                     dE             d eps       ncg     rms          rms(c)
DAV:   1    -0.191401782474E+03   -0.61141E-02   -0.73456E-01  8160   0.183E+00    0.197E-01
DAV:   2    -0.191403758203E+03   -0.19757E-02   -0.19516E-02 13600   0.482E-01    0.350E-01
DAV:   3    -0.191403071626E+03    0.68658E-03   -0.52002E-03 11320   0.505E-01    0.272E-01
DAV:   4    -0.191402508813E+03    0.56281E-03   -0.17673E-03  9520   0.276E-01    0.136E-01
DAV:   5    -0.191402429901E+03    0.78912E-04   -0.88699E-04  9720   0.214E-01
  84 F= -.19140243E+03 E0= -.19129032E+03  d E =-.683788E-02
       N       E                     dE             d eps       ncg     rms          rms(c)
DAV:   1    -0.191403958534E+03   -0.14497E-02   -0.43533E-01  8160   0.140E+00    0.143E-01
DAV:   2    -0.191404996369E+03   -0.10378E-02   -0.95653E-03 12760   0.350E-01    0.268E-01
DAV:   3    -0.191404515912E+03    0.48046E-03   -0.27435E-03 11280   0.371E-01    0.189E-01
DAV:   4    -0.191404285109E+03    0.23080E-03   -0.87246E-04  8720   0.194E-01    0.111E-01
DAV:   5    -0.191404216387E+03    0.68722E-04   -0.51316E-04  8160   0.163E-01
  85 F= -.19140422E+03 E0= -.19129189E+03  d E =-.178649E-02
       N       E                     dE             d eps       ncg     rms          rms(c)
DAV:   1    -0.191411387001E+03   -0.71019E-02   -0.11433E+00  8160   0.229E+00    0.308E-01
DAV:   2    -0.191416408472E+03   -0.50215E-02   -0.39085E-02 13600   0.874E-01    0.737E-01
DAV:   3    -0.191412532625E+03    0.38758E-02   -0.17808E-02 11800   0.851E-01    0.370E-01
DAV:   4    -0.191411609851E+03    0.92277E-03   -0.47264E-03 11080   0.414E-01    0.241E-01
DAV:   5    -0.191411288553E+03    0.32130E-03   -0.29290E-03 10600   0.375E-01    0.204E-01
DAV:   6    -0.191410793192E+03    0.49536E-03   -0.12566E-03  9680   0.206E-01    0.548E-02
DAV:   7    -0.191410787144E+03    0.60488E-05   -0.28002E-04  6960   0.860E-02
  86 F= -.19141079E+03 E0= -.19129720E+03  d E =-.657076E-02
       N       E                     dE             d eps       ncg     rms          rms(c)
DAV:   1    -0.191413246695E+03   -0.24535E-02   -0.83160E-02  8160   0.623E-01    0.807E-02
DAV:   2    -0.191413760746E+03   -0.51405E-03   -0.29221E-03 12840   0.232E-01    0.216E-01
DAV:   3    -0.191413345076E+03    0.41567E-03   -0.12439E-03  9520   0.244E-01    0.895E-02
DAV:   4    -0.191413306556E+03    0.38520E-04   -0.21597E-04  6240   0.880E-02
  87 F= -.19141331E+03 E0= -.19129956E+03  d E =-.251941E-02
       N       E                     dE             d eps       ncg     rms          rms(c)
DAV:   1    -0.191426502010E+03   -0.13157E-01   -0.11999E+00  8160   0.233E+00    0.292E-01
DAV:   2    -0.191435953127E+03   -0.94511E-02   -0.43946E-02 13560   0.103E+00    0.935E-01
DAV:   3    -0.191427764070E+03    0.81891E-02   -0.18731E-02 12200   0.926E-01    0.233E-01
DAV:   4    -0.191427449053E+03    0.31502E-03   -0.19043E-03 11280   0.218E-01    0.161E-01
DAV:   5    -0.191427517887E+03   -0.68834E-04   -0.18050E-03 11400   0.282E-01    0.210E-01
DAV:   6    -0.191427187476E+03    0.33041E-03   -0.10616E-03  9360   0.209E-01    0.702E-02
DAV:   7    -0.191427111953E+03    0.75522E-04   -0.17114E-04  5600   0.651E-02
  88 F= -.19142711E+03 E0= -.19131223E+03  d E =-.138054E-01
       N       E                     dE             d eps       ncg     rms          rms(c)
DAV:   1    -0.191418904247E+03    0.82832E-02   -0.42742E-01  8160   0.140E+00    0.167E-01
DAV:   2    -0.191420431085E+03   -0.15268E-02   -0.13150E-02 12760   0.436E-01    0.371E-01
DAV:   3    -0.191419492634E+03    0.93845E-03   -0.47468E-03 12080   0.449E-01    0.207E-01
DAV:   4    -0.191419072152E+03    0.42048E-03   -0.83961E-04  8520   0.161E-01    0.678E-02
DAV:   5    -0.191419194492E+03   -0.12234E-03   -0.59314E-04  9120   0.151E-01    0.142E-01
DAV:   6    -0.191419034589E+03    0.15990E-03   -0.52023E-04  8200   0.158E-01    0.586E-02
DAV:   7    -0.191419016781E+03    0.17809E-04   -0.12622E-04  5560   0.670E-02
  89 F= -.19141902E+03 E0= -.19130493E+03  d E =0.809517E-02
       N       E                     dE             d eps       ncg     rms          rms(c)
DAV:   1    -0.191358183239E+03    0.60851E-01   -0.23812E+01  8160   0.104E+01    0.117E+00
DAV:   2    -0.191511870036E+03   -0.15369E+00   -0.79938E-01 13520   0.385E+00    0.412E+00
DAV:   3    -0.191392899500E+03    0.11897E+00   -0.36627E-01 12040   0.375E+00    0.102E+00
DAV:   4    -0.191382769600E+03    0.10130E-01   -0.27567E-02 11400   0.917E-01    0.630E-01
DAV:   5    -0.191381183992E+03    0.15856E-02   -0.20476E-02 12640   0.106E+00    0.619E-01
DAV:   6    -0.191378454682E+03    0.27293E-02   -0.12624E-02 12200   0.739E-01    0.325E-01
DAV:   7    -0.191376685626E+03    0.17691E-02   -0.37981E-03 10720   0.311E-01    0.142E-01
DAV:   8    -0.191376692677E+03   -0.70508E-05   -0.11054E-03 10760   0.222E-01    0.137E-01
DAV:   9    -0.191376533479E+03    0.15920E-03   -0.35929E-04  8280   0.126E-01    0.416E-02
DAV:  10    -0.191376513383E+03    0.20096E-04   -0.10953E-04  6280   0.436E-02
  90 F= -.19137651E+03 E0= -.19126951E+03  d E =0.425034E-01
       N       E                     dE             d eps       ncg     rms          rms(c)
DAV:   1    -0.191374508773E+03    0.20247E-02   -0.86885E-01  8160   0.199E+00    0.249E-01
DAV:   2    -0.191383689048E+03   -0.91803E-02   -0.32635E-02 13520   0.982E-01    0.100E+00
DAV:   3    -0.191375056862E+03    0.86322E-02   -0.17926E-02 11280   0.875E-01    0.174E-01
DAV:   4    -0.191375015991E+03    0.40870E-04   -0.15151E-03 10200   0.206E-01    0.175E-01
DAV:   5    -0.191374940868E+03    0.75124E-04   -0.13598E-03 10720   0.271E-01    0.179E-01
DAV:   6    -0.191374633411E+03    0.30746E-03   -0.67614E-04  8320   0.173E-01    0.492E-02
DAV:   7    -0.191374628451E+03    0.49606E-05   -0.13334E-04  5720   0.714E-02
  91 F= -.19137463E+03 E0= -.19126841E+03  d E =0.188493E-02
       N       E                     dE             d eps       ncg     rms          rms(c)
DAV:   1    -0.191371431010E+03    0.32024E-02   -0.14240E+00  8160   0.255E+00    0.310E-01
DAV:   2    -0.191384449459E+03   -0.13018E-01   -0.54453E-02 13600   0.114E+00    0.117E+00
DAV:   3    -0.191372986348E+03    0.11463E-01   -0.27340E-02 11680   0.105E+00    0.238E-01
DAV:   4    -0.191372573539E+03    0.41281E-03   -0.18879E-03 11240   0.197E-01    0.130E-01
DAV:   5    -0.191372540019E+03    0.33520E-04   -0.11483E-03 11400   0.222E-01    0.176E-01
DAV:   6    -0.191372400852E+03    0.13917E-03   -0.97759E-04  9320   0.238E-01    0.123E-01
DAV:   7    -0.191372261324E+03    0.13953E-03   -0.33607E-04  7840   0.122E-01    0.477E-02
DAV:   8    -0.191372241478E+03    0.19846E-04   -0.80082E-05  6800   0.675E-02
  92 F= -.19137224E+03 E0= -.19126710E+03  d E =0.238697E-02
       N       E                     dE             d eps       ncg     rms          rms(c)
DAV:   1    -0.191377157467E+03   -0.48961E-02   -0.95278E-01  8160   0.207E+00    0.271E-01
DAV:   2    -0.191389675601E+03   -0.12518E-01   -0.43613E-02 13600   0.110E+00    0.114E+00
DAV:   3    -0.191378158279E+03    0.11517E-01   -0.24393E-02 11440   0.101E+00    0.193E-01
DAV:   4    -0.191378080744E+03    0.77535E-04   -0.15522E-03 10880   0.220E-01    0.185E-01
DAV:   5    -0.191377876820E+03    0.20392E-03   -0.11478E-03 10200   0.257E-01    0.148E-01
DAV:   6    -0.191377679568E+03    0.19725E-03   -0.48148E-04  8200   0.143E-01    0.493E-02
DAV:   7    -0.191377663993E+03    0.15575E-04   -0.14259E-04  6560   0.598E-02
  93 F= -.19137766E+03 E0= -.19127156E+03  d E =-.542252E-02
       N       E                     dE             d eps       ncg     rms          rms(c)
DAV:   1    -0.191379700992E+03   -0.20214E-02   -0.11354E-01  8160   0.718E-01    0.967E-02
DAV:   2    -0.191381225836E+03   -0.15248E-02   -0.56799E-03 13440   0.381E-01    0.391E-01
DAV:   3    -0.191379826981E+03    0.13989E-02   -0.29725E-03  9920   0.354E-01    0.713E-02
DAV:   4    -0.191379838795E+03   -0.11814E-04   -0.19046E-04  6160   0.809E-02
  94 F= -.19137984E+03 E0= -.19127323E+03  d E =-.217480E-02
       N       E                     dE             d eps       ncg     rms          rms(c)
DAV:   1    -0.191378345353E+03    0.14816E-02   -0.41568E-01  8160   0.138E+00    0.166E-01
DAV:   2    -0.191382455661E+03   -0.41103E-02   -0.16242E-02 13600   0.635E-01    0.645E-01
DAV:   3    -0.191378763751E+03    0.36919E-02   -0.78391E-03 11160   0.580E-01    0.118E-01
DAV:   4    -0.191378802637E+03   -0.38886E-04   -0.65789E-04  8360   0.150E-01
  95 F= -.19137880E+03 E0= -.19127327E+03  d E =0.103616E-02
       N       E                     dE             d eps       ncg     rms          rms(c)
DAV:   1    -0.191383832895E+03   -0.50691E-02   -0.69564E-01  8160   0.178E+00    0.208E-01
DAV:   2    -0.191388968834E+03   -0.51359E-02   -0.25321E-02 13560   0.753E-01    0.683E-01
DAV:   3    -0.191384802582E+03    0.41663E-02   -0.10443E-02 11560   0.680E-01    0.193E-01
DAV:   4    -0.191384702325E+03    0.10026E-03   -0.15029E-03 10040   0.226E-01    0.162E-01
DAV:   5    -0.191384520913E+03    0.18141E-03   -0.98055E-04 10280   0.228E-01    0.123E-01
DAV:   6    -0.191384411685E+03    0.10923E-03   -0.42550E-04  8240   0.139E-01    0.785E-02
DAV:   7    -0.191384437524E+03   -0.25839E-04   -0.36232E-04  7600   0.136E-01
  96 F= -.19138444E+03 E0= -.19127781E+03  d E =-.563489E-02
       N       E                     dE             d eps       ncg     rms          rms(c)
DAV:   1    -0.191385832503E+03   -0.14208E-02   -0.48393E-02  8160   0.474E-01    0.618E-02
DAV:   2    -0.191386367647E+03   -0.53514E-03   -0.21642E-03 13520   0.232E-01    0.229E-01
DAV:   3    -0.191385885780E+03    0.48187E-03   -0.10564E-03  8560   0.213E-01    0.514E-02
DAV:   4    -0.191385890249E+03   -0.44685E-05   -0.90799E-05  5480   0.528E-02
  97 F= -.19138589E+03 E0= -.19127883E+03  d E =-.145272E-02
       N       E                     dE             d eps       ncg     rms          rms(c)
DAV:   1    -0.191391563604E+03   -0.56778E-02   -0.41726E-01  8160   0.137E+00    0.169E-01
DAV:   2    -0.191395591658E+03   -0.40281E-02   -0.15952E-02 13560   0.621E-01    0.637E-01
DAV:   3    -0.191392027801E+03    0.35639E-02   -0.78735E-03 11200   0.587E-01    0.136E-01
DAV:   4    -0.191391987814E+03    0.39987E-04   -0.70242E-04  9240   0.136E-01
  98 F= -.19139199E+03 E0= -.19128488E+03  d E =-.609757E-02
       N       E                     dE             d eps       ncg     rms          rms(c)
DAV:   1    -0.191384368794E+03    0.76590E-02   -0.60279E-01  8160   0.165E+00    0.193E-01
DAV:   2    -0.191391167350E+03   -0.67986E-02   -0.22185E-02 13560   0.856E-01    0.798E-01
DAV:   3    -0.191384934382E+03    0.62330E-02   -0.94120E-03 11400   0.735E-01    0.985E-02
DAV:   4    -0.191384924581E+03    0.98004E-05   -0.48948E-04  9560   0.927E-02
  99 F= -.19138492E+03 E0= -.19127791E+03  d E =0.706323E-02
       N       E                     dE             d eps       ncg     rms          rms(c)
DAV:   1    -0.191377395678E+03    0.75387E-02   -0.15527E+00  8160   0.263E+00    0.311E-01
DAV:   2    -0.191386881256E+03   -0.94856E-02   -0.45143E-02 13400   0.963E-01    0.948E-01
DAV:   3    -0.191378748859E+03    0.81324E-02   -0.19629E-02 11400   0.927E-01    0.275E-01
DAV:   4    -0.191378600078E+03    0.14878E-03   -0.29505E-03 10080   0.294E-01    0.225E-01
DAV:   5    -0.191378309439E+03    0.29064E-03   -0.23046E-03 11160   0.337E-01    0.208E-01
DAV:   6    -0.191378047289E+03    0.26215E-03   -0.13997E-03  9960   0.250E-01    0.124E-01
DAV:   7    -0.191378074509E+03   -0.27220E-04   -0.72527E-04  9720   0.198E-01
 100 F= -.19137807E+03 E0= -.19127183E+03  d E =0.685007E-02
