<?xml version="1.0" encoding="ISO-8859-1"?>
<modeling>
 <generator>
  <i name="program" type="string">vasp </i>
  <i name="version" type="string">5.4.1  </i>
  <i name="subversion" type="string">05Feb16 (build Jul 05 2020 17:13:04) complex                          parallel </i>
  <i name="platform" type="string">IFC91_ompi </i>
  <i name="date" type="string">2024 04 27 </i>
  <i name="time" type="string">12:31:49 </i>
 </generator>
 <incar>
  <i type="int" name="ISTART">     0</i>
  <i type="string" name="PREC">normal</i>
  <i type="string" name="ALGO"> Normal</i>
  <i type="int" name="ISPIN">     1</i>
  <i type="int" name="ICHARG">     2</i>
  <i type="int" name="IBRION">     1</i>
  <i type="int" name="NSW">   100</i>
  <i type="int" name="ISIF">     3</i>
  <i type="int" name="ISYM">     0</i>
  <i name="SYMPREC">      0.00000001</i>
  <i name="POTIM">      0.50000000</i>
  <i type="logical" name="LREAL"> F  </i>
  <i type="logical" name="LPLANE"> F  </i>
  <i type="int" name="ISMEAR">     0</i>
  <i type="logical" name="LWAVE"> F  </i>
  <i type="logical" name="LCHARG"> F  </i>
  <v type="int" name="KPOINT_BSE">    -1     0     0     0</v>
 </incar>
 <kpoints>
  <generation param="Gamma">
   <v type="int" name="divisions">       8        8        1 </v>
   <v name="usershift">      0.00000000       0.00000000       0.00000000 </v>
   <v name="genvec1">      0.12500000       0.00000000       0.00000000 </v>
   <v name="genvec2">     -0.00000000       0.12500000       0.00000000 </v>
   <v name="genvec3">      0.00000000       0.00000000       1.00000000 </v>
   <v name="shift">      0.00000000       0.00000000       0.00000000 </v>
  </generation>
  <varray name="kpointlist" >
   <v>       0.00000000       0.00000000       0.00000000 </v>
   <v>       0.12500000       0.00000000       0.00000000 </v>
   <v>       0.25000000       0.00000000       0.00000000 </v>
   <v>       0.37500000       0.00000000       0.00000000 </v>
   <v>       0.50000000       0.00000000       0.00000000 </v>
   <v>       0.00000000       0.12500000       0.00000000 </v>
   <v>       0.12500000       0.12500000       0.00000000 </v>
   <v>       0.25000000       0.12500000       0.00000000 </v>
   <v>       0.37500000       0.12500000       0.00000000 </v>
   <v>       0.50000000       0.12500000       0.00000000 </v>
   <v>      -0.37500000       0.12500000       0.00000000 </v>
   <v>      -0.25000000       0.12500000       0.00000000 </v>
   <v>      -0.12500000       0.12500000       0.00000000 </v>
   <v>       0.00000000       0.25000000       0.00000000 </v>
   <v>       0.12500000       0.25000000       0.00000000 </v>
   <v>       0.25000000       0.25000000       0.00000000 </v>
   <v>       0.37500000       0.25000000       0.00000000 </v>
   <v>       0.50000000       0.25000000       0.00000000 </v>
   <v>      -0.37500000       0.25000000       0.00000000 </v>
   <v>      -0.25000000       0.25000000       0.00000000 </v>
   <v>      -0.12500000       0.25000000       0.00000000 </v>
   <v>      -0.00000000       0.37500000       0.00000000 </v>
   <v>       0.12500000       0.37500000       0.00000000 </v>
   <v>       0.25000000       0.37500000       0.00000000 </v>
   <v>       0.37500000       0.37500000       0.00000000 </v>
   <v>       0.50000000       0.37500000       0.00000000 </v>
   <v>      -0.37500000       0.37500000       0.00000000 </v>
   <v>      -0.25000000       0.37500000       0.00000000 </v>
   <v>      -0.12500000       0.37500000       0.00000000 </v>
   <v>       0.00000000       0.50000000       0.00000000 </v>
   <v>       0.12500000       0.50000000       0.00000000 </v>
   <v>       0.25000000       0.50000000       0.00000000 </v>
   <v>       0.37500000       0.50000000       0.00000000 </v>
   <v>       0.50000000       0.50000000       0.00000000 </v>
  </varray>
  <varray name="weights" >
   <v>       0.01562500 </v>
   <v>       0.03125000 </v>
   <v>       0.03125000 </v>
   <v>       0.03125000 </v>
   <v>       0.01562500 </v>
   <v>       0.03125000 </v>
   <v>       0.03125000 </v>
   <v>       0.03125000 </v>
   <v>       0.03125000 </v>
   <v>       0.03125000 </v>
   <v>       0.03125000 </v>
   <v>       0.03125000 </v>
   <v>       0.03125000 </v>
   <v>       0.03125000 </v>
   <v>       0.03125000 </v>
   <v>       0.03125000 </v>
   <v>       0.03125000 </v>
   <v>       0.03125000 </v>
   <v>       0.03125000 </v>
   <v>       0.03125000 </v>
   <v>       0.03125000 </v>
   <v>       0.03125000 </v>
   <v>       0.03125000 </v>
   <v>       0.03125000 </v>
   <v>       0.03125000 </v>
   <v>       0.03125000 </v>
   <v>       0.03125000 </v>
   <v>       0.03125000 </v>
   <v>       0.03125000 </v>
   <v>       0.01562500 </v>
   <v>       0.03125000 </v>
   <v>       0.03125000 </v>
   <v>       0.03125000 </v>
   <v>       0.01562500 </v>
  </varray>
 </kpoints>
 <parameters>
  <separator name="general" >
   <i type="string" name="SYSTEM">unknown system</i>
   <i type="logical" name="LCOMPAT"> F  </i>
  </separator>
  <separator name="electronic" >
   <i type="string" name="PREC">normal</i>
   <i name="ENMAX">    280.00000000</i>
   <i name="ENAUG">    373.43800000</i>
   <i name="EDIFF">      0.00010000</i>
   <i type="int" name="IALGO">    38</i>
   <i type="int" name="IWAVPR">    11</i>
   <i type="int" name="NBANDS">   120</i>
   <i name="NELECT">    159.00000000</i>
   <i type="int" name="TURBO">     0</i>
   <i type="int" name="IRESTART">     0</i>
   <i type="int" name="NREBOOT">     0</i>
   <i type="int" name="NMIN">     0</i>
   <i name="EREF">      0.00000000</i>
   <separator name="electronic smearing" >
    <i type="int" name="ISMEAR">     0</i>
    <i name="SIGMA">      0.20000000</i>
    <i name="KSPACING">      0.50000000</i>
    <i type="logical" name="KGAMMA"> T  </i>
   </separator>
   <separator name="electronic projectors" >
    <i type="logical" name="LREAL"> F  </i>
    <v name="ROPT">      0.00000000      0.00000000      0.00000000      0.00000000</v>
    <i type="int" name="LMAXPAW">  -100</i>
    <i type="int" name="LMAXMIX">     2</i>
    <i type="logical" name="NLSPLINE"> F  </i>
   </separator>
   <separator name="electronic startup" >
    <i type="int" name="ISTART">     0</i>
    <i type="int" name="ICHARG">     2</i>
    <i type="int" name="INIWAV">     1</i>
   </separator>
   <separator name="electronic spin" >
    <i type="int" name="ISPIN">     1</i>
    <i type="logical" name="LNONCOLLINEAR"> F  </i>
    <v name="MAGMOM">      1.00000000      1.00000000      1.00000000      1.00000000      1.00000000      1.00000000      1.00000000      1.00000000      1.00000000      1.00000000      1.00000000      1.00000000      1.00000000      1.00000000      1.00000000      1.00000000      1.00000000      1.00000000      1.00000000      1.00000000
      1.00000000      1.00000000      1.00000000      1.00000000      1.00000000      1.00000000      1.00000000</v>
    <i name="NUPDOWN">     -1.00000000</i>
    <i type="logical" name="LSORBIT"> F  </i>
    <v name="SAXIS">      0.00000000      0.00000000      1.00000000</v>
    <i type="logical" name="LSPIRAL"> F  </i>
    <v name="QSPIRAL">      0.00000000      0.00000000      0.00000000</v>
    <i type="logical" name="LZEROZ"> F  </i>
   </separator>
   <separator name="electronic exchange-correlation" >
    <i type="logical" name="LASPH"> F  </i>
    <i type="logical" name="LMETAGGA"> F  </i>
   </separator>
   <separator name="electronic convergence" >
    <i type="int" name="NELM">    60</i>
    <i type="int" name="NELMDL">    -5</i>
    <i type="int" name="NELMIN">     2</i>
    <i name="ENINI">    280.00000000</i>
    <separator name="electronic convergence detail" >
     <i type="logical" name="LDIAG"> T  </i>
     <i type="logical" name="LSUBROT"> F  </i>
     <i name="WEIMIN">      0.00100000</i>
     <i name="EBREAK">      0.00000021</i>
     <i name="DEPER">      0.30000000</i>
     <i type="int" name="NRMM">     4</i>
     <i name="TIME">      0.40000000</i>
    </separator>
   </separator>
   <separator name="electronic mixer" >
    <i name="AMIX">      0.40000000</i>
    <i name="BMIX">      1.00000000</i>
    <i name="AMIN">      0.10000000</i>
    <i name="AMIX_MAG">      1.60000000</i>
    <i name="BMIX_MAG">      1.00000000</i>
    <separator name="electronic mixer details" >
     <i type="int" name="IMIX">     4</i>
     <i type="logical" name="MIXFIRST"> F  </i>
     <i type="int" name="MAXMIX">   -45</i>
     <i name="WC">    100.00000000</i>
     <i type="int" name="INIMIX">     1</i>
     <i type="int" name="MIXPRE">     1</i>
     <i type="int" name="MREMOVE">     5</i>
    </separator>
   </separator>
   <separator name="electronic dipolcorrection" >
    <i type="logical" name="LDIPOL"> F  </i>
    <i type="logical" name="LMONO"> F  </i>
    <i type="int" name="IDIPOL">     0</i>
    <i name="EPSILON">      1.00000000</i>
    <v name="DIPOL">   -100.00000000   -100.00000000   -100.00000000</v>
    <i name="EFIELD">      0.00000000</i>
   </separator>
  </separator>
  <separator name="grids" >
   <i type="int" name="NGX">    42</i>
   <i type="int" name="NGY">    42</i>
   <i type="int" name="NGZ">   126</i>
   <i type="int" name="NGXF">    84</i>
   <i type="int" name="NGYF">    84</i>
   <i type="int" name="NGZF">   252</i>
   <i type="logical" name="ADDGRID"> F  </i>
  </separator>
  <separator name="ionic" >
   <i type="int" name="NSW">   100</i>
   <i type="int" name="IBRION">     1</i>
   <i type="int" name="ISIF">     3</i>
   <i name="PSTRESS">      0.00000000</i>
   <i name="EDIFFG">      0.00100000</i>
   <i type="int" name="NFREE">     0</i>
   <i name="POTIM">      0.50000000</i>
   <i name="SMASS">     -3.00000000</i>
   <i name="SCALEE">      1.00000000</i>
  </separator>
  <separator name="ionic md" >
   <i name="TEBEG">      0.00010000</i>
   <i name="TEEND">      0.00010000</i>
   <i type="int" name="NBLOCK">     1</i>
   <i type="int" name="KBLOCK">   100</i>
   <i type="int" name="NPACO">   256</i>
   <i name="APACO">     16.00000000</i>
  </separator>
  <separator name="symmetry" >
   <i type="int" name="ISYM">     0</i>
   <i name="SYMPREC">      0.00000001</i>
  </separator>
  <separator name="dos" >
   <i type="logical" name="LORBIT"> F  </i>
   <v name="RWIGS">     -1.00000000     -1.00000000     -1.00000000     -1.00000000</v>
   <i type="int" name="NEDOS">   301</i>
   <i name="EMIN">     10.00000000</i>
   <i name="EMAX">    -10.00000000</i>
   <i name="EFERMI">      0.00000000</i>
  </separator>
  <separator name="writing" >
   <i type="int" name="NWRITE">     2</i>
   <i type="logical" name="LWAVE"> F  </i>
   <i type="logical" name="LCHARG"> F  </i>
   <i type="logical" name="LPARD"> F  </i>
   <i type="logical" name="LVTOT"> F  </i>
   <i type="logical" name="LVHAR"> F  </i>
   <i type="logical" name="LELF"> F  </i>
   <i type="logical" name="LOPTICS"> F  </i>
   <v name="STM">      0.00000000      0.00000000      0.00000000      0.00000000      0.00000000      0.00000000      0.00000000</v>
  </separator>
  <separator name="performance" >
   <i type="int" name="NPAR">    40</i>
   <i type="int" name="NSIM">     4</i>
   <i type="int" name="NBLK">    -1</i>
   <i type="logical" name="LPLANE"> F  </i>
   <i type="logical" name="LSCALAPACK"> T  </i>
   <i type="logical" name="LSCAAWARE"> F  </i>
   <i type="logical" name="LSCALU"> F  </i>
   <i type="logical" name="LASYNC"> F  </i>
   <i type="logical" name="LORBITALREAL"> F  </i>
  </separator>
  <separator name="miscellaneous" >
   <i type="int" name="IDIOT">     3</i>
   <i type="logical" name="LMUSIC"> F  </i>
   <v name="POMASS">     50.94100000     95.94000000    183.85000000     32.06600000</v>
   <v name="DARWINR">      0.00000000      0.00000000      0.00000000      0.00000000</v>
   <v name="DARWINV">      1.00000000      1.00000000      1.00000000      1.00000000</v>
   <i type="logical" name="LCORR"> T  </i>
  </separator>
  <i type="logical" name="GGA_COMPAT"> T  </i>
  <i type="logical" name="LBERRY"> F  </i>
  <i type="int" name="ICORELEVEL">     0</i>
  <i type="logical" name="LDAU"> F  </i>
  <i type="int" name="I_CONSTRAINED_M">     0</i>
  <separator name="electronic exchange-correlation" >
   <i type="string" name="GGA">--</i>
   <i type="int" name="VOSKOWN">     0</i>
   <i type="logical" name="LHFCALC"> F  </i>
   <i type="string" name="PRECFOCK"></i>
   <i type="logical" name="LSYMGRAD"> F  </i>
   <i type="logical" name="LHFONE"> F  </i>
   <i type="logical" name="LRHFCALC"> F  </i>
   <i type="logical" name="LTHOMAS"> F  </i>
   <i type="logical" name="LMODELHF"> F  </i>
   <i name="ENCUT4O">     -1.00000000</i>
   <i type="int" name="EXXOEP">     0</i>
   <i type="int" name="FOURORBIT">     0</i>
   <i name="AEXX">      0.00000000</i>
   <i name="HFALPHA">      0.00000000</i>
   <i name="MCALPHA">      0.00000000</i>
   <i name="ALDAX">      1.00000000</i>
   <i name="AGGAX">      1.00000000</i>
   <i name="ALDAC">      1.00000000</i>
   <i name="AGGAC">      1.00000000</i>
   <i type="int" name="NKREDX">     1</i>
   <i type="int" name="NKREDY">     1</i>
   <i type="int" name="NKREDZ">     1</i>
   <i type="logical" name="SHIFTRED"> F  </i>
   <i type="logical" name="ODDONLY"> F  </i>
   <i type="logical" name="EVENONLY"> F  </i>
   <i type="int" name="LMAXFOCK">     0</i>
   <i type="int" name="NMAXFOCKAE">     0</i>
   <i type="logical" name="LFOCKAEDFT"> F  </i>
   <i name="HFSCREEN">      0.00000000</i>
   <i name="HFSCREENC">      0.00000000</i>
   <i type="int" name="NBANDSGWLOW">     0</i>
  </separator>
  <separator name="vdW DFT" >
   <i type="logical" name="LUSE_VDW"> F  </i>
   <i name="Zab_VDW">     -0.84910000</i>
   <i name="PARAM1">      0.12340000</i>
   <i name="PARAM2">      1.00000000</i>
   <i name="PARAM3">      0.00000000</i>
  </separator>
  <separator name="model GW" >
   <i type="int" name="MODEL_GW">     0</i>
   <i name="MODEL_EPS0">     58.26239943</i>
   <i name="MODEL_ALPHA">      1.00000000</i>
  </separator>
  <separator name="linear response parameters" >
   <i type="logical" name="LEPSILON"> F  </i>
   <i type="logical" name="LRPA"> F  </i>
   <i type="logical" name="LNABLA"> F  </i>
   <i type="logical" name="LVEL"> F  </i>
   <i type="int" name="KINTER">     0</i>
   <i name="CSHIFT">      0.10000000</i>
   <i name="OMEGAMAX">     -1.00000000</i>
   <i name="DEG_THRESHOLD">      0.00200000</i>
  </separator>
  <separator name="orbital magnetization" >
   <i type="logical" name="NUCIND"> F  </i>
   <v name="MAGPOS">      0.00000000      0.00000000      0.00000000</v>
   <i type="logical" name="LNICSALL"> T  </i>
   <i type="logical" name="ORBITALMAG"> F  </i>
   <i type="logical" name="LMAGBLOCH"> F  </i>
   <i type="logical" name="LCHIMAG"> F  </i>
   <i type="logical" name="LGAUGE"> T  </i>
   <i type="int" name="MAGATOM">     0</i>
   <v name="MAGDIPOL">      0.00000000      0.00000000      0.00000000</v>
   <v name="AVECCONST">      0.00000000      0.00000000      0.00000000</v>
  </separator>
  <separator name="response functions" >
   <i type="logical" name="LADDER"> F  </i>
   <i type="logical" name="LFXC"> F  </i>
   <i type="logical" name="LHARTREE"> T  </i>
   <i type="int" name="IBSE">     0</i>
   <v type="int" name="KPOINT">    -1     0     0     0</v>
   <i type="logical" name="LTCTE"> F  </i>
   <i type="logical" name="LTETE"> F  </i>
   <i type="logical" name="LTRIPLET"> F  </i>
   <i type="logical" name="LFXCEPS"> F  </i>
   <i type="logical" name="LFXHEG"> F  </i>
   <i type="int" name="NATURALO">     0</i>
   <i type="logical" name="L2ORDER"> F  </i>
   <i type="logical" name="LUSEW"> F  </i>
   <i name="ENCUTGW">     -2.00000000</i>
   <i name="ENCUTGWSOFT">     -2.00000000</i>
   <i name="ENCUTLF">     -1.00000000</i>
   <i type="int" name="LMAXMP2">    -1</i>
   <i name="SCISSOR">      0.00000000</i>
   <i type="int" name="NOMEGA">     0</i>
   <i type="int" name="NOMEGAR">     0</i>
   <i type="int" name="NBANDSGW">    -1</i>
   <i type="int" name="NBANDSO">    -1</i>
   <i type="int" name="NBANDSV">    -1</i>
   <i type="int" name="NELM">     1</i>
   <i type="int" name="NELMHF">     1</i>
   <i type="int" name="DIM">     3</i>
   <i type="int" name="ANTIRES">     0</i>
   <i name="OMEGAMAX">    -30.00000000</i>
   <i name="OMEGAMIN">    -30.00000000</i>
   <i name="OMEGATL">   -200.00000000</i>
   <i type="int" name="OMEGAGRID">     0</i>
   <i name="CSHIFT">     -0.10000000</i>
   <i type="logical" name="SELFENERGY"> F  </i>
   <i type="logical" name="LSPECTRAL"> F  </i>
   <i type="logical" name="LSPECTRALGW"> F  </i>
   <i type="logical" name="LSINGLES"> F  </i>
   <i type="logical" name="LFERMIGW"> F  </i>
   <i type="logical" name="ODDONLYGW"> F  </i>
   <i type="logical" name="EVENONLYGW"> F  </i>
   <i type="int" name="NKREDLFX">     1</i>
   <i type="int" name="NKREDLFY">     1</i>
   <i type="int" name="NKREDLFZ">     1</i>
   <i type="int" name="MAXMEM">  1800</i>
   <i type="int" name="TELESCOPE">     0</i>
   <i type="int" name="TAUPAR">     1</i>
   <i type="int" name="OMEGAPAR">    -1</i>
   <i name="LAMBDA">      1.00000000</i>
  </separator>
  <separator name="External order field" >
   <i name="OFIELD_KAPPA">      0.00000000</i>
   <v name="OFIELD_K">      0.00000000      0.00000000      0.00000000</v>
   <i name="OFIELD_Q6_NEAR">      0.00000000</i>
   <i name="OFIELD_Q6_FAR">      0.00000000</i>
   <i name="OFIELD_A">      0.00000000</i>
  </separator>
 </parameters>
 <atominfo>
  <atoms>      27 </atoms>
  <types>       4 </types>
  <array name="atoms" >
   <dimension dim="1">ion</dimension>
   <field type="string">element</field>
   <field type="int">atomtype</field>
   <set>
    <rc><c>V </c><c>   1</c></rc>
    <rc><c>V </c><c>   1</c></rc>
    <rc><c>V </c><c>   1</c></rc>
    <rc><c>Mo</c><c>   2</c></rc>
    <rc><c>Mo</c><c>   2</c></rc>
    <rc><c>Mo</c><c>   2</c></rc>
    <rc><c>W </c><c>   3</c></rc>
    <rc><c>W </c><c>   3</c></rc>
    <rc><c>W </c><c>   3</c></rc>
    <rc><c>S </c><c>   4</c></rc>
    <rc><c>S </c><c>   4</c></rc>
    <rc><c>S </c><c>   4</c></rc>
    <rc><c>S </c><c>   4</c></rc>
    <rc><c>S </c><c>   4</c></rc>
    <rc><c>S </c><c>   4</c></rc>
    <rc><c>S </c><c>   4</c></rc>
    <rc><c>S </c><c>   4</c></rc>
    <rc><c>S </c><c>   4</c></rc>
    <rc><c>S </c><c>   4</c></rc>
    <rc><c>S </c><c>   4</c></rc>
    <rc><c>S </c><c>   4</c></rc>
    <rc><c>S </c><c>   4</c></rc>
    <rc><c>S </c><c>   4</c></rc>
    <rc><c>S </c><c>   4</c></rc>
    <rc><c>S </c><c>   4</c></rc>
    <rc><c>S </c><c>   4</c></rc>
    <rc><c>S </c><c>   4</c></rc>
   </set>
  </array>
  <array name="atomtypes" >
   <dimension dim="1">type</dimension>
   <field type="int">atomspertype</field>
   <field type="string">element</field>
   <field>mass</field>
   <field>valence</field>
   <field type="string">pseudopotential</field>
   <set>
    <rc><c>   3</c><c>V </c><c>     50.94100000</c><c>      5.00000000</c><c> PAW_PBE V 08Apr2002                    </c></rc>
    <rc><c>   3</c><c>Mo</c><c>     95.94000000</c><c>      6.00000000</c><c> PAW_PBE Mo 08Apr2002                   </c></rc>
    <rc><c>   3</c><c>W </c><c>    183.85000000</c><c>      6.00000000</c><c> PAW_PBE W 08Apr2002                    </c></rc>
    <rc><c>  18</c><c>S </c><c>     32.06600000</c><c>      6.00000000</c><c>  PAW_PBE S 17Jan2003                   </c></rc>
   </set>
  </array>
 </atominfo>
 <structure name="initialpos" >
  <crystal>
   <varray name="basis" >
    <v>       8.66999996       5.03999989       0.00000000 </v>
    <v>      -8.66999982       5.04000013       0.00000000 </v>
    <v>       0.00000000       0.00000000      30.00000000 </v>
   </varray>
   <i name="volume">   2621.80797419 </i>
   <varray name="rec_basis" >
    <v>       0.05767013       0.09920635       0.00000000 </v>
    <v>      -0.05767013       0.09920635       0.00000000 </v>
    <v>       0.00000000       0.00000000       0.03333333 </v>
   </varray>
  </crystal>
  <varray name="positions" >
   <v>       0.66666669       0.66666669       0.00000000 </v>
   <v>       1.00000000       0.33333334       0.00000000 </v>
   <v>       0.66666669       0.33333334       0.00000000 </v>
   <v>       0.00000000       0.66666669       0.00000000 </v>
   <v>       0.33333334       0.00000000       0.00000000 </v>
   <v>       0.66666669       0.00000000       0.00000000 </v>
   <v>       0.00000000       0.00000000       0.00000000 </v>
   <v>       0.33333334       0.33333334       0.00000000 </v>
   <v>       0.33333334       0.66666669       0.00000000 </v>
   <v>       0.11068511       0.22244981       0.95539999 </v>
   <v>       0.22244981       0.11068511       0.04460000 </v>
   <v>       0.11068511       0.55578315       0.95539999 </v>
   <v>       0.22244981       0.44401845       0.04460000 </v>
   <v>       0.11068511       0.88911647       0.95539999 </v>
   <v>       0.22244981       0.77735180       0.04460000 </v>
   <v>       0.44401845       0.22244981       0.95539999 </v>
   <v>       0.55578315       0.11068511       0.04460000 </v>
   <v>       0.44401845       0.55578315       0.95539999 </v>
   <v>       0.55578315       0.44401845       0.04460000 </v>
   <v>       0.44401845       0.88911647       0.95539999 </v>
   <v>       0.55578315       0.77735180       0.04460000 </v>
   <v>       0.77735180       0.22244981       0.95539999 </v>
   <v>       0.88911647       0.11068511       0.04460000 </v>
   <v>       0.77735180       0.55578315       0.95539999 </v>
   <v>       0.88911647       0.44401845       0.04460000 </v>
   <v>       0.77735180       0.88911647       0.95539999 </v>
   <v>       0.88911647       0.77735180       0.04460000 </v>
  </varray>
 </structure>
 <calculation>
  <scstep>
   <time name="dav">   21.65   21.71</time>
   <time name="total">   21.70   21.76</time>
   <energy>
    <i name="alphaZ">     81.65567618 </i>
    <i name="ewald">  41890.25210247 </i>
    <i name="hartreedc"> -47722.88714679 </i>
    <i name="XCdc">   -242.92853606 </i>
    <i name="pawpsdc">   3467.42045192 </i>
    <i name="pawaedc">  -2871.19716117 </i>
    <i name="eentropy">     -0.53714279 </i>
    <i name="bandstr">   -239.74824324 </i>
    <i name="atom">   6761.44252427 </i>
    <i name="e_fr_energy">   1123.47252479 </i>
    <i name="e_wo_entrp">   1124.00966758 </i>
    <i name="e_0_energy">   1123.74109618 </i>
   </energy>
  </scstep>
  <scstep>
   <time name="dav">   28.37   28.44</time>
   <time name="total">   28.37   28.45</time>
   <energy>
    <i name="e_fr_energy">     -4.80067491 </i>
    <i name="e_wo_entrp">     -4.59825421 </i>
    <i name="e_0_energy">     -4.69946456 </i>
   </energy>
  </scstep>
  <scstep>
   <time name="dav">   27.40   27.47</time>
   <time name="total">   27.40   27.48</time>
   <energy>
    <i name="e_fr_energy">   -199.90270353 </i>
    <i name="e_wo_entrp">   -199.62050066 </i>
    <i name="e_0_energy">   -199.76160210 </i>
   </energy>
  </scstep>
  <scstep>
   <time name="dav">   30.44   30.52</time>
   <time name="total">   30.44   30.53</time>
   <energy>
    <i name="e_fr_energy">   -208.99433212 </i>
    <i name="e_wo_entrp">   -208.67612365 </i>
    <i name="e_0_energy">   -208.83522788 </i>
   </energy>
  </scstep>
  <scstep>
   <time name="dav">   28.17   28.24</time>
   <time name="total">   28.63   28.71</time>
   <energy>
    <i name="e_fr_energy">   -209.28822144 </i>
    <i name="e_wo_entrp">   -208.97284367 </i>
    <i name="e_0_energy">   -209.13053256 </i>
   </energy>
  </scstep>
  <scstep>
   <time name="dav">   30.98   31.06</time>
   <time name="total">   31.48   31.57</time>
   <energy>
    <i name="e_fr_energy">   -236.74837520 </i>
    <i name="e_wo_entrp">   -236.46132572 </i>
    <i name="e_0_energy">   -236.60485046 </i>
   </energy>
  </scstep>
  <scstep>
   <time name="dav">   32.59   32.67</time>
   <time name="total">   33.10   33.19</time>
   <energy>
    <i name="e_fr_energy">   -196.69532299 </i>
    <i name="e_wo_entrp">   -196.37509678 </i>
    <i name="e_0_energy">   -196.53520988 </i>
   </energy>
  </scstep>
  <scstep>
   <time name="dav">   28.96   29.03</time>
   <time name="total">   29.47   29.55</time>
   <energy>
    <i name="e_fr_energy">   -190.04475980 </i>
    <i name="e_wo_entrp">   -189.77137643 </i>
    <i name="e_0_energy">   -189.90806811 </i>
   </energy>
  </scstep>
  <scstep>
   <time name="dav">   29.75   29.82</time>
   <time name="total">   30.27   30.35</time>
   <energy>
    <i name="e_fr_energy">   -188.24875605 </i>
    <i name="e_wo_entrp">   -187.91047252 </i>
    <i name="e_0_energy">   -188.07961429 </i>
   </energy>
  </scstep>
  <scstep>
   <time name="dav">   32.45   32.53</time>
   <time name="total">   32.98   33.07</time>
   <energy>
    <i name="e_fr_energy">   -187.06014830 </i>
    <i name="e_wo_entrp">   -186.71683166 </i>
    <i name="e_0_energy">   -186.88848998 </i>
   </energy>
  </scstep>
  <scstep>
   <time name="dav">   31.46   31.53</time>
   <time name="total">   31.99   32.07</time>
   <energy>
    <i name="e_fr_energy">   -187.00125302 </i>
    <i name="e_wo_entrp">   -186.64995722 </i>
    <i name="e_0_energy">   -186.82560512 </i>
   </energy>
  </scstep>
  <scstep>
   <time name="dav">   31.05   31.13</time>
   <time name="total">   31.58   31.67</time>
   <energy>
    <i name="e_fr_energy">   -187.12754698 </i>
    <i name="e_wo_entrp">   -186.79402191 </i>
    <i name="e_0_energy">   -186.96078445 </i>
   </energy>
  </scstep>
  <scstep>
   <time name="dav">   31.79   31.87</time>
   <time name="total">   32.33   32.42</time>
   <energy>
    <i name="e_fr_energy">   -186.91439969 </i>
    <i name="e_wo_entrp">   -186.57737633 </i>
    <i name="e_0_energy">   -186.74588801 </i>
   </energy>
  </scstep>
  <scstep>
   <time name="dav">   31.71   31.79</time>
   <time name="total">   32.25   32.34</time>
   <energy>
    <i name="e_fr_energy">   -186.90178093 </i>
    <i name="e_wo_entrp">   -186.55898372 </i>
    <i name="e_0_energy">   -186.73038233 </i>
   </energy>
  </scstep>
  <scstep>
   <time name="dav">   30.93   31.00</time>
   <time name="total">   31.46   31.55</time>
   <energy>
    <i name="e_fr_energy">   -186.87294838 </i>
    <i name="e_wo_entrp">   -186.52674129 </i>
    <i name="e_0_energy">   -186.69984483 </i>
   </energy>
  </scstep>
  <scstep>
   <time name="dav">   30.15   30.22</time>
   <time name="total">   30.68   30.76</time>
   <energy>
    <i name="e_fr_energy">   -186.86835936 </i>
    <i name="e_wo_entrp">   -186.52273401 </i>
    <i name="e_0_energy">   -186.69554668 </i>
   </energy>
  </scstep>
  <scstep>
   <time name="dav">   31.23   31.31</time>
   <time name="total">   31.77   31.85</time>
   <energy>
    <i name="e_fr_energy">   -186.86602650 </i>
    <i name="e_wo_entrp">   -186.52214537 </i>
    <i name="e_0_energy">   -186.69408593 </i>
   </energy>
  </scstep>
  <scstep>
   <time name="dav">   28.76   28.83</time>
   <time name="total">   29.30   29.38</time>
   <energy>
    <i name="e_fr_energy">   -186.86547415 </i>
    <i name="e_wo_entrp">   -186.52156726 </i>
    <i name="e_0_energy">   -186.69352070 </i>
   </energy>
  </scstep>
  <scstep>
   <time name="dav">   25.71   25.77</time>
   <time name="total">   26.24   26.32</time>
   <energy>
    <i name="e_fr_energy">   -186.86529916 </i>
    <i name="e_wo_entrp">   -186.52112453 </i>
    <i name="e_0_energy">   -186.69321184 </i>
   </energy>
  </scstep>
  <scstep>
   <time name="dav">   23.66   23.72</time>
   <time name="total">   24.19   24.26</time>
   <energy>
    <i name="e_fr_energy">   -186.86613124 </i>
    <i name="e_wo_entrp">   -186.52212829 </i>
    <i name="e_0_energy">   -186.69412977 </i>
   </energy>
  </scstep>
  <scstep>
   <time name="dav">   21.98   22.03</time>
   <time name="total">   22.51   22.57</time>
   <energy>
    <i name="e_fr_energy">   -186.86676630 </i>
    <i name="e_wo_entrp">   -186.52286979 </i>
    <i name="e_0_energy">   -186.69481804 </i>
   </energy>
  </scstep>
  <scstep>
   <time name="dav">   20.36   20.41</time>
   <time name="total">   20.89   20.95</time>
   <energy>
    <i name="e_fr_energy">   -186.86784622 </i>
    <i name="e_wo_entrp">   -186.52380363 </i>
    <i name="e_0_energy">   -186.69582492 </i>
   </energy>
  </scstep>
  <scstep>
   <time name="dav">   20.56   20.61</time>
   <time name="total">   21.09   21.15</time>
   <energy>
    <i name="e_fr_energy">   -186.86900542 </i>
    <i name="e_wo_entrp">   -186.52508836 </i>
    <i name="e_0_energy">   -186.69704689 </i>
   </energy>
  </scstep>
  <scstep>
   <time name="dav">   18.63   18.68</time>
   <time name="total">   19.17   19.22</time>
   <energy>
    <i name="e_fr_energy">   -186.86960007 </i>
    <i name="e_wo_entrp">   -186.52564092 </i>
    <i name="e_0_energy">   -186.69762050 </i>
   </energy>
  </scstep>
  <scstep>
   <time name="dav">   16.51   16.55</time>
   <time name="total">   17.04   17.09</time>
   <energy>
    <i name="e_fr_energy">   -186.86995294 </i>
    <i name="e_wo_entrp">   -186.52597249 </i>
    <i name="e_0_energy">   -186.69796271 </i>
   </energy>
  </scstep>
  <scstep>
   <time name="dav">   18.80   18.84</time>
   <time name="total">   19.33   19.39</time>
   <energy>
    <i name="e_fr_energy">   -186.87019914 </i>
    <i name="e_wo_entrp">   -186.52623537 </i>
    <i name="e_0_energy">   -186.69821725 </i>
   </energy>
  </scstep>
  <scstep>
   <time name="dav">   19.84   19.89</time>
   <time name="total">   19.87   19.93</time>
   <energy>
    <i name="alphaZ">     81.65567618 </i>
    <i name="ewald">  41890.25210247 </i>
    <i name="hartreedc"> -47833.01517793 </i>
    <i name="XCdc">   -231.60443294 </i>
    <i name="pawpsdc">   4192.12203437 </i>
    <i name="pawaedc">  -3610.13614977 </i>
    <i name="eentropy">     -0.34396944 </i>
    <i name="bandstr">  -1437.24289523 </i>
    <i name="atom">   6761.44252427 </i>
    <i name="e_fr_energy">   -186.87028802 </i>
    <i name="e_wo_entrp">   -186.52631858 </i>
    <i name="e_0_energy">   -186.69830330 </i>
   </energy>
  </scstep>
  <structure>
   <crystal>
    <varray name="basis" >
     <v>       8.66999996       5.03999989       0.00000000 </v>
     <v>      -8.66999982       5.04000013       0.00000000 </v>
     <v>       0.00000000       0.00000000      30.00000000 </v>
    </varray>
    <i name="volume">   2621.80797419 </i>
    <varray name="rec_basis" >
     <v>       0.05767013       0.09920635       0.00000000 </v>
     <v>      -0.05767013       0.09920635       0.00000000 </v>
     <v>       0.00000000       0.00000000       0.03333333 </v>
    </varray>
   </crystal>
   <varray name="positions" >
    <v>       0.66666669       0.66666669       0.00000000 </v>
    <v>       1.00000000       0.33333334       0.00000000 </v>
    <v>       0.66666669       0.33333334       0.00000000 </v>
    <v>       0.00000000       0.66666669       0.00000000 </v>
    <v>       0.33333334       0.00000000       0.00000000 </v>
    <v>       0.66666669       0.00000000       0.00000000 </v>
    <v>       0.00000000       0.00000000       0.00000000 </v>
    <v>       0.33333334       0.33333334       0.00000000 </v>
    <v>       0.33333334       0.66666669       0.00000000 </v>
    <v>       0.11068511       0.22244981       0.95539999 </v>
    <v>       0.22244981       0.11068511       0.04460000 </v>
    <v>       0.11068511       0.55578315       0.95539999 </v>
    <v>       0.22244981       0.44401845       0.04460000 </v>
    <v>       0.11068511       0.88911647       0.95539999 </v>
    <v>       0.22244981       0.77735180       0.04460000 </v>
    <v>       0.44401845       0.22244981       0.95539999 </v>
    <v>       0.55578315       0.11068511       0.04460000 </v>
    <v>       0.44401845       0.55578315       0.95539999 </v>
    <v>       0.55578315       0.44401845       0.04460000 </v>
    <v>       0.44401845       0.88911647       0.95539999 </v>
    <v>       0.55578315       0.77735180       0.04460000 </v>
    <v>       0.77735180       0.22244981       0.95539999 </v>
    <v>       0.88911647       0.11068511       0.04460000 </v>
    <v>       0.77735180       0.55578315       0.95539999 </v>
    <v>       0.88911647       0.44401845       0.04460000 </v>
    <v>       0.77735180       0.88911647       0.95539999 </v>
    <v>       0.88911647       0.77735180       0.04460000 </v>
   </varray>
  </structure>
  <varray name="forces" >
   <v>       0.08762523       0.20310935       0.05930252 </v>
   <v>      -0.28465128      -0.14693066      -0.07178931 </v>
   <v>       0.21482179      -0.02585047      -0.01891380 </v>
   <v>      -0.00069430       0.19285232      -0.04255648 </v>
   <v>       0.26444675      -0.13116476       0.01962511 </v>
   <v>      -0.30159833      -0.14175320       0.02302528 </v>
   <v>       0.23657421      -0.18568677      -0.10173397 </v>
   <v>       0.33147031      -0.10021041       0.02400016 </v>
   <v>      -0.55341996       0.31004445       0.12761251 </v>
   <v>      -0.62483016      -0.00789865      -2.15140798 </v>
   <v>      -0.25585397       0.01498348       2.88649120 </v>
   <v>       0.62710708      -0.58473445      -2.15721981 </v>
   <v>      -0.46177028      -0.55409923       2.11367630 </v>
   <v>      -0.06707728       0.02092399      -2.90394725 </v>
   <v>       0.06819717       0.00951881       2.94682428 </v>
   <v>       0.35684754       0.68867991      -2.15865230 </v>
   <v>      -0.52035869       0.69016327       2.15327081 </v>
   <v>       0.47785788       0.56318472      -2.11076493 </v>
   <v>       0.21696266       0.53342438       1.43896307 </v>
   <v>       0.19729516      -0.13168572      -2.93689625 </v>
   <v>       0.68980350      -0.16975193       2.12738979 </v>
   <v>      -0.31739117       0.68777223      -1.45241125 </v>
   <v>      -0.37522769       0.69609267       2.11006699 </v>
   <v>      -0.31771945      -0.65991129      -1.39192597 </v>
   <v>       0.31830955      -0.66639573       1.41834139 </v>
   <v>       0.61455400      -0.52470283      -2.13486745 </v>
   <v>      -0.62128030      -0.57997348       2.18449733 </v>
  </varray>
  <varray name="stress" >
   <v>       7.27481490      -0.08344759      -1.54064680 </v>
   <v>      -0.08344780       4.49015342      -0.06345915 </v>
   <v>      -1.54064681      -0.06345937      30.29567396 </v>
  </varray>
  <energy>
   <i name="e_fr_energy">   -186.87028802 </i>
   <i name="e_wo_entrp">   -186.69830330 </i>
   <i name="e_0_energy">     -0.34396944 </i>
  </energy>
  <time name="totalsc">  777.60  779.69</time>
 </calculation>
 <calculation>
  <scstep>
   <time name="dav">   21.63   21.68</time>
   <time name="total">   22.17   22.23</time>
   <energy>
    <i name="alphaZ">     78.91889468 </i>
    <i name="ewald">  39378.82092794 </i>
    <i name="hartreedc"> -45336.29196826 </i>
    <i name="XCdc">   -239.06307742 </i>
    <i name="pawpsdc">   4192.10173163 </i>
    <i name="pawaedc">  -3610.11600184 </i>
    <i name="eentropy">     -0.28587386 </i>
    <i name="bandstr">  -1413.03406353 </i>
    <i name="atom">   6761.44252427 </i>
    <i name="e_fr_energy">   -187.50690639 </i>
    <i name="e_wo_entrp">   -187.22103253 </i>
    <i name="e_0_energy">   -187.36396946 </i>
   </energy>
  </scstep>
  <scstep>
   <time name="dav">   30.22   30.29</time>
   <time name="total">   30.75   30.83</time>
   <energy>
    <i name="e_fr_energy">   -189.39289861 </i>
    <i name="e_wo_entrp">   -189.06548238 </i>
    <i name="e_0_energy">   -189.22919049 </i>
   </energy>
  </scstep>
  <scstep>
   <time name="dav">   30.12   30.19</time>
   <time name="total">   30.67   30.75</time>
   <energy>
    <i name="e_fr_energy">   -189.40167103 </i>
    <i name="e_wo_entrp">   -189.12164403 </i>
    <i name="e_0_energy">   -189.26165753 </i>
   </energy>
  </scstep>
  <scstep>
   <time name="dav">   30.38   30.45</time>
   <time name="total">   30.93   31.01</time>
   <energy>
    <i name="e_fr_energy">   -188.78493250 </i>
    <i name="e_wo_entrp">   -188.50053803 </i>
    <i name="e_0_energy">   -188.64273526 </i>
   </energy>
  </scstep>
  <scstep>
   <time name="dav">   28.09   28.15</time>
   <time name="total">   28.63   28.71</time>
   <energy>
    <i name="e_fr_energy">   -188.89358794 </i>
    <i name="e_wo_entrp">   -188.60228793 </i>
    <i name="e_0_energy">   -188.74793794 </i>
   </energy>
  </scstep>
  <scstep>
   <time name="dav">   30.99   31.07</time>
   <time name="total">   31.54   31.62</time>
   <energy>
    <i name="e_fr_energy">   -188.75879378 </i>
    <i name="e_wo_entrp">   -188.47149212 </i>
    <i name="e_0_energy">   -188.61514295 </i>
   </energy>
  </scstep>
  <scstep>
   <time name="dav">   29.02   29.09</time>
   <time name="total">   29.57   29.65</time>
   <energy>
    <i name="e_fr_energy">   -188.71186337 </i>
    <i name="e_wo_entrp">   -188.42619989 </i>
    <i name="e_0_energy">   -188.56903163 </i>
   </energy>
  </scstep>
  <scstep>
   <time name="dav">   31.52   31.59</time>
   <time name="total">   32.07   32.15</time>
   <energy>
    <i name="e_fr_energy">   -188.71112139 </i>
    <i name="e_wo_entrp">   -188.42660607 </i>
    <i name="e_0_energy">   -188.56886373 </i>
   </energy>
  </scstep>
  <scstep>
   <time name="dav">   29.86   29.93</time>
   <time name="total">   30.41   30.49</time>
   <energy>
    <i name="e_fr_energy">   -188.68045235 </i>
    <i name="e_wo_entrp">   -188.39673277 </i>
    <i name="e_0_energy">   -188.53859256 </i>
   </energy>
  </scstep>
  <scstep>
   <time name="dav">   28.02   28.09</time>
   <time name="total">   28.57   28.64</time>
   <energy>
    <i name="e_fr_energy">   -188.67759398 </i>
    <i name="e_wo_entrp">   -188.39384060 </i>
    <i name="e_0_energy">   -188.53571729 </i>
   </energy>
  </scstep>
  <scstep>
   <time name="dav">   31.60   31.68</time>
   <time name="total">   32.15   32.23</time>
   <energy>
    <i name="e_fr_energy">   -188.67715324 </i>
    <i name="e_wo_entrp">   -188.39398610 </i>
    <i name="e_0_energy">   -188.53556967 </i>
   </energy>
  </scstep>
  <scstep>
   <time name="dav">   29.29   29.36</time>
   <time name="total">   29.83   29.91</time>
   <energy>
    <i name="e_fr_energy">   -188.67703629 </i>
    <i name="e_wo_entrp">   -188.39420954 </i>
    <i name="e_0_energy">   -188.53562292 </i>
   </energy>
  </scstep>
  <scstep>
   <time name="dav">   20.45   20.50</time>
   <time name="total">   20.49   20.54</time>
   <energy>
    <i name="alphaZ">     78.91889468 </i>
    <i name="ewald">  39378.82092794 </i>
    <i name="hartreedc"> -45347.06319228 </i>
    <i name="XCdc">   -237.97505804 </i>
    <i name="pawpsdc">   3950.54104790 </i>
    <i name="pawaedc">  -3365.05387193 </i>
    <i name="eentropy">     -0.28303138 </i>
    <i name="bandstr">  -1408.02529242 </i>
    <i name="atom">   6761.44252427 </i>
    <i name="e_fr_energy">   -188.67705127 </i>
    <i name="e_wo_entrp">   -188.39401988 </i>
    <i name="e_0_energy">   -188.53553557 </i>
   </energy>
  </scstep>
  <structure>
   <crystal>
    <varray name="basis" >
     <v>       8.85318633       5.10405272       0.00000000 </v>
     <v>      -8.85564561       5.10828375       0.00000000 </v>
     <v>       0.00000000       0.00000000      30.00000000 </v>
    </varray>
    <i name="volume">   2712.72809633 </i>
    <varray name="rec_basis" >
     <v>       0.05649240       0.09793439       0.00000000 </v>
     <v>      -0.05644561       0.09790719       0.00000000 </v>
     <v>       0.00000000       0.00000000       0.03333333 </v>
    </varray>
   </crystal>
   <varray name="positions" >
    <v>       0.66788255       0.66739498       0.00009536 </v>
    <v>       0.99850485       0.33342208      -0.00011544 </v>
    <v>       0.66714064       0.33261195      -0.00003042 </v>
    <v>       0.00092106       0.66759161      -0.00006843 </v>
    <v>       0.33344132      -0.00136348       0.00003156 </v>
    <v>       0.66514916       0.00016067       0.00003703 </v>
    <v>      -0.00023051      -0.00154688      -0.00016360 </v>
    <v>       0.33377594       0.33193154       0.00003859 </v>
    <v>       0.33327751       0.66969026       0.00020521 </v>
    <v>       0.10890893       0.22415038       0.95194034 </v>
    <v>       0.22180969       0.11146865       0.04924173 </v>
    <v>       0.10963130       0.55123991       0.95193099 </v>
    <v>       0.21851318       0.44265127       0.04799898 </v>
    <v>       0.11059863       0.88940323       0.95073019 </v>
    <v>       0.22268510       0.77720762       0.04933875 </v>
    <v>       0.44830727       0.22475301       0.95192869 </v>
    <v>       0.55763854       0.11543594       0.04806265 </v>
    <v>       0.44804332       0.55714906       0.95200569 </v>
    <v>       0.55893973       0.44596779       0.04691398 </v>
    <v>       0.44393712       0.88793731       0.95067720 </v>
    <v>       0.55688987       0.77462022       0.04802103 </v>
    <v>       0.77976043       0.22662450       0.95306438 </v>
    <v>       0.89140401       0.11506054       0.04799317 </v>
    <v>       0.77330953       0.55350878       0.95316165 </v>
    <v>       0.88681270       0.43994351       0.04688082 </v>
    <v>       0.77655037       0.88489546       0.95196693 </v>
    <v>       0.88461222       0.77630456       0.04811286 </v>
   </varray>
  </structure>
  <varray name="forces" >
   <v>       0.05039614       0.20238402      -0.07557031 </v>
   <v>      -0.15807968      -0.12290155       0.05736381 </v>
   <v>       0.15291828      -0.06453464      -0.00560945 </v>
   <v>      -0.00201044       0.48822377      -0.08124979 </v>
   <v>       0.28806877      -0.29745218       0.00920854 </v>
   <v>      -0.26158394      -0.30420431       0.08907120 </v>
   <v>       0.28357429      -0.03889342      -0.04139054 </v>
   <v>       0.26419391      -0.23576861      -0.01825624 </v>
   <v>      -0.61404933       0.37756542       0.03783138 </v>
   <v>       0.08667029      -0.01155692       0.08710949 </v>
   <v>      -0.09000060      -0.00486672       0.01102175 </v>
   <v>       0.08663340       0.05641322       0.02353815 </v>
   <v>       0.05519763       0.06970554      -0.25180284 </v>
   <v>      -0.14121935       0.01616525      -0.17049494 </v>
   <v>       0.13858515       0.00941877       0.27522769 </v>
   <v>      -0.10367167       0.05302331       0.03130746 </v>
   <v>      -0.03184552       0.08495752       0.07340813 </v>
   <v>      -0.05527650      -0.07112474       0.29784736 </v>
   <v>      -0.04558080      -0.06891785      -0.10645555 </v>
   <v>       0.04731721      -0.11030896      -0.23132908 </v>
   <v>      -0.02283202      -0.11926368       0.02208349 </v>
   <v>      -0.02592376       0.04109809      -0.03016241 </v>
   <v>       0.10920441       0.04959499      -0.17561115 </v>
   <v>       0.00326148      -0.04196014       0.14471968 </v>
   <v>      -0.01152079      -0.04368423      -0.08274797 </v>
   <v>       0.07698541       0.05146355       0.05236149 </v>
   <v>      -0.07941195       0.03542449       0.05858066 </v>
  </varray>
  <varray name="stress" >
   <v>     -19.88858567       0.01262331       0.03462234 </v>
   <v>       0.01262334     -19.49028655       0.03089202 </v>
   <v>       0.03462241       0.03089205      -1.74107814 </v>
  </varray>
  <energy>
   <i name="e_fr_energy">   -188.67705127 </i>
   <i name="e_wo_entrp">   -188.53553557 </i>
   <i name="e_0_energy">     -0.28303138 </i>
  </energy>
  <time name="totalsc">  420.07  421.18</time>
 </calculation>
 <calculation>
  <scstep>
   <time name="dav">   23.63   23.68</time>
   <time name="total">   24.16   24.22</time>
   <energy>
    <i name="alphaZ">     82.33785147 </i>
    <i name="ewald">  41299.35762156 </i>
    <i name="hartreedc"> -47298.06960711 </i>
    <i name="XCdc">   -233.85787025 </i>
    <i name="pawpsdc">   3949.79958387 </i>
    <i name="pawaedc">  -3364.30538300 </i>
    <i name="eentropy">     -0.23740802 </i>
    <i name="bandstr">  -1387.06237445 </i>
    <i name="atom">   6761.44252427 </i>
    <i name="e_fr_energy">   -190.59506166 </i>
    <i name="e_wo_entrp">   -190.35765364 </i>
    <i name="e_0_energy">   -190.47635765 </i>
   </energy>
  </scstep>
  <scstep>
   <time name="dav">   27.86   27.93</time>
   <time name="total">   28.39   28.46</time>
   <energy>
    <i name="e_fr_energy">   -190.55799318 </i>
    <i name="e_wo_entrp">   -190.31443770 </i>
    <i name="e_0_energy">   -190.43621544 </i>
   </energy>
  </scstep>
  <scstep>
   <time name="dav">   30.21   30.29</time>
   <time name="total">   30.75   30.82</time>
   <energy>
    <i name="e_fr_energy">   -190.08084983 </i>
    <i name="e_wo_entrp">   -189.82977895 </i>
    <i name="e_0_energy">   -189.95531439 </i>
   </energy>
  </scstep>
  <scstep>
   <time name="dav">   31.05   31.12</time>
   <time name="total">   31.58   31.67</time>
   <energy>
    <i name="e_fr_energy">   -189.87663975 </i>
    <i name="e_wo_entrp">   -189.63724231 </i>
    <i name="e_0_energy">   -189.75694103 </i>
   </energy>
  </scstep>
  <scstep>
   <time name="dav">   30.05   30.12</time>
   <time name="total">   30.58   30.66</time>
   <energy>
    <i name="e_fr_energy">   -189.91603251 </i>
    <i name="e_wo_entrp">   -189.66915270 </i>
    <i name="e_0_energy">   -189.79259261 </i>
   </energy>
  </scstep>
  <scstep>
   <time name="dav">   30.10   30.18</time>
   <time name="total">   30.64   30.72</time>
   <energy>
    <i name="e_fr_energy">   -189.77249724 </i>
    <i name="e_wo_entrp">   -189.53207998 </i>
    <i name="e_0_energy">   -189.65228861 </i>
   </energy>
  </scstep>
  <scstep>
   <time name="dav">   29.79   29.86</time>
   <time name="total">   30.32   30.40</time>
   <energy>
    <i name="e_fr_energy">   -189.76581825 </i>
    <i name="e_wo_entrp">   -189.52532261 </i>
    <i name="e_0_energy">   -189.64557043 </i>
   </energy>
  </scstep>
  <scstep>
   <time name="dav">   28.99   29.06</time>
   <time name="total">   29.53   29.60</time>
   <energy>
    <i name="e_fr_energy">   -189.76676974 </i>
    <i name="e_wo_entrp">   -189.52630798 </i>
    <i name="e_0_energy">   -189.64653886 </i>
   </energy>
  </scstep>
  <scstep>
   <time name="dav">   26.25   26.31</time>
   <time name="total">   26.78   26.85</time>
   <energy>
    <i name="e_fr_energy">   -189.76579733 </i>
    <i name="e_wo_entrp">   -189.52536214 </i>
    <i name="e_0_energy">   -189.64557974 </i>
   </energy>
  </scstep>
  <scstep>
   <time name="dav">   25.66   25.72</time>
   <time name="total">   26.20   26.27</time>
   <energy>
    <i name="e_fr_energy">   -189.76598680 </i>
    <i name="e_wo_entrp">   -189.52541410 </i>
    <i name="e_0_energy">   -189.64570045 </i>
   </energy>
  </scstep>
  <scstep>
   <time name="dav">   22.97   23.02</time>
   <time name="total">   23.50   23.56</time>
   <energy>
    <i name="e_fr_energy">   -189.76580928 </i>
    <i name="e_wo_entrp">   -189.52526317 </i>
    <i name="e_0_energy">   -189.64553622 </i>
   </energy>
  </scstep>
  <scstep>
   <time name="dav">   20.19   20.24</time>
   <time name="total">   20.22   20.28</time>
   <energy>
    <i name="alphaZ">     82.33785147 </i>
    <i name="ewald">  41299.35762156 </i>
    <i name="hartreedc"> -47271.62914936 </i>
    <i name="XCdc">   -235.24731692 </i>
    <i name="pawpsdc">   4038.79370171 </i>
    <i name="pawaedc">  -3454.49965316 </i>
    <i name="eentropy">     -0.24052172 </i>
    <i name="bandstr">  -1410.08088741 </i>
    <i name="atom">   6761.44252427 </i>
    <i name="e_fr_energy">   -189.76582956 </i>
    <i name="e_wo_entrp">   -189.52530784 </i>
    <i name="e_0_energy">   -189.64556870 </i>
   </energy>
  </scstep>
  <structure>
   <crystal>
    <varray name="basis" >
     <v>       8.66561990       4.99816252       0.00000000 </v>
     <v>      -8.66788968       5.00206745       0.00000000 </v>
     <v>       0.00000000       0.00000000      30.00000000 </v>
    </varray>
    <i name="volume">   2600.08609799 </i>
    <varray name="rec_basis" >
     <v>       0.05771425       0.10001080       0.00000000 </v>
     <v>      -0.05766920       0.09998461       0.00000000 </v>
     <v>       0.00000000       0.00000000       0.03333333 </v>
    </varray>
   </crystal>
   <varray name="positions" >
    <v>       0.66826774       0.66768336       0.00005256 </v>
    <v>       0.99814856       0.33336923      -0.00008295 </v>
    <v>       0.66718004       0.33235791      -0.00003359 </v>
    <v>       0.00173164       0.66840583      -0.00011446 </v>
    <v>       0.33322284      -0.00213469       0.00003678 </v>
    <v>       0.66439178      -0.00009455       0.00008748 </v>
    <v>      -0.00002300      -0.00188359      -0.00018704 </v>
    <v>       0.33363719       0.33128586       0.00002825 </v>
    <v>       0.33331638       0.67090743       0.00022664 </v>
    <v>       0.10897290       0.22404802       0.95198968 </v>
    <v>       0.22171519       0.11154688       0.04924798 </v>
    <v>       0.10980835       0.55125067       0.95194432 </v>
    <v>       0.21868218       0.44271429       0.04785634 </v>
    <v>       0.11048996       0.88956558       0.95063361 </v>
    <v>       0.22283382       0.77709036       0.04949465 </v>
    <v>       0.44829599       0.22494067       0.95194642 </v>
    <v>       0.55774935       0.11560783       0.04810423 </v>
    <v>       0.44787189       0.55708375       0.95217441 </v>
    <v>       0.55878128       0.44589684       0.04685368 </v>
    <v>       0.44379896       0.88770840       0.95054617 </v>
    <v>       0.55666947       0.77444370       0.04803354 </v>
    <v>       0.77980394       0.22671775       0.95304730 </v>
    <v>       0.89159138       0.11503830       0.04789370 </v>
    <v>       0.77324283       0.55343584       0.95324363 </v>
    <v>       0.88672894       0.43988188       0.04683395 </v>
    <v>       0.77670992       0.88490724       0.95199659 </v>
    <v>       0.88459494       0.77643967       0.04814605 </v>
   </varray>
  </structure>
  <varray name="forces" >
   <v>       0.02836895       0.21842989      -0.08728471 </v>
   <v>      -0.10040143      -0.10556146       0.07483169 </v>
   <v>       0.13053735      -0.08873157       0.00024568 </v>
   <v>      -0.00545772       0.57316626      -0.06385202 </v>
   <v>       0.28775137      -0.36044017       0.00399694 </v>
   <v>      -0.24241608      -0.35430731       0.07990802 </v>
   <v>       0.30258843       0.01263686      -0.00738247 </v>
   <v>       0.23627200      -0.28861925      -0.02413295 </v>
   <v>      -0.62748168       0.38704178       0.00004331 </v>
   <v>      -0.06343289      -0.02097037      -0.42637062 </v>
   <v>      -0.00474166      -0.02065400       0.57172164 </v>
   <v>       0.08907838      -0.06023798      -0.47057508 </v>
   <v>      -0.02349263      -0.03802766       0.22573175 </v>
   <v>      -0.05240569       0.02699240      -0.74409264 </v>
   <v>       0.03745831       0.00454678       0.86892843 </v>
   <v>       0.03846973       0.10525019      -0.47300289 </v>
   <v>      -0.08539960       0.14539378       0.56877842 </v>
   <v>      -0.00620611       0.04341012      -0.17264284 </v>
   <v>       0.04074010       0.07156051       0.35596419 </v>
   <v>       0.00609433      -0.03691652      -0.80535396 </v>
   <v>       0.09047712      -0.05451215       0.53048240 </v>
   <v>      -0.05937943       0.09308410      -0.48655678 </v>
   <v>       0.00392271       0.10008641       0.29598636 </v>
   <v>      -0.02111146      -0.09758361      -0.29168315 </v>
   <v>       0.00844084      -0.08934142       0.35195997 </v>
   <v>       0.05739603      -0.07581879      -0.43888303 </v>
   <v>      -0.06566927      -0.08987681       0.56323434 </v>
  </varray>
  <varray name="stress" >
   <v>     -10.15276379       0.02366639       0.00525456 </v>
   <v>       0.02366645      -9.84312497       0.04689867 </v>
   <v>       0.00525456       0.04689857       6.48093437 </v>
  </varray>
  <energy>
   <i name="e_fr_energy">   -189.76582956 </i>
   <i name="e_wo_entrp">   -189.64556870 </i>
   <i name="e_0_energy">     -0.24052172 </i>
  </energy>
  <time name="totalsc">  374.78  375.76</time>
 </calculation>
 <calculation>
  <scstep>
   <time name="dav">   21.63   21.69</time>
   <time name="total">   22.15   22.21</time>
   <energy>
    <i name="alphaZ">     85.81785981 </i>
    <i name="ewald">  42831.56796118 </i>
    <i name="hartreedc"> -48848.31856610 </i>
    <i name="XCdc">   -232.95946060 </i>
    <i name="pawpsdc">   4038.80372769 </i>
    <i name="pawaedc">  -3454.50697465 </i>
    <i name="eentropy">     -0.20381267 </i>
    <i name="bandstr">  -1372.97892656 </i>
    <i name="atom">   6761.44252427 </i>
    <i name="e_fr_energy">   -191.33566763 </i>
    <i name="e_wo_entrp">   -191.13185496 </i>
    <i name="e_0_energy">   -191.23376129 </i>
   </energy>
  </scstep>
  <scstep>
   <time name="dav">   32.14   32.22</time>
   <time name="total">   32.65   32.74</time>
   <energy>
    <i name="e_fr_energy">   -191.17876937 </i>
    <i name="e_wo_entrp">   -190.96929608 </i>
    <i name="e_0_energy">   -191.07403272 </i>
   </energy>
  </scstep>
  <scstep>
   <time name="dav">   30.02   30.09</time>
   <time name="total">   30.53   30.61</time>
   <energy>
    <i name="e_fr_energy">   -191.28380168 </i>
    <i name="e_wo_entrp">   -191.06256005 </i>
    <i name="e_0_energy">   -191.17318086 </i>
   </energy>
  </scstep>
  <scstep>
   <time name="dav">   31.33   31.41</time>
   <time name="total">   31.85   31.94</time>
   <energy>
    <i name="e_fr_energy">   -190.88306563 </i>
    <i name="e_wo_entrp">   -190.67572416 </i>
    <i name="e_0_energy">   -190.77939489 </i>
   </energy>
  </scstep>
  <scstep>
   <time name="dav">   30.11   30.19</time>
   <time name="total">   30.63   30.71</time>
   <energy>
    <i name="e_fr_energy">   -190.80418633 </i>
    <i name="e_wo_entrp">   -190.59327831 </i>
    <i name="e_0_energy">   -190.69873232 </i>
   </energy>
  </scstep>
  <scstep>
   <time name="dav">   30.70   30.78</time>
   <time name="total">   31.22   31.30</time>
   <energy>
    <i name="e_fr_energy">   -190.77547488 </i>
    <i name="e_wo_entrp">   -190.56458702 </i>
    <i name="e_0_energy">   -190.67003095 </i>
   </energy>
  </scstep>
  <scstep>
   <time name="dav">   29.22   29.29</time>
   <time name="total">   29.74   29.82</time>
   <energy>
    <i name="e_fr_energy">   -190.75535181 </i>
    <i name="e_wo_entrp">   -190.54528230 </i>
    <i name="e_0_energy">   -190.65031706 </i>
   </energy>
  </scstep>
  <scstep>
   <time name="dav">   29.00   29.07</time>
   <time name="total">   29.52   29.59</time>
   <energy>
    <i name="e_fr_energy">   -190.75248029 </i>
    <i name="e_wo_entrp">   -190.54238708 </i>
    <i name="e_0_energy">   -190.64743368 </i>
   </energy>
  </scstep>
  <scstep>
   <time name="dav">   28.08   28.15</time>
   <time name="total">   28.60   28.67</time>
   <energy>
    <i name="e_fr_energy">   -190.75186233 </i>
    <i name="e_wo_entrp">   -190.54180700 </i>
    <i name="e_0_energy">   -190.64683467 </i>
   </energy>
  </scstep>
  <scstep>
   <time name="dav">   28.28   28.35</time>
   <time name="total">   28.80   28.88</time>
   <energy>
    <i name="e_fr_energy">   -190.75198291 </i>
    <i name="e_wo_entrp">   -190.54166739 </i>
    <i name="e_0_energy">   -190.64682515 </i>
   </energy>
  </scstep>
  <scstep>
   <time name="dav">   25.41   25.48</time>
   <time name="total">   25.93   26.00</time>
   <energy>
    <i name="e_fr_energy">   -190.75175917 </i>
    <i name="e_wo_entrp">   -190.54169417 </i>
    <i name="e_0_energy">   -190.64672667 </i>
   </energy>
  </scstep>
  <scstep>
   <time name="dav">   20.35   20.40</time>
   <time name="total">   20.38   20.44</time>
   <energy>
    <i name="alphaZ">     85.81785981 </i>
    <i name="ewald">  42831.56796118 </i>
    <i name="hartreedc"> -48819.69855581 </i>
    <i name="XCdc">   -234.28936703 </i>
    <i name="pawpsdc">   4063.74017136 </i>
    <i name="pawaedc">  -3479.62782814 </i>
    <i name="eentropy">     -0.21008504 </i>
    <i name="bandstr">  -1399.49443549 </i>
    <i name="atom">   6761.44252427 </i>
    <i name="e_fr_energy">   -190.75175489 </i>
    <i name="e_wo_entrp">   -190.54166984 </i>
    <i name="e_0_energy">   -190.64671237 </i>
   </energy>
  </scstep>
  <structure>
   <crystal>
    <varray name="basis" >
     <v>       8.48443466       4.89908554       0.00000000 </v>
     <v>      -8.48562112       4.90111713       0.00000000 </v>
     <v>       0.00000000       0.00000000      30.00000000 </v>
    </varray>
    <i name="volume">   2494.64975482 </i>
    <varray name="rec_basis" >
     <v>       0.05893954       0.10204584       0.00000000 </v>
     <v>      -0.05891511       0.10203157       0.00000000 </v>
     <v>       0.00000000       0.00000000       0.03333333 </v>
    </varray>
   </crystal>
   <varray name="positions" >
    <v>       0.66974711       0.66902073      -0.00013812 </v>
    <v>       0.99725060       0.33303110       0.00008683 </v>
    <v>       0.66700347       0.33130229      -0.00002811 </v>
    <v>       0.00550995       0.67223255      -0.00023187 </v>
    <v>       0.33184742      -0.00558878       0.00004062 </v>
    <v>       0.66119798      -0.00159050       0.00024513 </v>
    <v>       0.00130643      -0.00279645      -0.00017341 </v>
    <v>       0.33251112       0.32853267      -0.00002671 </v>
    <v>       0.33347653       0.67564182       0.00019460 </v>
    <v>       0.10837235       0.22433847       0.95067035 </v>
    <v>       0.22165207       0.11127248       0.05090839 </v>
    <v>       0.10946521       0.55025670       0.95054994 </v>
    <v>       0.21797650       0.44240526       0.04872971 </v>
    <v>       0.11062459       0.88982317       0.94860535 </v>
    <v>       0.22283987       0.77711692       0.05179847 </v>
    <v>       0.44942974       0.22538667       0.95053834 </v>
    <v>       0.55842523       0.11705507       0.04970301 </v>
    <v>       0.44847821       0.55759344       0.95141695 </v>
    <v>       0.55985220       0.44642438       0.04798382 </v>
    <v>       0.44371365       0.88769779       0.94839070 </v>
    <v>       0.55698012       0.77377393       0.04956410 </v>
    <v>       0.78025404       0.22769330       0.95165189 </v>
    <v>       0.89220702       0.11592866       0.04890747 </v>
    <v>       0.77238108       0.55279711       0.95226869 </v>
    <v>       0.88611446       0.43914905       0.04793224 </v>
    <v>       0.77609630       0.88393533       0.95067026 </v>
    <v>       0.88350123       0.77578133       0.04974124 </v>
   </varray>
  </structure>
  <varray name="forces" >
   <v>       0.03109443       0.24340377      -0.08217676 </v>
   <v>      -0.02661719      -0.09381180       0.07980343 </v>
   <v>       0.08295810      -0.08667323       0.00852608 </v>
   <v>      -0.02325590       0.59319291      -0.00689463 </v>
   <v>       0.24440656      -0.39851335      -0.00104308 </v>
   <v>      -0.24276843      -0.38195721       0.03926903 </v>
   <v>       0.34156114       0.07853181       0.03384062 </v>
   <v>       0.26123212      -0.35610917      -0.03250395 </v>
   <v>      -0.63110439       0.38577194      -0.03671284 </v>
   <v>      -0.02727324      -0.05573541      -0.31816953 </v>
   <v>       0.08353221      -0.04157134       0.41378255 </v>
   <v>      -0.00271401       0.02976304      -0.30598480 </v>
   <v>      -0.03647037       0.04984790       0.07153226 </v>
   <v>       0.01852952       0.04542627      -0.59929131 </v>
   <v>      -0.03025553       0.01323727       0.70459821 </v>
   <v>       0.09201613      -0.00963341      -0.31665158 </v>
   <v>      -0.05133875       0.00960515       0.40126749 </v>
   <v>      -0.06135607      -0.00944469       0.00933298 </v>
   <v>       0.03715047       0.02016574       0.23380529 </v>
   <v>      -0.03837041       0.01821491      -0.61602168 </v>
   <v>      -0.00479508      -0.04040819       0.38867830 </v>
   <v>      -0.01800427      -0.02043494      -0.36342983 </v>
   <v>       0.00046613      -0.04111010       0.14415012 </v>
   <v>       0.05719773       0.03665182      -0.19782844 </v>
   <v>      -0.05973153       0.03054976       0.22443954 </v>
   <v>      -0.01517421      -0.00173122      -0.26021331 </v>
   <v>       0.01908483      -0.01722823       0.38389584 </v>
  </varray>
  <varray name="stress" >
   <v>      -5.78207959      -0.08069259      -0.04724222 </v>
   <v>      -0.08069244      -5.72040845      -0.05530206 </v>
   <v>      -0.04724226      -0.05530218       4.48407696 </v>
  </varray>
  <energy>
   <i name="e_fr_energy">   -190.75175489 </i>
   <i name="e_wo_entrp">   -190.64671237 </i>
   <i name="e_0_energy">     -0.21008504 </i>
  </energy>
  <time name="totalsc">  384.31  385.33</time>
 </calculation>
 <calculation>
  <scstep>
   <time name="dav">   21.62   21.68</time>
   <time name="total">   22.13   22.19</time>
   <energy>
    <i name="alphaZ">     90.17973522 </i>
    <i name="ewald">  44666.87507118 </i>
    <i name="hartreedc"> -50710.36938467 </i>
    <i name="XCdc">   -231.83192488 </i>
    <i name="pawpsdc">   4063.71628160 </i>
    <i name="pawaedc">  -3479.59867007 </i>
    <i name="eentropy">     -0.19690345 </i>
    <i name="bandstr">  -1352.34120789 </i>
    <i name="atom">   6761.44252427 </i>
    <i name="e_fr_energy">   -192.12447870 </i>
    <i name="e_wo_entrp">   -191.92757525 </i>
    <i name="e_0_energy">   -192.02602698 </i>
   </energy>
  </scstep>
  <scstep>
   <time name="dav">   28.05   28.12</time>
   <time name="total">   28.55   28.63</time>
   <energy>
    <i name="e_fr_energy">   -191.85691169 </i>
    <i name="e_wo_entrp">   -191.65333454 </i>
    <i name="e_0_energy">   -191.75512312 </i>
   </energy>
  </scstep>
  <scstep>
   <time name="dav">   29.26   29.33</time>
   <time name="total">   29.77   29.85</time>
   <energy>
    <i name="e_fr_energy">   -191.99293708 </i>
    <i name="e_wo_entrp">   -191.78879462 </i>
    <i name="e_0_energy">   -191.89086585 </i>
   </energy>
  </scstep>
  <scstep>
   <time name="dav">   28.37   28.44</time>
   <time name="total">   28.87   28.95</time>
   <energy>
    <i name="e_fr_energy">   -191.75005123 </i>
    <i name="e_wo_entrp">   -191.54932676 </i>
    <i name="e_0_energy">   -191.64968899 </i>
   </energy>
  </scstep>
  <scstep>
   <time name="dav">   30.13   30.20</time>
   <time name="total">   30.64   30.72</time>
   <energy>
    <i name="e_fr_energy">   -191.58222645 </i>
    <i name="e_wo_entrp">   -191.37855616 </i>
    <i name="e_0_energy">   -191.48039130 </i>
   </energy>
  </scstep>
  <scstep>
   <time name="dav">   30.20   30.27</time>
   <time name="total">   30.71   30.79</time>
   <energy>
    <i name="e_fr_energy">   -191.43855652 </i>
    <i name="e_wo_entrp">   -191.23247863 </i>
    <i name="e_0_energy">   -191.33551758 </i>
   </energy>
  </scstep>
  <scstep>
   <time name="dav">   30.18   30.25</time>
   <time name="total">   30.69   30.77</time>
   <energy>
    <i name="e_fr_energy">   -191.43110515 </i>
    <i name="e_wo_entrp">   -191.22691230 </i>
    <i name="e_0_energy">   -191.32900873 </i>
   </energy>
  </scstep>
  <scstep>
   <time name="dav">   29.75   29.82</time>
   <time name="total">   30.25   30.33</time>
   <energy>
    <i name="e_fr_energy">   -191.42888744 </i>
    <i name="e_wo_entrp">   -191.22384054 </i>
    <i name="e_0_energy">   -191.32636399 </i>
   </energy>
  </scstep>
  <scstep>
   <time name="dav">   30.48   30.55</time>
   <time name="total">   30.98   31.06</time>
   <energy>
    <i name="e_fr_energy">   -191.42222882 </i>
    <i name="e_wo_entrp">   -191.21716652 </i>
    <i name="e_0_energy">   -191.31969767 </i>
   </energy>
  </scstep>
  <scstep>
   <time name="dav">   27.51   27.57</time>
   <time name="total">   28.02   28.09</time>
   <energy>
    <i name="e_fr_energy">   -191.42253189 </i>
    <i name="e_wo_entrp">   -191.21719152 </i>
    <i name="e_0_energy">   -191.31986171 </i>
   </energy>
  </scstep>
  <scstep>
   <time name="dav">   27.78   27.85</time>
   <time name="total">   28.29   28.37</time>
   <energy>
    <i name="e_fr_energy">   -191.42237847 </i>
    <i name="e_wo_entrp">   -191.21718273 </i>
    <i name="e_0_energy">   -191.31978060 </i>
   </energy>
  </scstep>
  <scstep>
   <time name="dav">   19.50   19.55</time>
   <time name="total">   19.54   19.59</time>
   <energy>
    <i name="alphaZ">     90.17973522 </i>
    <i name="ewald">  44666.87507118 </i>
    <i name="hartreedc"> -50676.40823313 </i>
    <i name="XCdc">   -233.35987106 </i>
    <i name="pawpsdc">   4085.94717953 </i>
    <i name="pawaedc">  -3501.92823895 </i>
    <i name="eentropy">     -0.20527530 </i>
    <i name="bandstr">  -1383.96525428 </i>
    <i name="atom">   6761.44252427 </i>
    <i name="e_fr_energy">   -191.42236253 </i>
    <i name="e_wo_entrp">   -191.21708723 </i>
    <i name="e_0_energy">   -191.31972488 </i>
   </energy>
  </scstep>
  <structure>
   <crystal>
    <varray name="basis" >
     <v>       8.27265272       4.77644650       0.00000000 </v>
     <v>      -8.27816590       4.78597118       0.00000000 </v>
     <v>       0.00000000       0.00000000      30.00000000 </v>
    </varray>
    <i name="volume">   2373.98682115 </i>
    <varray name="rec_basis" >
     <v>       0.06048017       0.10461093       0.00000000 </v>
     <v>      -0.06035981       0.10454126       0.00000000 </v>
     <v>       0.00000000       0.00000000       0.03333333 </v>
    </varray>
   </crystal>
   <varray name="positions" >
    <v>       0.67292732       0.67183759      -0.00048181 </v>
    <v>       0.99596339       0.33207178       0.00042128 </v>
    <v>       0.66646169       0.32956527       0.00000740 </v>
    <v>       0.01286520       0.67989418      -0.00027289 </v>
    <v>       0.32860431      -0.01238550       0.00003400 </v>
    <v>       0.65470848      -0.00469532       0.00041530 </v>
    <v>       0.00473235      -0.00421107      -0.00002634 </v>
    <v>       0.32987563       0.32232833      -0.00015831 </v>
    <v>       0.33374873       0.68491625       0.00002989 </v>
    <v>       0.10723819       0.22416285       0.94883080 </v>
    <v>       0.22178068       0.11009999       0.05320442 </v>
    <v>       0.10941651       0.55006151       0.94874809 </v>
    <v>       0.21775287       0.44293752       0.04956982 </v>
    <v>       0.11139554       0.89017094       0.94556002 </v>
    <v>       0.22265548       0.77756950       0.05529621 </v>
    <v>       0.45049386       0.22477210       0.94868810 </v>
    <v>       0.55845810       0.11806162       0.05188960 </v>
    <v>       0.44848125       0.55819777       0.95089304 </v>
    <v>       0.56100449       0.44675355       0.04944235 </v>
    <v>       0.44375961       0.88834070       0.94525402 </v>
    <v>       0.55689416       0.77319401       0.05169930 </v>
    <v>       0.78011908       0.22800555       0.94967918 </v>
    <v>       0.89191410       0.11597405       0.05003156 </v>
    <v>       0.77273681       0.55257272       0.95099520 </v>
    <v>       0.88583256       0.43951759       0.04932878 </v>
    <v>       0.77551213       0.88349237       0.94904718 </v>
    <v>       0.88288195       0.77500859       0.05187369 </v>
   </varray>
  </structure>
  <varray name="forces" >
   <v>       0.05405628       0.31666468      -0.02275285 </v>
   <v>       0.01661875      -0.10233675       0.02009676 </v>
   <v>       0.04237747      -0.06072482       0.02021318 </v>
   <v>      -0.10805880       0.21812121       0.05253446 </v>
   <v>      -0.09271197      -0.03019231      -0.03456349 </v>
   <v>      -0.21522642      -0.22807570      -0.01741731 </v>
   <v>       0.34930497       0.16573577      -0.05341806 </v>
   <v>       0.31823575      -0.44032893      -0.06470277 </v>
   <v>      -0.25075632       0.15216489       0.05760555 </v>
   <v>       0.03337398      -0.10101375      -0.05973845 </v>
   <v>       0.16285143      -0.06443504       0.23635062 </v>
   <v>      -0.09162710       0.15255909       0.01359694 </v>
   <v>      -0.01881413       0.20169238      -0.24121111 </v>
   <v>       0.03526286       0.06613194      -0.24453403 </v>
   <v>      -0.04438835       0.01538204       0.29045307 </v>
   <v>       0.09313555      -0.13398677      -0.06306864 </v>
   <v>      -0.00509658      -0.16569971       0.06782428 </v>
   <v>      -0.16875293      -0.11595582       0.33699381 </v>
   <v>      -0.00240825      -0.05107952      -0.07332422 </v>
   <v>      -0.11215693       0.05534910      -0.29266618 </v>
   <v>      -0.10569381      -0.07401575       0.05474945 </v>
   <v>       0.02504609      -0.09730353      -0.02243848 </v>
   <v>       0.05400374      -0.22222223      -0.12471653 </v>
   <v>       0.12610282       0.19690494       0.04833615 </v>
   <v>      -0.09847025       0.14555231      -0.07347840 </v>
   <v>      -0.06889255       0.12449453       0.06966031 </v>
   <v>       0.07268470       0.07661775       0.11961593 </v>
  </varray>
  <varray name="stress" >
   <v>      -0.03836737      -0.19648719       0.14984109 </v>
   <v>      -0.19648698       0.44307288      -0.31898940 </v>
   <v>       0.14984116      -0.31898932      -0.55774021 </v>
  </varray>
  <energy>
   <i name="e_fr_energy">   -191.42236253 </i>
   <i name="e_wo_entrp">   -191.31972488 </i>
   <i name="e_0_energy">     -0.20527530 </i>
  </energy>
  <time name="totalsc">  380.43  381.43</time>
 </calculation>
 <calculation>
  <scstep>
   <time name="dav">   21.62   21.67</time>
   <time name="total">   22.13   22.18</time>
   <energy>
    <i name="alphaZ">     90.05765246 </i>
    <i name="ewald">  44593.15586827 </i>
    <i name="hartreedc"> -50602.07402957 </i>
    <i name="XCdc">   -233.51909605 </i>
    <i name="pawpsdc">   4085.88230836 </i>
    <i name="pawaedc">  -3501.85905757 </i>
    <i name="eentropy">     -0.20895636 </i>
    <i name="bandstr">  -1384.37080248 </i>
    <i name="atom">   6761.44252427 </i>
    <i name="e_fr_energy">   -191.49358867 </i>
    <i name="e_wo_entrp">   -191.28463231 </i>
    <i name="e_0_energy">   -191.38911049 </i>
   </energy>
  </scstep>
  <scstep>
   <time name="dav">   32.81   32.89</time>
   <time name="total">   33.32   33.40</time>
   <energy>
    <i name="e_fr_energy">   -191.56474102 </i>
    <i name="e_wo_entrp">   -191.35049605 </i>
    <i name="e_0_energy">   -191.45761854 </i>
   </energy>
  </scstep>
  <scstep>
   <time name="dav">   30.30   30.37</time>
   <time name="total">   30.80   30.89</time>
   <energy>
    <i name="e_fr_energy">   -191.50753189 </i>
    <i name="e_wo_entrp">   -191.29769124 </i>
    <i name="e_0_energy">   -191.40261157 </i>
   </energy>
  </scstep>
  <scstep>
   <time name="dav">   28.38   28.45</time>
   <time name="total">   28.89   28.96</time>
   <energy>
    <i name="e_fr_energy">   -191.50931815 </i>
    <i name="e_wo_entrp">   -191.29982942 </i>
    <i name="e_0_energy">   -191.40457379 </i>
   </energy>
  </scstep>
  <scstep>
   <time name="dav">   28.48   28.55</time>
   <time name="total">   28.98   29.06</time>
   <energy>
    <i name="e_fr_energy">   -191.50463830 </i>
    <i name="e_wo_entrp">   -191.29448948 </i>
    <i name="e_0_energy">   -191.39956389 </i>
   </energy>
  </scstep>
  <scstep>
   <time name="dav">   26.49   26.56</time>
   <time name="total">   27.00   27.07</time>
   <energy>
    <i name="e_fr_energy">   -191.50451251 </i>
    <i name="e_wo_entrp">   -191.29435536 </i>
    <i name="e_0_energy">   -191.39943394 </i>
   </energy>
  </scstep>
  <scstep>
   <time name="dav">   28.59   28.66</time>
   <time name="total">   29.10   29.18</time>
   <energy>
    <i name="e_fr_energy">   -191.50509751 </i>
    <i name="e_wo_entrp">   -191.29519002 </i>
    <i name="e_0_energy">   -191.40014377 </i>
   </energy>
  </scstep>
  <scstep>
   <time name="dav">   24.42   24.47</time>
   <time name="total">   24.92   24.99</time>
   <energy>
    <i name="e_fr_energy">   -191.50398798 </i>
    <i name="e_wo_entrp">   -191.29385064 </i>
    <i name="e_0_energy">   -191.39891931 </i>
   </energy>
  </scstep>
  <scstep>
   <time name="dav">   16.92   16.96</time>
   <time name="total">   16.96   17.00</time>
   <energy>
    <i name="alphaZ">     90.05765246 </i>
    <i name="ewald">  44593.15586827 </i>
    <i name="hartreedc"> -50603.98461473 </i>
    <i name="XCdc">   -233.45825900 </i>
    <i name="pawpsdc">   4082.66577250 </i>
    <i name="pawaedc">  -3498.59549210 </i>
    <i name="eentropy">     -0.20999793 </i>
    <i name="bandstr">  -1382.57745356 </i>
    <i name="atom">   6761.44252427 </i>
    <i name="e_fr_energy">   -191.50399983 </i>
    <i name="e_wo_entrp">   -191.29400190 </i>
    <i name="e_0_energy">   -191.39900086 </i>
   </energy>
  </scstep>
  <structure>
   <crystal>
    <varray name="basis" >
     <v>       8.27067825       4.77846841       0.00000000 </v>
     <v>      -8.28104120       4.79639906       0.00000000 </v>
     <v>       0.00000000       0.00000000      30.00000000 </v>
    </varray>
    <i name="volume">   2377.20501364 </i>
    <varray name="rec_basis" >
     <v>       0.06052990       0.10450560       0.00000000 </v>
     <v>      -0.06030361       0.10437482       0.00000000 </v>
     <v>       0.00000000       0.00000000       0.03333333 </v>
    </varray>
   </crystal>
   <varray name="positions" >
    <v>       0.67461958       0.67322241      -0.00051408 </v>
    <v>       0.99551663       0.33152709       0.00044945 </v>
    <v>       0.66628817       0.32916182       0.00003896 </v>
    <v>       0.01355861       0.68120280      -0.00018936 </v>
    <v>       0.32822322      -0.01219772      -0.00002052 </v>
    <v>       0.65302874      -0.00517639       0.00038591 </v>
    <v>       0.00651959      -0.00437473      -0.00011235 </v>
    <v>       0.32863279       0.31930036      -0.00025916 </v>
    <v>       0.33378147       0.68629052       0.00012275 </v>
    <v>       0.10684659       0.22356642       0.94875954 </v>
    <v>       0.22192637       0.10932746       0.05354946 </v>
    <v>       0.10991360       0.55108576       0.94879239 </v>
    <v>       0.21870545       0.44398765       0.04917606 </v>
    <v>       0.11181595       0.89039468       0.94520991 </v>
    <v>       0.22260735       0.77776748       0.05571395 </v>
    <v>       0.45008165       0.22384697       0.94861181 </v>
    <v>       0.55761952       0.11724091       0.05196992 </v>
    <v>       0.44741855       0.55809769       0.95143491 </v>
    <v>       0.56072779       0.44650147       0.04930763 </v>
    <v>       0.44371139       0.88892815       0.94482898 </v>
    <v>       0.55622191       0.77313651       0.05175950 </v>
    <v>       0.77970809       0.22744541       0.94966791 </v>
    <v>       0.89096856       0.11471398       0.04981895 </v>
    <v>       0.77407452       0.55319189       0.95108821 </v>
    <v>       0.88627659       0.44051978       0.04919464 </v>
    <v>       0.77594124       0.88431474       0.94917823 </v>
    <v>       0.88348051       0.77519135       0.05203630 </v>
   </varray>
  </structure>
  <varray name="forces" >
   <v>       0.08415164       0.37624869      -0.03063729 </v>
   <v>      -0.01958495      -0.08817528       0.04576559 </v>
   <v>       0.05687065      -0.05205640       0.04704507 </v>
   <v>      -0.12619377       0.22267072       0.02599212 </v>
   <v>      -0.07522962      -0.03666003       0.00130242 </v>
   <v>      -0.27312309      -0.29130948      -0.01098651 </v>
   <v>       0.40273879       0.18262795      -0.00861946 </v>
   <v>       0.35493206      -0.49836126      -0.03459866 </v>
   <v>      -0.35018832       0.24041573      -0.01915657 </v>
   <v>       0.03150652      -0.08045138      -0.06243073 </v>
   <v>       0.09228188      -0.05481912       0.23143936 </v>
   <v>      -0.05711836       0.08921011       0.05263602 </v>
   <v>       0.01733238       0.12589354      -0.25164694 </v>
   <v>       0.03337771       0.03151113      -0.20548958 </v>
   <v>      -0.05136961       0.03112180       0.17931049 </v>
   <v>       0.06820343      -0.06276396      -0.10817518 </v>
   <v>      -0.01372027      -0.09692923       0.04931614 </v>
   <v>      -0.07376347      -0.11320272       0.37663441 </v>
   <v>      -0.01809108      -0.05238572      -0.12801354 </v>
   <v>      -0.07427560      -0.00073233      -0.16996050 </v>
   <v>      -0.05874446      -0.03309117       0.02834953 </v>
   <v>       0.01308256      -0.05855829      -0.00638568 </v>
   <v>       0.05451441      -0.16128164      -0.17834137 </v>
   <v>       0.07583531       0.11955096       0.07072055 </v>
   <v>      -0.06215114       0.09053545      -0.09576817 </v>
   <v>      -0.04785841       0.10650795       0.08593226 </v>
   <v>       0.01658481       0.06448398       0.11576621 </v>
  </varray>
  <varray name="stress" >
   <v>      -0.19024480       0.02577253      -0.00193009 </v>
   <v>       0.02577251      -0.08680996      -0.13021490 </v>
   <v>      -0.00193014      -0.13021484      -1.27916588 </v>
  </varray>
  <energy>
   <i name="e_fr_energy">   -191.50399983 </i>
   <i name="e_wo_entrp">   -191.39900086 </i>
   <i name="e_0_energy">     -0.20999793 </i>
  </energy>
  <time name="totalsc">  284.04  284.81</time>
 </calculation>
 <calculation>
  <scstep>
   <time name="dav">   21.63   21.68</time>
   <time name="total">   22.13   22.19</time>
   <energy>
    <i name="alphaZ">     90.10798241 </i>
    <i name="ewald">  44617.16851837 </i>
    <i name="hartreedc"> -50628.49311067 </i>
    <i name="XCdc">   -233.42087972 </i>
    <i name="pawpsdc">   4082.49189487 </i>
    <i name="pawaedc">  -3498.41982626 </i>
    <i name="eentropy">     -0.21086274 </i>
    <i name="bandstr">  -1382.21667040 </i>
    <i name="atom">   6761.44252427 </i>
    <i name="e_fr_energy">   -191.55042988 </i>
    <i name="e_wo_entrp">   -191.33956714 </i>
    <i name="e_0_energy">   -191.44499851 </i>
   </energy>
  </scstep>
  <scstep>
   <time name="dav">   33.02   33.10</time>
   <time name="total">   33.53   33.62</time>
   <energy>
    <i name="e_fr_energy">   -191.56610637 </i>
    <i name="e_wo_entrp">   -191.35192822 </i>
    <i name="e_0_energy">   -191.45901729 </i>
   </energy>
  </scstep>
  <scstep>
   <time name="dav">   30.04   30.12</time>
   <time name="total">   30.55   30.63</time>
   <energy>
    <i name="e_fr_energy">   -191.55359002 </i>
    <i name="e_wo_entrp">   -191.34238332 </i>
    <i name="e_0_energy">   -191.44798667 </i>
   </energy>
  </scstep>
  <scstep>
   <time name="dav">   27.66   27.73</time>
   <time name="total">   28.17   28.24</time>
   <energy>
    <i name="e_fr_energy">   -191.55406576 </i>
    <i name="e_wo_entrp">   -191.34301155 </i>
    <i name="e_0_energy">   -191.44853866 </i>
   </energy>
  </scstep>
  <scstep>
   <time name="dav">   27.60   27.66</time>
   <time name="total">   28.10   28.18</time>
   <energy>
    <i name="e_fr_energy">   -191.55253245 </i>
    <i name="e_wo_entrp">   -191.34095028 </i>
    <i name="e_0_energy">   -191.44674137 </i>
   </energy>
  </scstep>
  <scstep>
   <time name="dav">   25.59   25.65</time>
   <time name="total">   25.63   25.70</time>
   <energy>
    <i name="alphaZ">     90.10798241 </i>
    <i name="ewald">  44617.16851837 </i>
    <i name="hartreedc"> -50628.45235979 </i>
    <i name="XCdc">   -233.42801024 </i>
    <i name="pawpsdc">   4083.61255440 </i>
    <i name="pawaedc">  -3499.55445996 </i>
    <i name="eentropy">     -0.21157318 </i>
    <i name="bandstr">  -1382.23766004 </i>
    <i name="atom">   6761.44252427 </i>
    <i name="e_fr_energy">   -191.55248378 </i>
    <i name="e_wo_entrp">   -191.34091060 </i>
[...]
      <set comment="kpoint 31">
       <r>  -17.4955    1.0000 </r>
       <r>  -17.3047    1.0000 </r>
       <r>  -16.8810    1.0000 </r>
       <r>  -16.5084    1.0000 </r>
       <r>  -16.4249    1.0000 </r>
       <r>  -16.3610    1.0000 </r>
       <r>  -16.2729    1.0000 </r>
       <r>  -16.1450    1.0000 </r>
       <r>  -16.1093    1.0000 </r>
       <r>  -16.0407    1.0000 </r>
       <r>  -15.9863    1.0000 </r>
       <r>  -15.8667    1.0000 </r>
       <r>  -15.7963    1.0000 </r>
       <r>  -15.6857    1.0000 </r>
       <r>  -15.6307    1.0000 </r>
       <r>  -15.5666    1.0000 </r>
       <r>  -15.4995    1.0000 </r>
       <r>  -15.4627    1.0000 </r>
       <r>   -9.7709    1.0000 </r>
       <r>   -9.4229    1.0000 </r>
       <r>   -9.3294    1.0000 </r>
       <r>   -8.8830    1.0000 </r>
       <r>   -8.8479    1.0000 </r>
       <r>   -8.7162    1.0000 </r>
       <r>   -8.5878    1.0000 </r>
       <r>   -8.4809    1.0000 </r>
       <r>   -8.3758    1.0000 </r>
       <r>   -8.3222    1.0000 </r>
       <r>   -8.2291    1.0000 </r>
       <r>   -8.2109    1.0000 </r>
       <r>   -8.1323    1.0000 </r>
       <r>   -8.1018    1.0000 </r>
       <r>   -7.9379    1.0000 </r>
       <r>   -7.8825    1.0000 </r>
       <r>   -7.8276    1.0000 </r>
       <r>   -7.5462    1.0000 </r>
       <r>   -7.4562    1.0000 </r>
       <r>   -7.4337    1.0000 </r>
       <r>   -7.2831    1.0000 </r>
       <r>   -7.1655    1.0000 </r>
       <r>   -7.1222    1.0000 </r>
       <r>   -7.0627    1.0000 </r>
       <r>   -6.9461    1.0000 </r>
       <r>   -6.9241    1.0000 </r>
       <r>   -6.8412    1.0000 </r>
       <r>   -6.7578    1.0000 </r>
       <r>   -6.7072    1.0000 </r>
       <r>   -6.6696    1.0000 </r>
       <r>   -6.5806    1.0000 </r>
       <r>   -6.5209    1.0000 </r>
       <r>   -6.4317    1.0000 </r>
       <r>   -6.3590    1.0000 </r>
       <r>   -6.2334    1.0000 </r>
       <r>   -6.1689    1.0000 </r>
       <r>   -6.1040    1.0000 </r>
       <r>   -6.0113    1.0000 </r>
       <r>   -5.9566    1.0000 </r>
       <r>   -5.9213    1.0000 </r>
       <r>   -5.8983    1.0000 </r>
       <r>   -5.8049    1.0000 </r>
       <r>   -5.7526    1.0000 </r>
       <r>   -5.6713    1.0000 </r>
       <r>   -5.6075    1.0000 </r>
       <r>   -5.5360    1.0000 </r>
       <r>   -5.2389    1.0000 </r>
       <r>   -5.1075    1.0000 </r>
       <r>   -5.0678    1.0000 </r>
       <r>   -4.9103    1.0000 </r>
       <r>   -4.8990    1.0000 </r>
       <r>   -4.7073    1.0000 </r>
       <r>   -4.5592    1.0000 </r>
       <r>   -4.3976    1.0000 </r>
       <r>   -4.1872    1.0000 </r>
       <r>   -4.0943    1.0000 </r>
       <r>   -3.9294    1.0000 </r>
       <r>   -3.6686    1.0000 </r>
       <r>   -3.5612    0.9999 </r>
       <r>   -3.4538    0.9984 </r>
       <r>   -3.2414    0.9267 </r>
       <r>   -3.0028    0.4068 </r>
       <r>   -2.8947    0.1585 </r>
       <r>   -2.7216    0.0131 </r>
       <r>   -2.6767    0.0055 </r>
       <r>   -2.5989    0.0010 </r>
       <r>   -2.4841    0.0000 </r>
       <r>   -2.4451    0.0000 </r>
       <r>   -2.2999    0.0000 </r>
       <r>   -2.2514    0.0000 </r>
       <r>   -2.1742    0.0000 </r>
       <r>   -2.0233    0.0000 </r>
       <r>   -1.8505    0.0000 </r>
       <r>   -1.6913    0.0000 </r>
       <r>   -1.5909    0.0000 </r>
       <r>   -1.3885    0.0000 </r>
       <r>   -1.2749    0.0000 </r>
       <r>   -1.1671    0.0000 </r>
       <r>   -1.1029    0.0000 </r>
       <r>   -0.9217    0.0000 </r>
       <r>   -0.8293    0.0000 </r>
       <r>   -0.7485    0.0000 </r>
       <r>   -0.7287    0.0000 </r>
       <r>   -0.6451    0.0000 </r>
       <r>   -0.6032    0.0000 </r>
       <r>   -0.5498    0.0000 </r>
       <r>   -0.4756    0.0000 </r>
       <r>   -0.2636    0.0000 </r>
       <r>   -0.1545    0.0000 </r>
       <r>    0.0032    0.0000 </r>
       <r>    0.1185    0.0000 </r>
       <r>    0.2874    0.0000 </r>
       <r>    0.5121    0.0000 </r>
       <r>    0.6580    0.0000 </r>
       <r>    0.8595    0.0000 </r>
       <r>    1.2077    0.0000 </r>
       <r>    1.2237    0.0000 </r>
       <r>    1.3809    0.0000 </r>
       <r>    1.4456    0.0000 </r>
       <r>    2.1652    0.0000 </r>
       <r>    2.2962    0.0000 </r>
       <r>    2.4241    0.0000 </r>
      </set>
      <set comment="kpoint 32">
       <r>  -17.5267    1.0000 </r>
       <r>  -17.1874    1.0000 </r>
       <r>  -17.0235    1.0000 </r>
       <r>  -16.4968    1.0000 </r>
       <r>  -16.3653    1.0000 </r>
       <r>  -16.3116    1.0000 </r>
       <r>  -16.2710    1.0000 </r>
       <r>  -16.1792    1.0000 </r>
       <r>  -16.1213    1.0000 </r>
       <r>  -16.0255    1.0000 </r>
       <r>  -15.9596    1.0000 </r>
       <r>  -15.9332    1.0000 </r>
       <r>  -15.8200    1.0000 </r>
       <r>  -15.6950    1.0000 </r>
       <r>  -15.6432    1.0000 </r>
       <r>  -15.5535    1.0000 </r>
       <r>  -15.4848    1.0000 </r>
       <r>  -15.4383    1.0000 </r>
       <r>   -9.6992    1.0000 </r>
       <r>   -9.5622    1.0000 </r>
       <r>   -9.3777    1.0000 </r>
       <r>   -8.8714    1.0000 </r>
       <r>   -8.7048    1.0000 </r>
       <r>   -8.5991    1.0000 </r>
       <r>   -8.5218    1.0000 </r>
       <r>   -8.4704    1.0000 </r>
       <r>   -8.4049    1.0000 </r>
       <r>   -8.3263    1.0000 </r>
       <r>   -8.2658    1.0000 </r>
       <r>   -8.2403    1.0000 </r>
       <r>   -8.1782    1.0000 </r>
       <r>   -8.1297    1.0000 </r>
       <r>   -8.0920    1.0000 </r>
       <r>   -7.9215    1.0000 </r>
       <r>   -7.7923    1.0000 </r>
       <r>   -7.4708    1.0000 </r>
       <r>   -7.4445    1.0000 </r>
       <r>   -7.3422    1.0000 </r>
       <r>   -7.3044    1.0000 </r>
       <r>   -7.2656    1.0000 </r>
       <r>   -7.1396    1.0000 </r>
       <r>   -7.0867    1.0000 </r>
       <r>   -6.9888    1.0000 </r>
       <r>   -6.9139    1.0000 </r>
       <r>   -6.8290    1.0000 </r>
       <r>   -6.7544    1.0000 </r>
       <r>   -6.7215    1.0000 </r>
       <r>   -6.6274    1.0000 </r>
       <r>   -6.5708    1.0000 </r>
       <r>   -6.5134    1.0000 </r>
       <r>   -6.4322    1.0000 </r>
       <r>   -6.3755    1.0000 </r>
       <r>   -6.3124    1.0000 </r>
       <r>   -6.2339    1.0000 </r>
       <r>   -6.1260    1.0000 </r>
       <r>   -5.9859    1.0000 </r>
       <r>   -5.9416    1.0000 </r>
       <r>   -5.8770    1.0000 </r>
       <r>   -5.8241    1.0000 </r>
       <r>   -5.7428    1.0000 </r>
       <r>   -5.6738    1.0000 </r>
       <r>   -5.4954    1.0000 </r>
       <r>   -5.4440    1.0000 </r>
       <r>   -5.3801    1.0000 </r>
       <r>   -5.3460    1.0000 </r>
       <r>   -5.2584    1.0000 </r>
       <r>   -5.2291    1.0000 </r>
       <r>   -5.0725    1.0000 </r>
       <r>   -4.9261    1.0000 </r>
       <r>   -4.7010    1.0000 </r>
       <r>   -4.5925    1.0000 </r>
       <r>   -4.4389    1.0000 </r>
       <r>   -4.1766    1.0000 </r>
       <r>   -3.9929    1.0000 </r>
       <r>   -3.9208    1.0000 </r>
       <r>   -3.6851    1.0000 </r>
       <r>   -3.5341    0.9998 </r>
       <r>   -3.4757    0.9991 </r>
       <r>   -3.2234    0.9073 </r>
       <r>   -2.9860    0.3615 </r>
       <r>   -2.8472    0.0907 </r>
       <r>   -2.7279    0.0146 </r>
       <r>   -2.6657    0.0044 </r>
       <r>   -2.6106    0.0013 </r>
       <r>   -2.5208    0.0001 </r>
       <r>   -2.4828    0.0000 </r>
       <r>   -2.3538    0.0000 </r>
       <r>   -2.2796    0.0000 </r>
       <r>   -2.1200    0.0000 </r>
       <r>   -2.1080    0.0000 </r>
       <r>   -1.8614    0.0000 </r>
       <r>   -1.6809    0.0000 </r>
       <r>   -1.4777    0.0000 </r>
       <r>   -1.4255    0.0000 </r>
       <r>   -1.2758    0.0000 </r>
       <r>   -1.1624    0.0000 </r>
       <r>   -1.0879    0.0000 </r>
       <r>   -0.9264    0.0000 </r>
       <r>   -0.8012    0.0000 </r>
       <r>   -0.7841    0.0000 </r>
       <r>   -0.6896    0.0000 </r>
       <r>   -0.6487    0.0000 </r>
       <r>   -0.5980    0.0000 </r>
       <r>   -0.5045    0.0000 </r>
       <r>   -0.4142    0.0000 </r>
       <r>   -0.2583    0.0000 </r>
       <r>   -0.1897    0.0000 </r>
       <r>   -0.0403    0.0000 </r>
       <r>    0.1455    0.0000 </r>
       <r>    0.2635    0.0000 </r>
       <r>    0.4307    0.0000 </r>
       <r>    0.6587    0.0000 </r>
       <r>    0.8870    0.0000 </r>
       <r>    1.1956    0.0000 </r>
       <r>    1.2619    0.0000 </r>
       <r>    1.3775    0.0000 </r>
       <r>    1.4136    0.0000 </r>
       <r>    2.1348    0.0000 </r>
       <r>    2.2678    0.0000 </r>
       <r>    2.6015    0.0000 </r>
      </set>
      <set comment="kpoint 33">
       <r>  -17.5203    1.0000 </r>
       <r>  -17.2476    1.0000 </r>
       <r>  -16.9102    1.0000 </r>
       <r>  -16.4874    1.0000 </r>
       <r>  -16.4611    1.0000 </r>
       <r>  -16.3944    1.0000 </r>
       <r>  -16.2751    1.0000 </r>
       <r>  -16.1496    1.0000 </r>
       <r>  -16.0890    1.0000 </r>
       <r>  -16.0008    1.0000 </r>
       <r>  -15.9781    1.0000 </r>
       <r>  -15.8648    1.0000 </r>
       <r>  -15.7969    1.0000 </r>
       <r>  -15.7170    1.0000 </r>
       <r>  -15.6270    1.0000 </r>
       <r>  -15.5778    1.0000 </r>
       <r>  -15.4895    1.0000 </r>
       <r>  -15.4485    1.0000 </r>
       <r>   -9.7630    1.0000 </r>
       <r>   -9.4645    1.0000 </r>
       <r>   -9.2889    1.0000 </r>
       <r>   -8.8780    1.0000 </r>
       <r>   -8.8014    1.0000 </r>
       <r>   -8.7518    1.0000 </r>
       <r>   -8.5954    1.0000 </r>
       <r>   -8.5023    1.0000 </r>
       <r>   -8.4135    1.0000 </r>
       <r>   -8.3268    1.0000 </r>
       <r>   -8.2778    1.0000 </r>
       <r>   -8.1884    1.0000 </r>
       <r>   -8.1357    1.0000 </r>
       <r>   -8.0626    1.0000 </r>
       <r>   -7.9637    1.0000 </r>
       <r>   -7.8732    1.0000 </r>
       <r>   -7.7346    1.0000 </r>
       <r>   -7.5513    1.0000 </r>
       <r>   -7.5124    1.0000 </r>
       <r>   -7.4421    1.0000 </r>
       <r>   -7.3139    1.0000 </r>
       <r>   -7.2364    1.0000 </r>
       <r>   -7.1269    1.0000 </r>
       <r>   -7.0034    1.0000 </r>
       <r>   -6.9498    1.0000 </r>
       <r>   -6.8989    1.0000 </r>
       <r>   -6.8466    1.0000 </r>
       <r>   -6.7661    1.0000 </r>
       <r>   -6.7211    1.0000 </r>
       <r>   -6.6554    1.0000 </r>
       <r>   -6.6086    1.0000 </r>
       <r>   -6.4755    1.0000 </r>
       <r>   -6.4492    1.0000 </r>
       <r>   -6.3287    1.0000 </r>
       <r>   -6.2512    1.0000 </r>
       <r>   -6.2196    1.0000 </r>
       <r>   -6.0757    1.0000 </r>
       <r>   -5.9678    1.0000 </r>
       <r>   -5.9166    1.0000 </r>
       <r>   -5.8749    1.0000 </r>
       <r>   -5.8009    1.0000 </r>
       <r>   -5.7798    1.0000 </r>
       <r>   -5.7457    1.0000 </r>
       <r>   -5.6662    1.0000 </r>
       <r>   -5.6208    1.0000 </r>
       <r>   -5.5609    1.0000 </r>
       <r>   -5.3077    1.0000 </r>
       <r>   -5.1453    1.0000 </r>
       <r>   -5.0053    1.0000 </r>
       <r>   -4.9619    1.0000 </r>
       <r>   -4.8588    1.0000 </r>
       <r>   -4.7670    1.0000 </r>
       <r>   -4.5840    1.0000 </r>
       <r>   -4.3851    1.0000 </r>
       <r>   -4.3474    1.0000 </r>
       <r>   -4.0106    1.0000 </r>
       <r>   -3.7505    1.0000 </r>
       <r>   -3.7323    1.0000 </r>
       <r>   -3.5906    1.0000 </r>
       <r>   -3.4106    0.9960 </r>
       <r>   -3.2362    0.9214 </r>
       <r>   -3.0163    0.4441 </r>
       <r>   -2.9671    0.3128 </r>
       <r>   -2.7325    0.0159 </r>
       <r>   -2.6486    0.0031 </r>
       <r>   -2.6220    0.0017 </r>
       <r>   -2.5188    0.0001 </r>
       <r>   -2.4156    0.0000 </r>
       <r>   -2.3664    0.0000 </r>
       <r>   -2.2797    0.0000 </r>
       <r>   -2.1814    0.0000 </r>
       <r>   -2.0710    0.0000 </r>
       <r>   -1.8586    0.0000 </r>
       <r>   -1.6801    0.0000 </r>
       <r>   -1.5173    0.0000 </r>
       <r>   -1.3948    0.0000 </r>
       <r>   -1.2360    0.0000 </r>
       <r>   -1.1213    0.0000 </r>
       <r>   -1.0643    0.0000 </r>
       <r>   -0.9163    0.0000 </r>
       <r>   -0.8072    0.0000 </r>
       <r>   -0.7631    0.0000 </r>
       <r>   -0.6803    0.0000 </r>
       <r>   -0.6366    0.0000 </r>
       <r>   -0.5957    0.0000 </r>
       <r>   -0.5393    0.0000 </r>
       <r>   -0.3728    0.0000 </r>
       <r>   -0.3525    0.0000 </r>
       <r>   -0.2666    0.0000 </r>
       <r>   -0.0464    0.0000 </r>
       <r>    0.0803    0.0000 </r>
       <r>    0.3049    0.0000 </r>
       <r>    0.4914    0.0000 </r>
       <r>    0.6627    0.0000 </r>
       <r>    0.9344    0.0000 </r>
       <r>    1.1326    0.0000 </r>
       <r>    1.3176    0.0000 </r>
       <r>    1.3811    0.0000 </r>
       <r>    1.4617    0.0000 </r>
       <r>    2.1698    0.0000 </r>
       <r>    2.3012    0.0000 </r>
       <r>    2.4343    0.0000 </r>
      </set>
      <set comment="kpoint 34">
       <r>  -17.5056    1.0000 </r>
       <r>  -17.3019    1.0000 </r>
       <r>  -16.7264    1.0000 </r>
       <r>  -16.6643    1.0000 </r>
       <r>  -16.4506    1.0000 </r>
       <r>  -16.4384    1.0000 </r>
       <r>  -16.2531    1.0000 </r>
       <r>  -16.1490    1.0000 </r>
       <r>  -16.0914    1.0000 </r>
       <r>  -16.0033    1.0000 </r>
       <r>  -15.9655    1.0000 </r>
       <r>  -15.8316    1.0000 </r>
       <r>  -15.7571    1.0000 </r>
       <r>  -15.7005    1.0000 </r>
       <r>  -15.6283    1.0000 </r>
       <r>  -15.5764    1.0000 </r>
       <r>  -15.5479    1.0000 </r>
       <r>  -15.4436    1.0000 </r>
       <r>   -9.8028    1.0000 </r>
       <r>   -9.3469    1.0000 </r>
       <r>   -9.1615    1.0000 </r>
       <r>   -9.0339    1.0000 </r>
       <r>   -8.8972    1.0000 </r>
       <r>   -8.7976    1.0000 </r>
       <r>   -8.6619    1.0000 </r>
       <r>   -8.5034    1.0000 </r>
       <r>   -8.4219    1.0000 </r>
       <r>   -8.3211    1.0000 </r>
       <r>   -8.2705    1.0000 </r>
       <r>   -8.1783    1.0000 </r>
       <r>   -8.1263    1.0000 </r>
       <r>   -7.9333    1.0000 </r>
       <r>   -7.8915    1.0000 </r>
       <r>   -7.8486    1.0000 </r>
       <r>   -7.6837    1.0000 </r>
       <r>   -7.6208    1.0000 </r>
       <r>   -7.5550    1.0000 </r>
       <r>   -7.4363    1.0000 </r>
       <r>   -7.3562    1.0000 </r>
       <r>   -7.2756    1.0000 </r>
       <r>   -7.1717    1.0000 </r>
       <r>   -6.9924    1.0000 </r>
       <r>   -6.9077    1.0000 </r>
       <r>   -6.8641    1.0000 </r>
       <r>   -6.8346    1.0000 </r>
       <r>   -6.7536    1.0000 </r>
       <r>   -6.6940    1.0000 </r>
       <r>   -6.6394    1.0000 </r>
       <r>   -6.5270    1.0000 </r>
       <r>   -6.4636    1.0000 </r>
       <r>   -6.4228    1.0000 </r>
       <r>   -6.4175    1.0000 </r>
       <r>   -6.2340    1.0000 </r>
       <r>   -6.1769    1.0000 </r>
       <r>   -6.1064    1.0000 </r>
       <r>   -6.0043    1.0000 </r>
       <r>   -5.9558    1.0000 </r>
       <r>   -5.8815    1.0000 </r>
       <r>   -5.8135    1.0000 </r>
       <r>   -5.7752    1.0000 </r>
       <r>   -5.7650    1.0000 </r>
       <r>   -5.7197    1.0000 </r>
       <r>   -5.6424    1.0000 </r>
       <r>   -5.6067    1.0000 </r>
       <r>   -5.4888    1.0000 </r>
       <r>   -5.0421    1.0000 </r>
       <r>   -4.9114    1.0000 </r>
       <r>   -4.8544    1.0000 </r>
       <r>   -4.7745    1.0000 </r>
       <r>   -4.6852    1.0000 </r>
       <r>   -4.6271    1.0000 </r>
       <r>   -4.4848    1.0000 </r>
       <r>   -4.3576    1.0000 </r>
       <r>   -4.0137    1.0000 </r>
       <r>   -3.7823    1.0000 </r>
       <r>   -3.7013    1.0000 </r>
       <r>   -3.5962    1.0000 </r>
       <r>   -3.3363    0.9831 </r>
       <r>   -3.2630    0.9457 </r>
       <r>   -3.1256    0.7366 </r>
       <r>   -2.9676    0.3140 </r>
       <r>   -2.7485    0.0210 </r>
       <r>   -2.6710    0.0049 </r>
       <r>   -2.6139    0.0014 </r>
       <r>   -2.4998    0.0001 </r>
       <r>   -2.3825    0.0000 </r>
       <r>   -2.3368    0.0000 </r>
       <r>   -2.2963    0.0000 </r>
       <r>   -2.1946    0.0000 </r>
       <r>   -2.0555    0.0000 </r>
       <r>   -1.8480    0.0000 </r>
       <r>   -1.6909    0.0000 </r>
       <r>   -1.5464    0.0000 </r>
       <r>   -1.3835    0.0000 </r>
       <r>   -1.2075    0.0000 </r>
       <r>   -1.0946    0.0000 </r>
       <r>   -1.0567    0.0000 </r>
       <r>   -0.9110    0.0000 </r>
       <r>   -0.7964    0.0000 </r>
       <r>   -0.7561    0.0000 </r>
       <r>   -0.6797    0.0000 </r>
       <r>   -0.6269    0.0000 </r>
       <r>   -0.6056    0.0000 </r>
       <r>   -0.5450    0.0000 </r>
       <r>   -0.4366    0.0000 </r>
       <r>   -0.3434    0.0000 </r>
       <r>   -0.3363    0.0000 </r>
       <r>   -0.0647    0.0000 </r>
       <r>    0.0832    0.0000 </r>
       <r>    0.3354    0.0000 </r>
       <r>    0.5253    0.0000 </r>
       <r>    0.6585    0.0000 </r>
       <r>    0.9795    0.0000 </r>
       <r>    1.0962    0.0000 </r>
       <r>    1.3365    0.0000 </r>
       <r>    1.3944    0.0000 </r>
       <r>    1.4918    0.0000 </r>
       <r>    2.2695    0.0000 </r>
       <r>    2.2703    0.0000 </r>
       <r>    2.3728    0.0000 </r>
      </set>
     </set>
    </set>
   </array>
  </eigenvalues>
  <separator name="orbital magnetization" >
   <v name="MAGDIPOLOUT">      0.00000000      0.00000000      0.00000000</v>
  </separator>
 </calculation>
 <structure name="finalpos" >
  <crystal>
   <varray name="basis" >
    <v>       8.27108206       4.78017675       0.00000000 </v>
    <v>      -8.29157051       4.81562138       0.00000000 </v>
    <v>       0.00000000       0.00000000      30.00000000 </v>
   </varray>
   <i name="volume">   2383.96716258 </i>
   <varray name="rec_basis" >
    <v>       0.06060010       0.10434167       0.00000000 </v>
    <v>      -0.06015406       0.10408384       0.00000000 </v>
    <v>       0.00000000       0.00000000       0.03333333 </v>
   </varray>
  </crystal>
  <varray name="positions" >
   <v>       0.67093847       0.67302430       0.00024429 </v>
   <v>       0.99934628       0.33519391       0.00022956 </v>
   <v>       0.66696347       0.33805260      -0.00007895 </v>
   <v>       0.02198805       0.68575821       0.00017058 </v>
   <v>       0.32470455      -0.02330654      -0.00020434 </v>
   <v>       0.65784595      -0.01518523       0.00015002 </v>
   <v>      -0.00869996      -0.01470949      -0.00016997 </v>
   <v>       0.33695154       0.33519620      -0.00059223 </v>
   <v>       0.32947542       0.68505772       0.00040950 </v>
   <v>       0.10528259       0.22200316       0.94982154 </v>
   <v>       0.22198960       0.10979982       0.05047255 </v>
   <v>       0.11091590       0.55406259       0.94814746 </v>
   <v>       0.21836347       0.44523669       0.04994892 </v>
   <v>       0.11241193       0.89161596       0.94494597 </v>
   <v>       0.22406765       0.77921143       0.05746612 </v>
   <v>       0.44790913       0.22080046       0.95026151 </v>
   <v>       0.55718844       0.11511492       0.04975260 </v>
   <v>       0.44727586       0.56122596       0.95058865 </v>
   <v>       0.56047662       0.44819463       0.05011158 </v>
   <v>       0.44466968       0.88804086       0.94464680 </v>
   <v>       0.55385618       0.77063137       0.05259823 </v>
   <v>       0.77929829       0.22587020       0.95120879 </v>
   <v>       0.89081176       0.11415555       0.04981290 </v>
   <v>       0.77863096       0.55699167       0.95169878 </v>
   <v>       0.88772301       0.44310833       0.04886354 </v>
   <v>       0.77411537       0.87962854       0.94703634 </v>
   <v>       0.88371424       0.77344063       0.05245918 </v>
  </varray>
 </structure>
</modeling>
