unknown system                          
           1
     8.853186    5.104053    0.000000
    -8.855646    5.108284    0.000000
     0.000000    0.000000   30.000000
   V    Mo   W    S 
   3   3   3  18
Direct configuration=     1
   0.66666669  0.66666669  0.00000000
   1.00000000  0.33333334  0.00000000
   0.66666669  0.33333334  0.00000000
   0.00000000  0.66666669  0.00000000
   0.33333334  0.00000000  0.00000000
   0.66666669  0.00000000  0.00000000
   0.00000000  0.00000000  0.00000000
   0.33333334  0.33333334  0.00000000
   0.33333334  0.66666669  0.00000000
   0.11068511  0.22244981  0.95539999
   0.22244981  0.11068511  0.04460000
   0.11068511  0.55578315  0.95539999
   0.22244981  0.44401845  0.04460000
   0.11068511  0.88911647  0.95539999
   0.22244981  0.77735180  0.04460000
   0.44401845  0.22244981  0.95539999
   0.55578315  0.11068511  0.04460000
   0.44401845  0.55578315  0.95539999
   0.55578315  0.44401845  0.04460000
   0.44401845  0.88911647  0.95539999
   0.55578315  0.77735180  0.04460000
   0.77735180  0.22244981  0.95539999
   0.88911647  0.11068511  0.04460000
   0.77735180  0.55578315  0.95539999
   0.88911647  0.44401845  0.04460000
   0.77735180  0.88911647  0.95539999
   0.88911647  0.77735180  0.04460000
unknown system                          
           1
     8.665620    4.998163    0.000000
    -8.667890    5.002067    0.000000
     0.000000    0.000000   30.000000
   V    Mo   W    S 
   3   3   3  18
Direct configuration=     2
   0.66788255  0.66739498  0.00009536
   0.99850485  0.33342208 -0.00011544
   0.66714064  0.33261195 -0.00003042
   0.00092106  0.66759161 -0.00006843
   0.33344132 -0.00136348  0.00003156
   0.66514916  0.00016067  0.00003703
  -0.00023051 -0.00154688 -0.00016360
   0.33377594  0.33193154  0.00003859
   0.33327751  0.66969026  0.00020521
   0.10890893  0.22415038  0.95194034
   0.22180969  0.11146865  0.04924173
   0.10963130  0.55123991  0.95193099
   0.21851318  0.44265127  0.04799898
   0.11059863  0.88940323  0.95073019
   0.22268510  0.77720762  0.04933875
   0.44830727  0.22475301  0.95192869
   0.55763854  0.11543594  0.04806265
   0.44804332  0.55714906  0.95200569
   0.55893973  0.44596779  0.04691398
   0.44393712  0.88793731  0.95067720
   0.55688987  0.77462022  0.04802103
   0.77976043  0.22662450  0.95306438
   0.89140401  0.11506054  0.04799317
   0.77330953  0.55350878  0.95316165
   0.88681270  0.43994351  0.04688082
   0.77655037  0.88489546  0.95196693
   0.88461222  0.77630456  0.04811286
unknown system                          
           1
     8.484435    4.899086    0.000000
    -8.485621    4.901117    0.000000
     0.000000    0.000000   30.000000
   V    Mo   W    S 
   3   3   3  18
Direct configuration=     3
   0.66826774  0.66768336  0.00005256
   0.99814856  0.33336923 -0.00008295
   0.66718004  0.33235791 -0.00003359
   0.00173164  0.66840583 -0.00011446
   0.33322284 -0.00213469  0.00003678
   0.66439178 -0.00009455  0.00008748
  -0.00002300 -0.00188359 -0.00018704
   0.33363719  0.33128586  0.00002825
   0.33331638  0.67090743  0.00022664
   0.10897290  0.22404802  0.95198968
   0.22171519  0.11154688  0.04924798
   0.10980835  0.55125067  0.95194432
   0.21868218  0.44271429  0.04785634
   0.11048996  0.88956558  0.95063361
   0.22283382  0.77709036  0.04949465
   0.44829599  0.22494067  0.95194642
   0.55774935  0.11560783  0.04810423
   0.44787189  0.55708375  0.95217441
   0.55878128  0.44589684  0.04685368
   0.44379896  0.88770840  0.95054617
   0.55666947  0.77444370  0.04803354
   0.77980394  0.22671775  0.95304730
   0.89159138  0.11503830  0.04789370
   0.77324283  0.55343584  0.95324363
   0.88672894  0.43988188  0.04683395
   0.77670992  0.88490724  0.95199659
   0.88459494  0.77643967  0.04814605
unknown system                          
           1
     8.272653    4.776446    0.000000
    -8.278166    4.785971    0.000000
     0.000000    0.000000   30.000000
   V    Mo   W    S 
   3   3   3  18
Direct configuration=     4
   0.66974711  0.66902073 -0.00013812
   0.99725060  0.33303110  0.00008683
   0.66700347  0.33130229 -0.00002811
   0.00550995  0.67223255 -0.00023187
   0.33184742 -0.00558878  0.00004062
   0.66119798 -0.00159050  0.00024513
   0.00130643 -0.00279645 -0.00017341
   0.33251112  0.32853267 -0.00002671
   0.33347653  0.67564182  0.00019460
   0.10837235  0.22433847  0.95067035
   0.22165207  0.11127248  0.05090839
   0.10946521  0.55025670  0.95054994
   0.21797650  0.44240526  0.04872971
   0.11062459  0.88982317  0.94860535
   0.22283987  0.77711692  0.05179847
   0.44942974  0.22538667  0.95053834
   0.55842523  0.11705507  0.04970301
   0.44847821  0.55759344  0.95141695
   0.55985220  0.44642438  0.04798382
   0.44371365  0.88769779  0.94839070
   0.55698012  0.77377393  0.04956410
   0.78025404  0.22769330  0.95165189
   0.89220702  0.11592866  0.04890747
   0.77238108  0.55279711  0.95226869
   0.88611446  0.43914905  0.04793224
   0.77609630  0.88393533  0.95067026
   0.88350123  0.77578133  0.04974124
unknown system                          
           1
     8.270678    4.778468    0.000000
    -8.281041    4.796399    0.000000
     0.000000    0.000000   30.000000
   V    Mo   W    S 
   3   3   3  18
Direct configuration=     5
   0.67292732  0.67183759 -0.00048181
   0.99596339  0.33207178  0.00042128
   0.66646169  0.32956527  0.00000740
   0.01286520  0.67989418 -0.00027289
   0.32860431 -0.01238550  0.00003400
   0.65470848 -0.00469532  0.00041530
   0.00473235 -0.00421107 -0.00002634
   0.32987563  0.32232833 -0.00015831
   0.33374873  0.68491625  0.00002989
   0.10723819  0.22416285  0.94883080
   0.22178068  0.11009999  0.05320442
   0.10941651  0.55006151  0.94874809
   0.21775287  0.44293752  0.04956982
   0.11139554  0.89017094  0.94556002
   0.22265548  0.77756950  0.05529621
   0.45049386  0.22477210  0.94868810
   0.55845810  0.11806162  0.05188960
   0.44848125  0.55819777  0.95089304
   0.56100449  0.44675355  0.04944235
   0.44375961  0.88834070  0.94525402
   0.55689416  0.77319401  0.05169930
   0.78011908  0.22800555  0.94967918
   0.89191410  0.11597405  0.05003156
   0.77273681  0.55257272  0.95099520
   0.88583256  0.43951759  0.04932878
   0.77551213  0.88349237  0.94904718
   0.88288195  0.77500859  0.05187369
unknown system                          
           1
     8.267836    4.777753    0.000000
    -8.277925    4.795212    0.000000
     0.000000    0.000000   30.000000
   V    Mo   W    S 
   3   3   3  18
Direct configuration=     6
   0.67461958  0.67322241 -0.00051408
   0.99551663  0.33152709  0.00044945
   0.66628817  0.32916182  0.00003896
   0.01355861  0.68120280 -0.00018936
   0.32822322 -0.01219772 -0.00002052
   0.65302874 -0.00517639  0.00038591
   0.00651959 -0.00437473 -0.00011235
   0.32863279  0.31930036 -0.00025916
   0.33378147  0.68629052  0.00012275
   0.10684659  0.22356642  0.94875954
   0.22192637  0.10932746  0.05354946
   0.10991360  0.55108576  0.94879239
   0.21870545  0.44398765  0.04917606
   0.11181595  0.89039468  0.94520991
   0.22260735  0.77776748  0.05571395
   0.45008165  0.22384697  0.94861181
   0.55761952  0.11724091  0.05196992
   0.44741855  0.55809769  0.95143491
   0.56072779  0.44650147  0.04930763
   0.44371139  0.88892815  0.94482898
   0.55622191  0.77313651  0.05175950
   0.77970809  0.22744541  0.94966791
   0.89096856  0.11471398  0.04981895
   0.77407452  0.55319189  0.95108821
   0.88627659  0.44051978  0.04919464
   0.77594124  0.88431474  0.94917823
   0.88348051  0.77519135  0.05203630
unknown system                          
           1
     8.267509    4.776917    0.000000
    -8.277128    4.793563    0.000000
     0.000000    0.000000   30.000000
   V    Mo   W    S 
   3   3   3  18
Direct configuration=     7
   0.67579044  0.67412743 -0.00054272
   0.99523866  0.33131060  0.00049085
   0.66623165  0.32892007  0.00007953
   0.01401249  0.68205323 -0.00016669
   0.32798432 -0.01222161 -0.00002005
   0.65177115 -0.00555726  0.00037740
   0.00766908 -0.00451855 -0.00011961
   0.32782193  0.31735622 -0.00029049
   0.33388378  0.68754303  0.00010633
   0.10666832  0.22329768  0.94869160
   0.22192529  0.10902363  0.05376722
   0.11006649  0.55141826  0.94882370
   0.21907400  0.44430923  0.04896564
   0.11196119  0.89043149  0.94500937
   0.22260874  0.77793464  0.05589596
   0.45002431  0.22356191  0.94850478
   0.55733248  0.11700391  0.05202908
   0.44699404  0.55791379  0.95175514
   0.56056736  0.44639073  0.04920887
   0.44359496  0.88905140  0.94465716
   0.55603722  0.77313397  0.05180029
   0.77956801  0.22726729  0.94964761
   0.89061182  0.11419005  0.04967456
   0.77452460  0.55339751  0.95113918
   0.88642388  0.44086754  0.04912280
   0.77615014  0.88467554  0.94923988
   0.88367810  0.77533271  0.05215254
unknown system                          
           1
     8.270390    4.777140    0.000000
    -8.276431    4.787586    0.000000
     0.000000    0.000000   30.000000
   V    Mo   W    S 
   3   3   3  18
Direct configuration=     8
   0.67498380  0.67351416 -0.00052204
   0.99542533  0.33140990  0.00046069
   0.66625748  0.32909040  0.00006021
   0.01386230  0.68164511 -0.00017970
   0.32802465 -0.01234399 -0.00001325
   0.65253153 -0.00536687  0.00037527
   0.00697406 -0.00444421 -0.00011042
   0.32833838  0.31856460 -0.00025475
   0.33382291  0.68687708  0.00009879
   0.10675747  0.22345686  0.94872716
   0.22195221  0.10921499  0.05361386
   0.10999495  0.55126027  0.94880407
   0.21886425  0.44415381  0.04910176
   0.11188029  0.89041144  0.94512698
   0.22262152  0.77784763  0.05579658
   0.45002048  0.22367276  0.94857411
   0.55746867  0.11711256  0.05198734
   0.44722786  0.55805364  0.95154567
   0.56068102  0.44646048  0.04927686
   0.44365828  0.88894822  0.94477089
   0.55614241  0.77313154  0.05178666
   0.77964509  0.22735422  0.94965485
   0.89082609  0.11450995  0.04977914
   0.77430879  0.55330095  0.95110816
   0.88635858  0.44070240  0.04916357
   0.77601048  0.88442677  0.94919627
   0.88357557  0.77524981  0.05207118
unknown system                          
           1
     8.262977    4.772090    0.000000
    -8.271514    4.786853    0.000000
     0.000000    0.000000   30.000000
   V    Mo   W    S 
   3   3   3  18
Direct configuration=     9
   0.67012271  0.66986636 -0.00040575
   0.99658616  0.33123820  0.00025876
   0.66607509  0.33047088 -0.00003623
   0.01433223  0.68115677 -0.00018576
   0.32686271 -0.01384116  0.00002381
   0.65623021 -0.00497734  0.00033245
   0.00391244 -0.00420531 -0.00008640
   0.33119225  0.32443946 -0.00004601
   0.33351028  0.68417448  0.00005705
   0.10700768  0.22428811  0.94881540
   0.22235743  0.10996029  0.05289232
   0.10977374  0.55089074  0.94863220
   0.21816444  0.44392001  0.04983046
   0.11170550  0.89047075  0.94550240
   0.22283297  0.77753158  0.05554286
   0.44964997  0.22353922  0.94895507
   0.55762267  0.11727759  0.05175189
   0.44802718  0.55897115  0.95043450
   0.56149163  0.44697080  0.04974173
   0.44387484  0.88854432  0.94517757
   0.55656891  0.77284499  0.05185742
   0.78000173  0.22766017  0.94961878
   0.89181611  0.11590585  0.05046881
   0.77385084  0.55309177  0.95098298
   0.88629786  0.44043412  0.04931922
   0.77530214  0.88286425  0.94893146
   0.88304474  0.77472643  0.05163290
unknown system                          
           1
     8.258247    4.770659    0.000000
    -8.268487    4.788373    0.000000
     0.000000    0.000000   30.000000
   V    Mo   W    S 
   3   3   3  18
Direct configuration=    10
   0.66592807  0.66700400 -0.00039121
   0.99675916  0.33015071  0.00023281
   0.66608683  0.33136872 -0.00008411
   0.01529895  0.68105446 -0.00017889
   0.32603516 -0.01542169 -0.00001141
   0.65910041 -0.00461985  0.00036168
   0.00168617 -0.00371168 -0.00007122
   0.33346334  0.32921748  0.00001561
   0.33348016  0.68253196  0.00007268
   0.10733594  0.22475801  0.94886530
   0.22258191  0.11034032  0.05247565
   0.10976225  0.55100235  0.94855243
   0.21784341  0.44386500  0.05021542
   0.11157036  0.89072312  0.94555325
   0.22298038  0.77729885  0.05560998
   0.44918635  0.22327485  0.94922825
   0.55763054  0.11712936  0.05150644
   0.44821865  0.55941074  0.94970605
   0.56188190  0.44715260  0.05013824
   0.44415402  0.88861021  0.94537305
   0.55668885  0.77272823  0.05193761
   0.78017983  0.22775287  0.94963689
   0.89229747  0.11663496  0.05088016
   0.77397066  0.55318180  0.95096233
   0.88639533  0.44044513  0.04927969
   0.77486097  0.88187039  0.94875531
   0.88283740  0.77446156  0.05137791
unknown system                          
           1
     8.258173    4.774374    0.000000
    -8.271421    4.797309    0.000000
     0.000000    0.000000   30.000000
   V    Mo   W    S 
   3   3   3  18
Direct configuration=    11
   0.66242982  0.66499228 -0.00035318
   0.99529463  0.32722744  0.00026297
   0.66605616  0.33170469 -0.00009622
   0.01803254  0.68298609 -0.00019134
   0.32444688 -0.01809895 -0.00003781
   0.66081230 -0.00443764  0.00031152
   0.00100762 -0.00355159 -0.00000615
   0.33522630  0.33250402  0.00009471
   0.33368718  0.68308177  0.00010536
   0.10752396  0.22481287  0.94879181
   0.22286950  0.11048742  0.05218539
   0.11008113  0.55163803  0.94864354
   0.21806069  0.44425698  0.05018496
   0.11148985  0.89116115  0.94529668
   0.22325161  0.77733796  0.05606223
   0.44854720  0.22258910  0.94941953
   0.55719795  0.11651844  0.05126427
   0.44753283  0.55933034  0.94935153
   0.56182988  0.44713188  0.05040710
   0.44461591  0.88909682  0.94532588
   0.55661647  0.77280757  0.05213432
   0.78017548  0.22745667  0.94968696
   0.89203784  0.11633765  0.05113382
   0.77503531  0.55379370  0.95117418
   0.88681464  0.44109789  0.04902050
   0.77465738  0.88145339  0.94865392
   0.88288336  0.77449851  0.05117341
unknown system                          
           1
     8.260357    4.777859    0.000000
    -8.275975    4.804904    0.000000
     0.000000    0.000000   30.000000
   V    Mo   W    S 
   3   3   3  18
Direct configuration=    12
   0.66018450  0.66407208 -0.00033937
   0.99284859  0.32345852  0.00027350
   0.66608342  0.33146412 -0.00009049
   0.02068059  0.68540969 -0.00017144
   0.32310229 -0.02021075 -0.00012735
   0.66142604 -0.00415506  0.00028745
   0.00149052 -0.00349781 -0.00004945
   0.33612574  0.33383380  0.00007083
   0.33439621  0.68483511  0.00016608
   0.10759266  0.22469019  0.94878405
   0.22320570  0.11053724  0.05202833
   0.11045799  0.55211265  0.94890638
   0.21810366  0.44454748  0.04988277
   0.11162483  0.89169104  0.94502058
   0.22353474  0.77744769  0.05651703
   0.44803895  0.22204180  0.94961460
   0.55665795  0.11596587  0.05109010
   0.44676336  0.55928560  0.94928826
   0.56165954  0.44705679  0.05049583
   0.44492835  0.88960542  0.94517330
   0.55654541  0.77307019  0.05228014
   0.78014842  0.22721334  0.94964004
   0.89162794  0.11563743  0.05128358
   0.77610186  0.55449335  0.95155565
   0.88722801  0.44172539  0.04867902
   0.77464584  0.88135820  0.94869696
   0.88301130  0.77452508  0.05104352
unknown system                          
           1
     8.259305    4.776718    0.000000
    -8.274331    4.802736    0.000000
     0.000000    0.000000   30.000000
   V    Mo   W    S 
   3   3   3  18
Direct configuration=    13
   0.65893923  0.66387296 -0.00034275
   0.99011790  0.31969535  0.00027610
   0.66625281  0.33102809 -0.00003930
   0.02224863  0.68756201 -0.00011274
   0.32227273 -0.02118560 -0.00014355
   0.66106647 -0.00391373  0.00025781
   0.00271314 -0.00356983 -0.00005862
   0.33649304  0.33369386  0.00010292
   0.33576379  0.68701231  0.00022602
   0.10749029  0.22442442  0.94876167
   0.22347651  0.11050750  0.05195462
   0.11079147  0.55236381  0.94931192
   0.21791005  0.44469225  0.04940911
   0.11189073  0.89211697  0.94474521
   0.22384591  0.77771660  0.05678326
   0.44783588  0.22173254  0.94970081
   0.55616996  0.11564654  0.05099879
   0.44620732  0.55938856  0.94942033
   0.56149805  0.44701544  0.05039110
   0.44512396  0.89004139  0.94499661
   0.55659733  0.77341322  0.05237288
   0.77996642  0.22695220  0.94948675
   0.89121908  0.11469285  0.05135575
   0.77684827  0.55508100  0.95199751
   0.88753582  0.44213869  0.04833511
   0.77472929  0.88143934  0.94887362
   0.88321040  0.77465572  0.05093896
unknown system                          
           1
     8.260430    4.772209    0.000000
    -8.271635    4.791590    0.000000
     0.000000    0.000000   30.000000
   V    Mo   W    S 
   3   3   3  18
Direct configuration=    14
   0.65921076  0.66391896 -0.00033113
   0.99078438  0.32057152  0.00029258
   0.66619004  0.33116825 -0.00004977
   0.02212941  0.68717273 -0.00012764
   0.32234017 -0.02123453 -0.00012770
   0.66128496 -0.00402211  0.00026865
   0.00229590 -0.00362128 -0.00003551
   0.33643898  0.33390574  0.00010175
   0.33529479  0.68652660  0.00021047
   0.10752844  0.22449624  0.94876071
   0.22341513  0.11051323  0.05194148
   0.11073292  0.55235947  0.94917915
   0.21802791  0.44469435  0.04953920
   0.11180657  0.89203179  0.94479145
   0.22376809  0.77764863  0.05676616
   0.44780698  0.22171671  0.94969694
   0.55624728  0.11565508  0.05100119
   0.44628759  0.55933411  0.94938623
   0.56149199  0.44702013  0.05042253
   0.44510381  0.88993784  0.94502802
   0.55654358  0.77331433  0.05234544
   0.78005440  0.22701214  0.94954427
   0.89130517  0.11495104  0.05133168
   0.77676863  0.55499969  0.95189636
   0.88749410  0.44211225  0.04841324
   0.77469968  0.88141378  0.94880530
   0.88316280  0.77461776  0.05094885
unknown system                          
           1
     8.258556    4.775605    0.000000
    -8.272606    4.799928    0.000000
     0.000000    0.000000   30.000000
   V    Mo   W    S 
   3   3   3  18
Direct configuration=    15
   0.66143181  0.66454056 -0.00028749
   0.99518131  0.32642773  0.00036029
   0.66596460  0.33223212 -0.00012106
   0.02064946  0.68410047 -0.00023855
   0.32312248 -0.02097173 -0.00009127
   0.66273598 -0.00470356  0.00030613
  -0.00065900 -0.00415042  0.00003832
   0.33596615  0.33510061  0.00004112
   0.33235689  0.68311455  0.00006772
   0.10757082  0.22494407  0.94883855
   0.22303891  0.11051286  0.05187484
   0.11025930  0.55221259  0.94838436
   0.21849795  0.44461051  0.05036322
   0.11134479  0.89146152  0.94511792
   0.22318675  0.77713574  0.05665515
   0.44769711  0.22158841  0.94972587
   0.55675303  0.11584840  0.05101947
   0.44707358  0.55927037  0.94927634
   0.56157531  0.44722445  0.05052916
   0.44488882  0.88920101  0.94524352
   0.55621422  0.77256065  0.05211218
   0.78073105  0.22755309  0.94991663
   0.89197281  0.11668882  0.05120480
   0.77618935  0.55455224  0.95133864
   0.88725009  0.44185927  0.04889358
   0.77447773  0.88114409  0.94838335
   0.88274315  0.77415601  0.05104710
unknown system                          
           1
     8.261159    4.777205    0.000000
    -8.275806    4.802560    0.000000
     0.000000    0.000000   30.000000
   V    Mo   W    S 
   3   3   3  18
Direct configuration=    16
   0.66145794  0.66496459 -0.00030668
   0.99380455  0.32472407  0.00033006
   0.66591957  0.33181941 -0.00007032
   0.02145639  0.68537960 -0.00018145
   0.32291326 -0.02131508 -0.00009897
   0.66209856 -0.00473971  0.00027565
  -0.00003435 -0.00451482 -0.00001539
   0.33607868  0.33454744  0.00005775
   0.33300034  0.68448265  0.00015231
   0.10741530  0.22463268  0.94886156
   0.22313244  0.11040617  0.05179696
   0.11046503  0.55234299  0.94863507
   0.21837018  0.44470825  0.05002780
   0.11154599  0.89175668  0.94501408
   0.22340527  0.77730529  0.05673119
   0.44761736  0.22146206  0.94981517
   0.55650435  0.11569874  0.05092307
   0.44672315  0.55942418  0.94942136
   0.56145014  0.44714357  0.05040446
   0.44501850  0.88948642  0.94515859
   0.55619272  0.77281941  0.05214210
   0.78048371  0.22736167  0.94982742
   0.89166933  0.11586365  0.05125972
   0.77660249  0.55482541  0.95163053
   0.88732494  0.44207626  0.04867641
   0.77461725  0.88128863  0.94848673
   0.88298137  0.77426423  0.05104475
unknown system                          
           1
     8.260916    4.776967    0.000000
    -8.275348    4.801950    0.000000
     0.000000    0.000000   30.000000
   V    Mo   W    S 
   3   3   3  18
Direct configuration=    17
   0.66137519  0.66514648 -0.00032194
   0.99292415  0.32354260  0.00032729
   0.66595963  0.33157946 -0.00005414
   0.02178127  0.68604431 -0.00016969
   0.32279261 -0.02141047 -0.00012152
   0.66182533 -0.00466153  0.00026566
   0.00035760 -0.00458680 -0.00003250
   0.33608191  0.33422591  0.00004894
   0.33350524  0.68521994  0.00015497
   0.10734391  0.22448627  0.94886933
   0.22318278  0.11036717  0.05179625
   0.11057562  0.55241355  0.94879241
   0.21826434  0.44474671  0.04984823
   0.11168445  0.89187960  0.94493774
   0.22350550  0.77743765  0.05680846
   0.44760907  0.22141319  0.94982035
   0.55637373  0.11562877  0.05091464
   0.44655851  0.55946758  0.94950932
   0.56140768  0.44714258  0.05035974
   0.44505774  0.88960948  0.94510123
   0.55621003  0.77295663  0.05218192
   0.78036304  0.22724998  0.94976620
   0.89151589  0.11548766  0.05126040
   0.77681305  0.55496862  0.95176770
   0.88739304  0.44217384  0.04856824
   0.77467023  0.88135636  0.94853797
   0.88308291  0.77432892  0.05106273
unknown system                          
           1
     8.264090    4.777103    0.000000
    -8.271843    4.790527    0.000000
     0.000000    0.000000   30.000000
   V    Mo   W    S 
   3   3   3  18
Direct configuration=    18
   0.66140422  0.66511177 -0.00032091
   0.99314885  0.32384280  0.00032935
   0.66594602  0.33163867 -0.00005848
   0.02170797  0.68587861 -0.00017634
   0.32282617 -0.02139335 -0.00011789
   0.66189688 -0.00468684  0.00026864
   0.00024723 -0.00457458 -0.00002710
   0.33607947  0.33431556  0.00004817
   0.33337360  0.68503245  0.00014705
   0.10735990  0.22451866  0.94886999
   0.22317140  0.11037649  0.05179211
   0.11055420  0.55240063  0.94875171
   0.21828882  0.44473821  0.04989311
   0.11165395  0.89185130  0.94495633
   0.22348093  0.77740832  0.05679878
   0.44760188  0.22141453  0.94982427
   0.55640207  0.11564102  0.05091392
   0.44659292  0.55945986  0.94949084
   0.56141439  0.44714293  0.05037117
   0.44504798  0.88957458  0.94511681
   0.55620237  0.77292554  0.05217218
   0.78039324  0.22727638  0.94978267
   0.89155400  0.11557744  0.05125845
   0.77676948  0.55493751  0.95173708
   0.88737526  0.44215334  0.04859473
   0.77465928  0.88133931  0.94852411
   0.88306196  0.77431333  0.05105916
unknown system                          
           1
     8.262937    4.775526    0.000000
    -8.268212    4.784661    0.000000
     0.000000    0.000000   30.000000
   V    Mo   W    S 
   3   3   3  18
Direct configuration=    19
   0.66207692  0.66457017 -0.00023153
   0.99582555  0.32784529  0.00037698
   0.66582141  0.33249556 -0.00012886
   0.02122222  0.68382912 -0.00020272
   0.32290054 -0.02171891 -0.00004005
   0.66325886 -0.00451304  0.00033073
  -0.00154339 -0.00480942  0.00006332
   0.33626798  0.33583518  0.00001114
   0.33093925  0.68230179  0.00014190
   0.10735043  0.22497645  0.94898346
   0.22304265  0.11040726  0.05162578
   0.11009143  0.55200095  0.94814840
   0.21833374  0.44463818  0.05052768
   0.11134908  0.89155405  0.94519892
   0.22318840  0.77701875  0.05664054
   0.44759736  0.22114061  0.95001996
   0.55678119  0.11589190  0.05077869
   0.44712419  0.55957914  0.94921338
   0.56169952  0.44731609  0.05050096
   0.44498628  0.88922732  0.94527976
   0.55610122  0.77242902  0.05191634
   0.78089618  0.22780648  0.95013812
   0.89220028  0.11696808  0.05117302
   0.77628784  0.55448831  0.95135658
   0.88717225  0.44179584  0.04891836
   0.77457451  0.88114650  0.94829833
   0.88266857  0.77399380  0.05096069
unknown system                          
           1
     8.263228    4.777812    0.000000
    -8.273291    4.795235    0.000000
     0.000000    0.000000   30.000000
   V    Mo   W    S 
   3   3   3  18
Direct configuration=    20
   0.66268830  0.66416503 -0.00023703
   0.99882834  0.33211174  0.00042438
   0.66565583  0.33340295 -0.00017591
   0.02050258  0.68163397 -0.00030372
   0.32323681 -0.02190701 -0.00002011
   0.66443254 -0.00478886  0.00035863
  -0.00346025 -0.00507330  0.00011931
   0.33649483  0.33755473 -0.00001824
   0.32875575  0.67962414  0.00001010
   0.10748452  0.22538908  0.94906832
   0.22290784  0.11051023  0.05147230
   0.10977596  0.55181728  0.94757138
   0.21857534  0.44450806  0.05113246
   0.11100173  0.89122140  0.94545963
   0.22286249  0.77662089  0.05658983
   0.44741638  0.22096803  0.95017084
   0.55709858  0.11603893  0.05070813
   0.44759197  0.55961181  0.94899439
   0.56178608  0.44736107  0.05064252
   0.44487036  0.88873876  0.94551681
   0.55592594  0.77198669  0.05171893
   0.78132692  0.22823101  0.95039113
   0.89275062  0.11814725  0.05113669
   0.77587993  0.55413629  0.95099989
   0.88694148  0.44158022  0.04925995
   0.77446900  0.88093480  0.94809531
   0.88241459  0.77368925  0.05091399
unknown system                          
           1
     8.265077    4.779618    0.000000
    -8.277104    4.800441    0.000000
     0.000000    0.000000   30.000000
   V    Mo   W    S 
   3   3   3  18
Direct configuration=    21
   0.66276102  0.66484183 -0.00032348
   0.99754452  0.33039719  0.00041906
   0.66571952  0.33306018 -0.00011305
   0.02126079  0.68288725 -0.00026842
   0.32316627 -0.02245067 -0.00005769
   0.66384454 -0.00509506  0.00033114
  -0.00333694 -0.00571531  0.00007749
   0.33679264  0.33765189 -0.00000027
   0.32950249  0.68096743  0.00003157
   0.10738371  0.22503960  0.94913142
   0.22300985  0.11051215  0.05135333
   0.11002622  0.55203126  0.94785986
   0.21847874  0.44459669  0.05073091
   0.11126402  0.89145401  0.94532406
   0.22305541  0.77682029  0.05678249
   0.44713330  0.22085963  0.95019869
   0.55673959  0.11576191  0.05070083
   0.44722984  0.55972787  0.94919753
   0.56149502  0.44731126  0.05054745
   0.44495137  0.88883920  0.94543129
   0.55578602  0.77224074  0.05176854
   0.78105917  0.22794793  0.95022521
   0.89238436  0.11721986  0.05115472
   0.77649204  0.55455881  0.95132329
   0.88710527  0.44196264  0.04903025
   0.77457131  0.88103815  0.94817187
   0.88279434  0.77374770  0.05097180
unknown system                          
           1
     8.267990    4.781590    0.000000
    -8.281186    4.804434    0.000000
     0.000000    0.000000   30.000000
   V    Mo   W    S 
   3   3   3  18
Direct configuration=    22
   0.66299206  0.66549229 -0.00030088
   0.99613169  0.32867152  0.00038481
   0.66563239  0.33252752 -0.00009387
   0.02214594  0.68422454 -0.00021662
   0.32315753 -0.02305529 -0.00005227
   0.66347496 -0.00512861  0.00032774
  -0.00357120 -0.00658056  0.00008309
   0.33728179  0.33801193 -0.00000379
   0.33008269  0.68216879  0.00009030
   0.10724801  0.22469704  0.94923199
   0.22312740  0.11054668  0.05114861
   0.11020481  0.55217779  0.94807588
   0.21829460  0.44469672  0.05045555
   0.11154394  0.89164851  0.94522259
   0.22326631  0.77703506  0.05691386
   0.44695545  0.22074694  0.95028988
   0.55649194  0.11557395  0.05065609
   0.44699972  0.55992740  0.94929515
   0.56135944  0.44740964  0.05045956
   0.44506959  0.88889695  0.94531628
   0.55569014  0.77244615  0.05180840
   0.78074634  0.22766757  0.95015205
   0.89206144  0.11648065  0.05113983
   0.77702593  0.55485023  0.95160201
   0.88715592  0.44221943  0.04883799
   0.77460634  0.88110416  0.94814420
   0.88303927  0.77375746  0.05103146
unknown system                          
           1
     8.268453    4.781968    0.000000
    -8.282962    4.807084    0.000000
     0.000000    0.000000   30.000000
   V    Mo   W    S 
   3   3   3  18
Direct configuration=    23
   0.66334289  0.66599225 -0.00029084
   0.99564623  0.32817619  0.00036829
   0.66552182  0.33229875 -0.00009452
   0.02264694  0.68478704 -0.00020099
   0.32330197 -0.02362181 -0.00007627
   0.66354376 -0.00524696  0.00031073
  -0.00454236 -0.00760622  0.00006784
   0.33792234  0.33917317 -0.00001424
   0.33002431  0.68237298  0.00009965
   0.10714132  0.22451796  0.94934869
   0.22319338  0.11060556  0.05092241
   0.11024151  0.55224052  0.94812974
   0.21811844  0.44471938  0.05039888
   0.11173177  0.89176979  0.94521019
   0.22335924  0.77710900  0.05702613
   0.44674595  0.22057877  0.95038628
   0.55637680  0.11545137  0.05063858
   0.44706277  0.56018635  0.94929757
   0.56134843  0.44758762  0.05044231
   0.44514135  0.88883512  0.94526488
   0.55561253  0.77247620  0.05181185
   0.78058772  0.22751979  0.95013854
   0.89194789  0.11621436  0.05113833
   0.77735870  0.55504714  0.95174492
   0.88717169  0.44235255  0.04876632
   0.77456967  0.88105916  0.94806035
   0.88309741  0.77361843  0.05110427
unknown system                          
           1
     8.268738    4.782119    0.000000
    -8.283040    4.806877    0.000000
     0.000000    0.000000   30.000000
   V    Mo   W    S 
   3   3   3  18
Direct configuration=    24
   0.66312731  0.66609315 -0.00029290
   0.99458473  0.32670011  0.00035240
   0.66554448  0.33196932 -0.00008385
   0.02280188  0.68546891 -0.00019068
   0.32326672 -0.02354339 -0.00011372
   0.66325917 -0.00510598  0.00028618
  -0.00413670 -0.00768095  0.00002927
   0.33802176  0.33894598 -0.00000876
   0.33075478  0.68314138  0.00010187
   0.10710881  0.22439544  0.94933168
   0.22323623  0.11058141  0.05094991
   0.11033555  0.55232669  0.94832849
   0.21799712  0.44471977  0.05023585
   0.11186294  0.89189936  0.94514278
   0.22346022  0.77724461  0.05706420
   0.44681531  0.22063323  0.95034427
   0.55629657  0.11542392  0.05067648
   0.44701433  0.56023316  0.94934665
   0.56138131  0.44761139  0.05040764
   0.44516753  0.88897925  0.94520387