   27   27  100    1
  0.9710400E+02  0.1002848E-08  0.1002848E-08  0.3000000E-08  0.5000000E-15
  1.000000000000000E-004
  CAR 
 unknown system                          
    159     34    120
 
  0.0000000E+00  0.0000000E+00  0.0000000E+00  0.1562500E-01
    1      -17.855325   1.000000
    2      -16.768658   1.000000
    3      -16.672230   1.000000
    4      -16.552142   1.000000
    5      -16.541535   1.000000
    6      -16.535825   1.000000
    7      -16.407750   1.000000
    8      -16.323716   1.000000
    9      -16.229905   1.000000
   10      -16.110749   1.000000
   11      -16.071836   1.000000
   12      -15.975448   1.000000
   13      -15.891203   1.000000
   14      -15.638845   1.000000
   15      -15.598467   1.000000
   16      -15.449736   1.000000
   17      -15.235086   1.000000
   18      -15.179705   1.000000
   19       -9.480516   1.000000
   20       -9.011307   1.000000
   21       -8.972430   1.000000
   22       -8.863698   1.000000
   23       -8.740560   1.000000
   24       -8.680894   1.000000
   25       -8.592856   1.000000
   26       -8.576890   1.000000
   27       -8.555068   1.000000
   28       -8.473607   1.000000
   29       -8.454815   1.000000
   30       -8.404298   1.000000
   31       -8.341290   1.000000
   32       -8.151282   1.000000
   33       -8.148017   1.000000
   34       -8.037821   1.000000
   35       -7.820607   1.000000
   36       -7.752278   1.000000
   37       -7.645430   1.000000
   38       -7.623600   1.000000
   39       -7.507014   1.000000
   40       -7.372599   1.000000
   41       -7.346889   1.000000
   42       -7.183437   1.000000
   43       -7.052602   1.000000
   44       -6.879182   1.000000
   45       -6.875104   1.000000
   46       -6.829583   1.000000
   47       -6.812234   1.000000
   48       -6.729003   1.000000
   49       -6.602327   1.000000
   50       -6.491794   1.000000
   51       -6.411424   1.000000
   52       -6.284879   1.000000
   53       -6.210958   1.000000
   54       -6.168787   1.000000
   55       -6.108061   1.000000
   56       -6.012443   1.000000
   57       -5.941689   1.000000
   58       -5.859659   1.000000
   59       -5.836708   1.000000
   60       -5.800686   1.000000
   61       -5.611250   1.000000
   62       -5.337115   1.000000
   63       -5.291267   1.000000
   64       -5.022415   1.000000
   65       -4.991398   1.000000
   66       -4.903641   1.000000
   67       -4.836127   1.000000
   68       -4.772578   1.000000
   69       -4.707460   1.000000
   70       -4.684097   1.000000
   71       -4.622499   1.000000
   72       -4.553471   1.000000
   73       -4.490606   1.000000
   74       -4.354139   1.000000
   75       -4.281315   1.000000
   76       -4.005415   1.000000
   77       -3.757844   0.999910
   78       -3.575131   0.992916
   79       -3.482887   0.964126
   80       -3.186047   0.382752
   81       -3.128076   0.239417
   82       -2.830014   0.002433
   83       -2.641546   0.000017
   84       -2.624511   0.000010
   85       -2.533055   0.000000
   86       -2.455042   0.000000
   87       -2.236745   0.000000
   88       -2.196661   0.000000
   89       -2.148500   0.000000
   90       -1.988051   0.000000
   91       -1.868653   0.000000
   92       -1.604983   0.000000
   93       -1.427228   0.000000
   94       -1.155194   0.000000
   95       -1.106566   0.000000
   96       -1.050903   0.000000
   97       -1.026284   0.000000
   98       -0.896302   0.000000
   99       -0.837386   0.000000
  100       -0.596078   0.000000
  101       -0.561434   0.000000
  102       -0.491153   0.000000
  103       -0.295927   0.000000
  104       -0.271912   0.000000
  105       -0.118214   0.000000
  106       -0.044030   0.000000
  107        0.001305   0.000000
  108        0.043439   0.000000
  109        0.136820   0.000000
  110        0.226829   0.000000
  111        0.393511   0.000000
  112        0.476438   0.000000
  113        0.536412   0.000000
  114        0.962860   0.000000
  115        1.023392   0.000000
  116        1.051474   0.000000
  117        1.137355   0.000000
  118        1.654299   0.000000
  119        1.843968   0.000000
  120        2.179020   0.000000
 
  0.1250000E+00  0.2775558E-16  0.0000000E+00  0.3125000E-01
    1      -17.831733   1.000000
    2      -16.818082   1.000000
    3      -16.722854   1.000000
    4      -16.607002   1.000000
    5      -16.583092   1.000000
    6      -16.470624   1.000000
    7      -16.389425   1.000000
    8      -16.303418   1.000000
    9      -16.237664   1.000000
   10      -16.093135   1.000000
   11      -15.982744   1.000000
   12      -15.965286   1.000000
   13      -15.889507   1.000000
   14      -15.645409   1.000000
   15      -15.599037   1.000000
   16      -15.468543   1.000000
   17      -15.236633   1.000000
   18      -15.182848   1.000000
   19       -9.475781   1.000000
   20       -9.142457   1.000000
   21       -9.033772   1.000000
   22       -8.993766   1.000000
   23       -8.818399   1.000000
   24       -8.727576   1.000000
   25       -8.645590   1.000000
   26       -8.586431   1.000000
   27       -8.502152   1.000000
   28       -8.449195   1.000000
   29       -8.416155   1.000000
   30       -8.274085   1.000000
   31       -8.180864   1.000000
   32       -8.112683   1.000000
   33       -8.058817   1.000000
   34       -7.982283   1.000000
   35       -7.760724   1.000000
   36       -7.718081   1.000000
   37       -7.664511   1.000000
   38       -7.568193   1.000000
   39       -7.531762   1.000000
   40       -7.466701   1.000000
   41       -7.302135   1.000000
   42       -7.180819   1.000000
   43       -7.085958   1.000000
   44       -7.000269   1.000000
   45       -6.941755   1.000000
   46       -6.809855   1.000000
   47       -6.735028   1.000000
   48       -6.647130   1.000000
   49       -6.550081   1.000000
   50       -6.448255   1.000000
   51       -6.426786   1.000000
   52       -6.329484   1.000000
   53       -6.219272   1.000000
   54       -6.154770   1.000000
   55       -6.118737   1.000000
   56       -6.086957   1.000000
   57       -5.955623   1.000000
   58       -5.890181   1.000000
   59       -5.772500   1.000000
   60       -5.720791   1.000000
   61       -5.582909   1.000000
   62       -5.447076   1.000000
   63       -5.373644   1.000000
   64       -5.109098   1.000000
   65       -5.070606   1.000000
   66       -4.914471   1.000000
   67       -4.851344   1.000000
   68       -4.758844   1.000000
   69       -4.726008   1.000000
   70       -4.621459   1.000000
   71       -4.581479   1.000000
   72       -4.475376   1.000000
   73       -4.449345   1.000000
   74       -4.318936   1.000000
   75       -4.255722   1.000000
   76       -4.061097   1.000000
   77       -3.777296   0.999948
   78       -3.651013   0.998603
   79       -3.545435   0.987551
   80       -3.145531   0.279356
   81       -3.090480   0.165023
   82       -2.793144   0.001047
   83       -2.614043   0.000007
   84       -2.595153   0.000004
   85       -2.532466   0.000000
   86       -2.454341   0.000000
   87       -2.207499   0.000000
   88       -2.170153   0.000000
   89       -2.106212   0.000000
   90       -1.981157   0.000000
   91       -1.878655   0.000000
   92       -1.609438   0.000000
   93       -1.407238   0.000000
   94       -1.170729   0.000000
   95       -1.123696   0.000000
   96       -1.079387   0.000000
   97       -0.994220   0.000000
   98       -0.905448   0.000000
   99       -0.836962   0.000000
  100       -0.690553   0.000000
  101       -0.628786   0.000000
  102       -0.544808   0.000000
  103       -0.433652   0.000000
  104       -0.331902   0.000000
  105       -0.166862   0.000000
  106       -0.074243   0.000000
  107        0.021713   0.000000
  108        0.063264   0.000000
  109        0.173480   0.000000
  110        0.254199   0.000000
  111        0.454729   0.000000
  112        0.494954   0.000000
  113        0.565916   0.000000
  114        0.964860   0.000000
  115        1.011485   0.000000
  116        1.058677   0.000000
  117        1.110962   0.000000
  118        1.696131   0.000000
  119        1.885193   0.000000
  120        2.213555   0.000000
 
  0.2500000E+00  0.5551115E-16  0.0000000E+00  0.3125000E-01
    1      -17.763505   1.000000
    2      -17.000849   1.000000
    3      -16.733058   1.000000
    4      -16.659484   1.000000
    5      -16.635492   1.000000
    6      -16.436835   1.000000
    7      -16.381053   1.000000
    8      -16.272607   1.000000
    9      -16.211032   1.000000
   10      -16.023908   1.000000
   11      -15.954524   1.000000
   12      -15.887178   1.000000
   13      -15.827771   1.000000
   14      -15.665634   1.000000
   15      -15.595913   1.000000
   16      -15.518020   1.000000
   17      -15.241668   1.000000
   18      -15.191415   1.000000
   19       -9.542394   1.000000
   20       -9.325359   1.000000
   21       -9.186201   1.000000
   22       -9.084395   1.000000
   23       -8.958333   1.000000
   24       -8.811609   1.000000
   25       -8.617652   1.000000
   26       -8.537059   1.000000
   27       -8.443835   1.000000
   28       -8.410340   1.000000
   29       -8.312329   1.000000
   30       -8.238295   1.000000
   31       -8.099125   1.000000
   32       -8.073304   1.000000
   33       -7.836469   1.000000
   34       -7.809261   1.000000
   35       -7.757741   1.000000
   36       -7.713750   1.000000
   37       -7.632443   1.000000
   38       -7.565449   1.000000
   39       -7.482862   1.000000
   40       -7.382041   1.000000
   41       -7.273573   1.000000
   42       -7.186732   1.000000
   43       -7.115254   1.000000
   44       -7.067760   1.000000
   45       -6.966486   1.000000
   46       -6.778426   1.000000
   47       -6.716598   1.000000
   48       -6.615496   1.000000
   49       -6.457130   1.000000
   50       -6.420100   1.000000
   51       -6.346639   1.000000
   52       -6.331475   1.000000
   53       -6.255455   1.000000
   54       -6.233028   1.000000
   55       -6.153715   1.000000
   56       -6.078052   1.000000
   57       -6.002027   1.000000
   58       -5.849798   1.000000
   59       -5.763819   1.000000
   60       -5.691435   1.000000
   61       -5.663628   1.000000
   62       -5.524579   1.000000
   63       -5.450566   1.000000
   64       -5.333328   1.000000
   65       -5.281373   1.000000
   66       -4.954314   1.000000
   67       -4.850827   1.000000
   68       -4.723100   1.000000
   69       -4.657402   1.000000
   70       -4.591537   1.000000
   71       -4.476660   1.000000
   72       -4.401157   1.000000
   73       -4.353198   1.000000
   74       -4.294234   1.000000
   75       -4.238927   1.000000
   76       -4.168194   1.000000
   77       -3.811383   0.999981
   78       -3.786431   0.999960
   79       -3.593985   0.995149
   80       -3.094944   0.172978
   81       -3.026208   0.076575
   82       -2.726802   0.000196
   83       -2.606964   0.000006
   84       -2.522470   0.000000
   85       -2.488210   0.000000
   86       -2.437321   0.000000
   87       -2.127079   0.000000
   88       -2.100866   0.000000
   89       -2.022554   0.000000
   90       -1.935123   0.000000
   91       -1.878198   0.000000
   92       -1.605367   0.000000
   93       -1.385422   0.000000
   94       -1.233552   0.000000
   95       -1.176343   0.000000
   96       -1.148181   0.000000
   97       -0.987419   0.000000
   98       -0.936101   0.000000
   99       -0.867382   0.000000
  100       -0.831377   0.000000
  101       -0.739993   0.000000
  102       -0.648339   0.000000
  103       -0.600338   0.000000
  104       -0.480746   0.000000
  105       -0.236329   0.000000
  106       -0.162380   0.000000
  107       -0.004082   0.000000
  108        0.081747   0.000000
  109        0.189123   0.000000
  110        0.275274   0.000000
  111        0.466178   0.000000
  112        0.549781   0.000000
  113        0.626831   0.000000
  114        0.968686   0.000000
  115        1.020114   0.000000
  116        1.056339   0.000000
  117        1.162039   0.000000
  118        1.813144   0.000000
  119        2.002139   0.000000
  120        2.315660   0.000000
 
  0.3750000E+00  0.0000000E+00  0.0000000E+00  0.3125000E-01
    1      -17.663129   1.000000
    2      -17.193373   1.000000
    3      -16.736601   1.000000
    4      -16.695762   1.000000
    5      -16.663468   1.000000
    6      -16.434565   1.000000
    7      -16.378318   1.000000
    8      -16.279890   1.000000
    9      -16.126672   1.000000
   10      -15.982783   1.000000
   11      -15.913432   1.000000
   12      -15.876979   1.000000
   13      -15.738019   1.000000
   14      -15.671811   1.000000
   15      -15.605123   1.000000
   16      -15.562254   1.000000
   17      -15.248537   1.000000
   18      -15.201572   1.000000
   19       -9.711629   1.000000
   20       -9.359381   1.000000
   21       -9.280995   1.000000
   22       -9.134132   1.000000
   23       -9.048096   1.000000
   24       -8.879261   1.000000
   25       -8.555047   1.000000
   26       -8.449079   1.000000
   27       -8.404349   1.000000
   28       -8.328777   1.000000
   29       -8.281816   1.000000
   30       -8.200368   1.000000
   31       -8.141762   1.000000
   32       -8.082791   1.000000
   33       -7.898128   1.000000
   34       -7.797411   1.000000
   35       -7.775312   1.000000
   36       -7.720749   1.000000
   37       -7.575724   1.000000
   38       -7.402429   1.000000
   39       -7.367036   1.000000
   40       -7.304095   1.000000
   41       -7.224277   1.000000
   42       -7.145965   1.000000
   43       -7.078151   1.000000
   44       -7.046362   1.000000
   45       -6.840330   1.000000
   46       -6.744459   1.000000
   47       -6.670974   1.000000
   48       -6.576572   1.000000
   49       -6.510421   1.000000
   50       -6.417194   1.000000
   51       -6.374097   1.000000
   52       -6.318918   1.000000
   53       -6.269395   1.000000
   54       -6.222182   1.000000
   55       -6.114846   1.000000
   56       -6.067516   1.000000
   57       -6.034601   1.000000
   58       -5.881701   1.000000
   59       -5.822159   1.000000
   60       -5.758097   1.000000
   61       -5.718166   1.000000
   62       -5.633329   1.000000
   63       -5.548074   1.000000
   64       -5.415185   1.000000
   65       -5.329472   1.000000
   66       -5.009699   1.000000
   67       -4.849755   1.000000
   68       -4.783596   1.000000
   69       -4.677415   1.000000
   70       -4.598740   1.000000
   71       -4.539198   1.000000
   72       -4.384123   1.000000
   73       -4.318384   1.000000
   74       -4.220817   1.000000
   75       -4.162871   1.000000
   76       -4.115557   1.000000
   77       -3.937339   1.000000
   78       -3.776418   0.999947
   79       -3.585120   0.994192
   80       -3.071154   0.133354
   81       -2.976538   0.037561
   82       -2.687259   0.000065
   83       -2.625361   0.000010
   84       -2.496194   0.000000
   85       -2.415322   0.000000
   86       -2.372578   0.000000
   87       -2.041182   0.000000
   88       -2.012293   0.000000
   89       -1.960522   0.000000
   90       -1.881694   0.000000
   91       -1.772154   0.000000
   92       -1.599811   0.000000
   93       -1.422863   0.000000
   94       -1.382520   0.000000
   95       -1.249502   0.000000
   96       -1.232269   0.000000
   97       -1.063704   0.000000
   98       -0.945341   0.000000
   99       -0.908424   0.000000
  100       -0.880094   0.000000
  101       -0.836656   0.000000
  102       -0.778488   0.000000
  103       -0.627333   0.000000
  104       -0.560658   0.000000
  105       -0.286720   0.000000
  106       -0.226788   0.000000
  107       -0.064523   0.000000
  108        0.026956   0.000000
  109        0.130389   0.000000
  110        0.261923   0.000000
  111        0.452671   0.000000
  112        0.578524   0.000000
  113        0.668887   0.000000
  114        0.983533   0.000000
  115        1.025250   0.000000
  116        1.095219   0.000000
  117        1.274042   0.000000
  118        1.988372   0.000000
  119        2.180115   0.000000
  120        2.433717   0.000000
 
  0.5000000E+00  0.1110223E-15  0.0000000E+00  0.1562500E-01
    1      -17.593703   1.000000
    2      -17.295856   1.000000
    3      -16.741609   1.000000
    4      -16.706285   1.000000
    5      -16.670477   1.000000
    6      -16.437710   1.000000
    7      -16.376453   1.000000
    8      -16.284845   1.000000
    9      -16.066388   1.000000
   10      -16.010842   1.000000
   11      -15.882111   1.000000
   12      -15.849281   1.000000
   13      -15.729116   1.000000
   14      -15.687277   1.000000
   15      -15.600669   1.000000
   16      -15.569728   1.000000
   17      -15.251981   1.000000
   18      -15.206349   1.000000
   19       -9.781908   1.000000
   20       -9.386799   1.000000
   21       -9.293102   1.000000
   22       -9.149543   1.000000
   23       -9.071436   1.000000
   24       -8.901749   1.000000
   25       -8.529122   1.000000
   26       -8.401926   1.000000
   27       -8.378028   1.000000
   28       -8.322208   1.000000
   29       -8.258903   1.000000
   30       -8.183040   1.000000
   31       -8.146500   1.000000
   32       -8.049703   1.000000
   33       -7.993125   1.000000
   34       -7.867057   1.000000
   35       -7.808030   1.000000
   36       -7.747223   1.000000
   37       -7.515933   1.000000
   38       -7.382381   1.000000
   39       -7.299457   1.000000
   40       -7.248688   1.000000
   41       -7.132359   1.000000
   42       -7.098897   1.000000
   43       -7.057981   1.000000
   44       -7.014647   1.000000
   45       -6.841693   1.000000
   46       -6.697691   1.000000
   47       -6.611197   1.000000
   48       -6.573064   1.000000
   49       -6.524400   1.000000
   50       -6.443300   1.000000
   51       -6.368634   1.000000
   52       -6.342443   1.000000
   53       -6.248481   1.000000
   54       -6.218328   1.000000
   55       -6.152519   1.000000
   56       -6.103250   1.000000
   57       -6.058104   1.000000
   58       -5.916068   1.000000
   59       -5.822312   1.000000
   60       -5.805462   1.000000
   61       -5.718275   1.000000
   62       -5.667576   1.000000
   63       -5.462078   1.000000
   64       -5.409521   1.000000
   65       -5.297038   1.000000
   66       -5.231493   1.000000
   67       -4.904934   1.000000
   68       -4.845234   1.000000
   69       -4.683359   1.000000
   70       -4.587243   1.000000
   71       -4.520695   1.000000
   72       -4.359787   1.000000
   73       -4.287081   1.000000
   74       -4.201243   1.000000
   75       -4.129593   1.000000
   76       -4.088881   1.000000
   77       -3.988245   1.000000
   78       -3.764855   0.999926
   79       -3.568865   0.991995
   80       -3.066314   0.126125
   81       -2.957975   0.028004
   82       -2.676903   0.000048
   83       -2.631686   0.000012
   84       -2.495883   0.000000
   85       -2.386092   0.000000
   86       -2.334109   0.000000
   87       -2.013645   0.000000
   88       -1.971962   0.000000
   89       -1.900174   0.000000
   90       -1.847731   0.000000
   91       -1.687679   0.000000
   92       -1.613869   0.000000
   93       -1.543364   0.000000
   94       -1.403920   0.000000
   95       -1.287118   0.000000
   96       -1.275708   0.000000
   97       -1.091477   0.000000
   98       -0.982663   0.000000
   99       -0.922444   0.000000
  100       -0.880856   0.000000
  101       -0.863983   0.000000
  102       -0.819561   0.000000
  103       -0.656669   0.000000
  104       -0.553246   0.000000
  105       -0.306268   0.000000
  106       -0.248507   0.000000
  107       -0.090733   0.000000
  108       -0.004482   0.000000
  109        0.081630   0.000000
  110        0.253138   0.000000
  111        0.443393   0.000000
  112        0.589803   0.000000
  113        0.683172   0.000000
  114        0.997900   0.000000
  115        1.014141   0.000000
  116        1.129494   0.000000
  117        1.320921   0.000000
  118        2.163550   0.000000
  119        2.271873   0.000000
  120        2.403403   0.000000
 
  0.0000000E+00  0.1250000E+00  0.0000000E+00  0.3125000E-01
    1      -17.831000   1.000000
    2      -16.806486   1.000000
    3      -16.743554   1.000000
    4      -16.619502   1.000000
    5      -16.547750   1.000000
    6      -16.452436   1.000000
    7      -16.399379   1.000000
    8      -16.340024   1.000000
    9      -16.253839   1.000000
   10      -16.065352   1.000000
   11      -16.005953   1.000000
   12      -15.975327   1.000000
   13      -15.859788   1.000000
   14      -15.637517   1.000000
   15      -15.592935   1.000000
   16      -15.455568   1.000000
   17      -15.255207   1.000000
   18      -15.184717   1.000000
   19       -9.485029   1.000000
   20       -9.145416   1.000000
   21       -9.041437   1.000000
   22       -8.988959   1.000000
   23       -8.759950   1.000000
   24       -8.692750   1.000000
   25       -8.652763   1.000000
   26       -8.571972   1.000000
   27       -8.518211   1.000000
   28       -8.490912   1.000000
   29       -8.450998   1.000000
   30       -8.312126   1.000000
   31       -8.241759   1.000000
   32       -8.085963   1.000000
   33       -8.012724   1.000000
   34       -7.900388   1.000000
   35       -7.840350   1.000000
   36       -7.759155   1.000000
   37       -7.708598   1.000000
   38       -7.517386   1.000000
   39       -7.446377   1.000000
   40       -7.376528   1.000000
   41       -7.329681   1.000000
   42       -7.210672   1.000000
   43       -7.117775   1.000000
   44       -6.952579   1.000000
   45       -6.895495   1.000000
   46       -6.877783   1.000000
   47       -6.797589   1.000000
   48       -6.696556   1.000000
   49       -6.596621   1.000000
   50       -6.503060   1.000000
   51       -6.389579   1.000000
   52       -6.298585   1.000000
   53       -6.235531   1.000000
   54       -6.159969   1.000000
   55       -6.121698   1.000000
   56       -5.996543   1.000000
   57       -5.938800   1.000000
   58       -5.851009   1.000000
   59       -5.826766   1.000000
   60       -5.667752   1.000000
   61       -5.561346   1.000000
   62       -5.366866   1.000000
   63       -5.307384   1.000000
   64       -5.199177   1.000000
   65       -5.063754   1.000000
   66       -4.990872   1.000000
   67       -4.907048   1.000000
   68       -4.834308   1.000000
   69       -4.721987   1.000000
   70       -4.661690   1.000000
   71       -4.507139   1.000000
   72       -4.492826   1.000000
   73       -4.351465   1.000000
   74       -4.330354   1.000000
   75       -4.262681   1.000000
   76       -3.921458   1.000000
   77       -3.818177   0.999985
   78       -3.665900   0.999015
   79       -3.474770   0.959361
   80       -3.378182   0.855505
   81       -2.956804   0.027476
   82       -2.831815   0.002531
   83       -2.678857   0.000051
   84       -2.594058   0.000004
   85       -2.536675   0.000001
   86       -2.457909   0.000000
   87       -2.237188   0.000000
   88       -2.182932   0.000000
   89       -2.087235   0.000000
   90       -2.001579   0.000000
   91       -1.834424   0.000000
   92       -1.586350   0.000000
   93       -1.426313   0.000000
   94       -1.154783   0.000000
   95       -1.095817   0.000000
   96       -1.061648   0.000000
   97       -1.024688   0.000000
   98       -0.894709   0.000000
   99       -0.837456   0.000000
  100       -0.634382   0.000000
  101       -0.608242   0.000000
  102       -0.563818   0.000000
  103       -0.419591   0.000000
  104       -0.301603   0.000000
  105       -0.183942   0.000000
  106       -0.109767   0.000000
  107       -0.047499   0.000000
  108        0.063877   0.000000
  109        0.129741   0.000000
  110        0.241588   0.000000
  111        0.363786   0.000000
  112        0.513882   0.000000
  113        0.597531   0.000000
  114        0.933145   0.000000
  115        1.024904   0.000000
  116        1.107793   0.000000
  117        1.221015   0.000000
  118        1.699884   0.000000
  119        1.882813   0.000000
  120        2.214595   0.000000
 
  0.1250000E+00  0.1250000E+00  0.0000000E+00  0.3125000E-01
    1      -17.785218   1.000000
    2      -16.914251   1.000000
    3      -16.788821   1.000000
    4      -16.710581   1.000000
    5      -16.489264   1.000000
    6      -16.451683   1.000000
    7      -16.382474   1.000000
    8      -16.319887   1.000000
    9      -16.237280   1.000000
   10      -16.032352   1.000000
   11      -15.989532   1.000000
   12      -15.888549   1.000000
   13      -15.839199   1.000000
   14      -15.651779   1.000000
   15      -15.592775   1.000000
   16      -15.484314   1.000000
   17      -15.262183   1.000000
   18      -15.187087   1.000000
   19       -9.502691   1.000000
   20       -9.275574   1.000000
   21       -9.223374   1.000000
   22       -9.100675   1.000000
   23       -8.839339   1.000000
   24       -8.721232   1.000000
   25       -8.598725   1.000000
   26       -8.542190   1.000000
   27       -8.512382   1.000000
   28       -8.432387   1.000000
   29       -8.330600   1.000000
   30       -8.271655   1.000000
   31       -8.139310   1.000000
   32       -8.083126   1.000000
   33       -7.940192   1.000000
   34       -7.885514   1.000000
   35       -7.753874   1.000000
   36       -7.700925   1.000000
   37       -7.613375   1.000000
   38       -7.559199   1.000000
   39       -7.451739   1.000000
   40       -7.339288   1.000000
   41       -7.270145   1.000000
   42       -7.229306   1.000000
   43       -7.149093   1.000000
   44       -7.021558   1.000000
   45       -6.950757   1.000000
   46       -6.841735   1.000000
   47       -6.792107   1.000000
   48       -6.636231   1.000000
   49       -6.521704   1.000000
   50       -6.438830   1.000000
   51       -6.371071   1.000000
   52       -6.332207   1.000000
   53       -6.243201   1.000000
   54       -6.205940   1.000000
   55       -6.121176   1.000000
   56       -6.039542   1.000000
   57       -5.944537   1.000000
   58       -5.859081   1.000000
   59       -5.809282   1.000000
   60       -5.609768   1.000000
   61       -5.551857   1.000000
   62       -5.491233   1.000000
   63       -5.458163   1.000000
   64       -5.230039   1.000000
   65       -5.212824   1.000000
   66       -5.063218   1.000000
   67       -4.873247   1.000000
   68       -4.802467   1.000000
   69       -4.714152   1.000000
   70       -4.608571   1.000000
   71       -4.456168   1.000000
   72       -4.408290   1.000000
   73       -4.317852   1.000000
   74       -4.262083   1.000000
   75       -4.217349   1.000000
   76       -4.096614   1.000000
   77       -3.920533   1.000000
   78       -3.692791   0.999490
   79       -3.527218   0.982750
   80       -3.275489   0.630881
   81       -2.934929   0.019043
   82       -2.784151   0.000844
   83       -2.644126   0.000018
   84       -2.547026   0.000001
   85       -2.524545   0.000000
   86       -2.444205   0.000000
   87       -2.168356   0.000000
   88       -2.132018   0.000000
   89       -2.037597   0.000000
   90       -1.984781   0.000000
   91       -1.851285   0.000000
   92       -1.590955   0.000000
   93       -1.395500   0.000000
   94       -1.171892   0.000000
   95       -1.144281   0.000000
   96       -1.113266   0.000000
   97       -0.982044   0.000000
   98       -0.909730   0.000000
   99       -0.849727   0.000000
  100       -0.771555   0.000000
  101       -0.712232   0.000000
  102       -0.653622   0.000000
  103       -0.563450   0.000000
  104       -0.425129   0.000000
  105       -0.230174   0.000000
  106       -0.105478   0.000000
  107       -0.065019   0.000000
  108        0.027861   0.000000
  109        0.182469   0.000000
  110        0.271379   0.000000
  111        0.376715   0.000000
  112        0.553864   0.000000
  113        0.621707   0.000000
  114        0.974544   0.000000
  115        1.023638   0.000000
  116        1.133689   0.000000
  117        1.189706   0.000000
  118        1.779856   0.000000
  119        1.962830   0.000000
  120        2.283237   0.000000
 
  0.2500000E+00  0.1250000E+00  0.0000000E+00  0.3125000E-01
    1      -17.699582   1.000000
    2      -17.089171   1.000000
    3      -16.874622   1.000000
    4      -16.711393   1.000000
    5      -16.492194   1.000000
    6      -16.434859   1.000000
    7      -16.382799   1.000000
    8      -16.249191   1.000000
    9      -16.220791   1.000000
   10      -16.006291   1.000000
   11      -15.959541   1.000000
   12      -15.864131   1.000000
   13      -15.736904   1.000000
   14      -15.673142   1.000000
   15      -15.605018   1.000000
   16      -15.516767   1.000000
   17      -15.272708   1.000000
   18      -15.190349   1.000000
   19       -9.618250   1.000000
   20       -9.424172   1.000000
   21       -9.346549   1.000000
   22       -9.156463   1.000000
   23       -8.915065   1.000000
   24       -8.718454   1.000000
   25       -8.549058   1.000000
   26       -8.465312   1.000000
   27       -8.414178   1.000000
   28       -8.373150   1.000000
   29       -8.301231   1.000000
   30       -8.231819   1.000000
   31       -8.152981   1.000000
   32       -8.093825   1.000000
   33       -7.932507   1.000000
   34       -7.840671   1.000000
   35       -7.796585   1.000000
   36       -7.687421   1.000000
   37       -7.575029   1.000000
   38       -7.489024   1.000000
   39       -7.361920   1.000000
   40       -7.322513   1.000000
   41       -7.242691   1.000000
   42       -7.174612   1.000000
   43       -7.064512   1.000000
   44       -6.957265   1.000000
   45       -6.920330   1.000000
   46       -6.837993   1.000000
   47       -6.736950   1.000000