       N       E                     dE             d eps       ncg     rms          rms(c)
DAV:   1     0.112566541906E+04    0.11257E+04   -0.35982E+04  8160   0.577E+02
DAV:   2    -0.325009013237E+01   -0.11289E+04   -0.10884E+04 11320   0.173E+02
DAV:   3    -0.199906761757E+03   -0.19666E+03   -0.18902E+03 10920   0.820E+01
DAV:   4    -0.208993833171E+03   -0.90871E+01   -0.87961E+01 12200   0.259E+01
DAV:   5    -0.209312199888E+03   -0.31837E+00   -0.31746E+00 11440   0.349E+00    0.275E+01
DAV:   6    -0.237172224422E+03   -0.27860E+02   -0.10615E+02 12640   0.604E+01    0.594E+01
DAV:   7    -0.196494687741E+03    0.40678E+02   -0.17636E+02 13320   0.152E+02    0.201E+01
DAV:   8    -0.189442497984E+03    0.70522E+01   -0.17486E+01 11800   0.127E+01    0.125E+01
DAV:   9    -0.188236420959E+03    0.12061E+01   -0.35802E+00 12400   0.614E+00    0.931E+00
DAV:  10    -0.187081173817E+03    0.11552E+01   -0.20125E+00 13320   0.736E+00    0.319E+00
DAV:  11    -0.187033470885E+03    0.47703E-01   -0.72471E-01 13560   0.323E+00    0.347E+00
DAV:  12    -0.187173609982E+03   -0.14014E+00   -0.11439E+00 12640   0.556E+00    0.483E+00
DAV:  13    -0.186930051500E+03    0.24356E+00   -0.48602E-01 13160   0.355E+00    0.217E+00
DAV:  14    -0.186880657291E+03    0.49394E-01   -0.11179E-01 13440   0.163E+00    0.666E-01
DAV:  15    -0.186879457892E+03    0.11994E-02   -0.29758E-02 12240   0.929E-01    0.933E-01
DAV:  16    -0.186875044819E+03    0.44131E-02   -0.13985E-02 13320   0.662E-01    0.589E-01
DAV:  17    -0.186871465501E+03    0.35793E-02   -0.97515E-03 12640   0.524E-01    0.217E-01
DAV:  18    -0.186871297710E+03    0.16779E-03   -0.20779E-03 11880   0.147E-01    0.156E-01
DAV:  19    -0.186870934660E+03    0.36305E-03   -0.92002E-04 11120   0.105E-01    0.506E-02
DAV:  20    -0.186871657199E+03   -0.72254E-03   -0.70474E-04  9280   0.610E-02    0.544E-02
DAV:  21    -0.186872207884E+03   -0.55068E-03   -0.22664E-04  8160   0.450E-02    0.332E-02
DAV:  22    -0.186873408863E+03   -0.12010E-02   -0.20253E-04  7600   0.445E-02    0.327E-02
DAV:  23    -0.186874636269E+03   -0.12274E-02   -0.12976E-04  7640   0.401E-02    0.107E-02
DAV:  24    -0.186875226778E+03   -0.59051E-03   -0.25921E-05  6680   0.130E-02    0.859E-03
DAV:  25    -0.186875606212E+03   -0.37943E-03   -0.15037E-05  5640   0.123E-02    0.479E-03
DAV:  26    -0.186875830330E+03   -0.22412E-03   -0.88212E-06  6840   0.707E-03    0.214E-03
DAV:  27    -0.186875928193E+03   -0.97863E-04   -0.37187E-06  7200   0.420E-03
   1 F= -.18687593E+03 E0= -.18670432E+03  d E =-.186876E+03
       N       E                     dE             d eps       ncg     rms          rms(c)
DAV:   1    -0.187499186856E+03   -0.62336E+00   -0.27013E+02  8160   0.349E+01    0.461E+00
DAV:   2    -0.189359924894E+03   -0.18607E+01   -0.20035E+01 12240   0.151E+01    0.863E+00
DAV:   3    -0.189378955074E+03   -0.19030E-01   -0.42483E+00 12400   0.121E+01    0.660E+00
DAV:   4    -0.188755560986E+03    0.62339E+00   -0.59594E-01 12440   0.459E+00    0.167E+00
DAV:   5    -0.188797920618E+03   -0.42360E-01   -0.34246E-01 11520   0.263E+00    0.357E+00
DAV:   6    -0.188762815644E+03    0.35105E-01   -0.52354E-01 12800   0.406E+00    0.309E+00
DAV:   7    -0.188690022001E+03    0.72794E-01   -0.20276E-01 12720   0.204E+00    0.108E+00
DAV:   8    -0.188674931773E+03    0.15090E-01   -0.55529E-02 11680   0.965E-01    0.900E-01
DAV:   9    -0.188669857451E+03    0.50743E-02   -0.16815E-02 12200   0.751E-01    0.504E-01
DAV:  10    -0.188668312992E+03    0.15445E-02   -0.50576E-03 13320   0.353E-01    0.246E-01
DAV:  11    -0.188667676266E+03    0.63673E-03   -0.28697E-03 12760   0.208E-01    0.131E-01
DAV:  12    -0.188667659604E+03    0.16661E-04   -0.98395E-04 11600   0.937E-02
   2 F= -.18866766E+03 E0= -.18852786E+03  d E =-.179173E+01
       N       E                     dE             d eps       ncg     rms          rms(c)
DAV:   1    -0.190584459427E+03   -0.19168E+01   -0.30814E+01  9200   0.141E+01    0.445E+00
DAV:   2    -0.190564502171E+03    0.19957E-01   -0.28022E+00 11000   0.964E+00    0.738E+00
DAV:   3    -0.190059784834E+03    0.50472E+00   -0.13030E+00 12280   0.865E+00    0.416E+00
DAV:   4    -0.189854053299E+03    0.20573E+00   -0.68822E-01 12680   0.413E+00    0.248E+00
DAV:   5    -0.189787700581E+03    0.66353E-01   -0.30921E-01 11080   0.233E+00    0.192E+00
DAV:   6    -0.189758224656E+03    0.29476E-01   -0.10310E-01 12640   0.191E+00    0.870E-01
DAV:   7    -0.189750370695E+03    0.78540E-02   -0.15469E-02 12560   0.607E-01    0.193E-01
DAV:   8    -0.189750359826E+03    0.10869E-04   -0.25887E-03 11080   0.157E-01    0.131E-01
DAV:   9    -0.189750953912E+03   -0.59409E-03   -0.13024E-03 10520   0.213E-01    0.236E-01
DAV:  10    -0.189750815293E+03    0.13862E-03   -0.14855E-03 10560   0.270E-01    0.173E-01
DAV:  11    -0.189750493886E+03    0.32141E-03   -0.54464E-04  9320   0.132E-01    0.303E-02
DAV:  12    -0.189750509524E+03   -0.15638E-04   -0.82602E-05  6280   0.332E-02
   3 F= -.18975051E+03 E0= -.18963309E+03  d E =-.108285E+01
       N       E                     dE             d eps       ncg     rms          rms(c)
DAV:   1    -0.191287413798E+03   -0.15369E+01   -0.70392E+01  8160   0.192E+01    0.459E+00
DAV:   2    -0.191179322121E+03    0.10809E+00   -0.53558E+00 13400   0.835E+00    0.518E+00
DAV:   3    -0.191227896245E+03   -0.48574E-01   -0.15666E+00 11680   0.918E+00    0.684E+00
DAV:   4    -0.190904136343E+03    0.32376E+00   -0.15570E+00 12520   0.783E+00    0.412E+00
DAV:   5    -0.190890965107E+03    0.13171E-01   -0.87034E-01 11200   0.587E+00    0.359E+00
DAV:   6    -0.190708764312E+03    0.18220E+00   -0.20543E-01 11280   0.296E+00    0.604E-01
DAV:   7    -0.190707146968E+03    0.16173E-02   -0.36928E-02 11360   0.693E-01    0.451E-01
DAV:   8    -0.190703753957E+03    0.33930E-02   -0.72517E-03 10200   0.352E-01    0.164E-01
DAV:   9    -0.190704387197E+03   -0.63324E-03   -0.19613E-03 12400   0.293E-01    0.265E-01
DAV:  10    -0.190704101084E+03    0.28611E-03   -0.16017E-03 10720   0.277E-01    0.123E-01
DAV:  11    -0.190703957855E+03    0.14323E-03   -0.59646E-04 10280   0.108E-01    0.451E-02
DAV:  12    -0.190703965597E+03   -0.77413E-05   -0.13545E-04  7320   0.442E-02
   4 F= -.19070397E+03 E0= -.19060538E+03  d E =-.953456E+00
       N       E                     dE             d eps       ncg     rms          rms(c)
DAV:   1    -0.192124849070E+03   -0.14209E+01   -0.15167E+02  8160   0.277E+01    0.586E+00
DAV:   2    -0.191968260525E+03    0.15659E+00   -0.99446E+00 12200   0.959E+00    0.556E+00
DAV:   3    -0.192424656792E+03   -0.45640E+00   -0.33693E+00 12240   0.127E+01    0.948E+00
DAV:   4    -0.191545663060E+03    0.87899E+00   -0.22174E+00 12320   0.107E+01    0.306E+00
DAV:   5    -0.191517773183E+03    0.27890E-01   -0.55814E-01 11840   0.496E+00    0.422E+00
DAV:   6    -0.191375640665E+03    0.14213E+00   -0.61121E-01 12200   0.522E+00    0.161E+00
DAV:   7    -0.191350499711E+03    0.25141E-01   -0.72047E-02 11920   0.146E+00    0.694E-01
DAV:   8    -0.191349053296E+03    0.14464E-02   -0.25157E-02 12080   0.112E+00    0.762E-01
DAV:   9    -0.191343351219E+03    0.57021E-02   -0.10115E-02 11440   0.757E-01    0.233E-01
DAV:  10    -0.191343474097E+03   -0.12288E-03   -0.28216E-03 11640   0.227E-01    0.116E-01
DAV:  11    -0.191343346202E+03    0.12789E-03   -0.86730E-04 10720   0.108E-01    0.657E-02
DAV:  12    -0.191343307319E+03    0.38883E-04   -0.14277E-04  7200   0.483E-02
   5 F= -.19134331E+03 E0= -.19124986E+03  d E =-.639342E+00
       N       E                     dE             d eps       ncg     rms          rms(c)
DAV:   1    -0.191395350480E+03   -0.52004E-01   -0.47121E+00  8160   0.460E+00    0.639E-01
DAV:   2    -0.191456542953E+03   -0.61192E-01   -0.25283E-01 12400   0.268E+00    0.233E+00
DAV:   3    -0.191406532034E+03    0.50011E-01   -0.12265E-01 11920   0.234E+00    0.562E-01
DAV:   4    -0.191406769305E+03   -0.23727E-03   -0.16317E-02 11400   0.865E-01    0.603E-01
DAV:   5    -0.191403023977E+03    0.37453E-02   -0.74424E-03 11440   0.634E-01    0.195E-01
DAV:   6    -0.191403048445E+03   -0.24469E-04   -0.23405E-03 11440   0.298E-01    0.226E-01
DAV:   7    -0.191403065473E+03   -0.17028E-04   -0.25865E-03 11720   0.383E-01    0.219E-01
DAV:   8    -0.191402511926E+03    0.55355E-03   -0.93053E-04  9960   0.207E-01    0.310E-02
DAV:   9    -0.191402525552E+03   -0.13626E-04   -0.91093E-05  6080   0.376E-02
   6 F= -.19140253E+03 E0= -.19130668E+03  d E =-.592182E-01
       N       E                     dE             d eps       ncg     rms          rms(c)
DAV:   1    -0.191464546167E+03   -0.62034E-01   -0.80925E+00  8160   0.601E+00    0.801E-01
DAV:   2    -0.191561051723E+03   -0.96506E-01   -0.35727E-01 13080   0.326E+00    0.312E+00
DAV:   3    -0.191477538502E+03    0.83513E-01   -0.22882E-01 12080   0.304E+00    0.748E-01
DAV:   4    -0.191477068804E+03    0.46970E-03   -0.26754E-02 11640   0.111E+00    0.756E-01
DAV:   5    -0.191471299047E+03    0.57698E-02   -0.12318E-02 11600   0.792E-01    0.267E-01
DAV:   6    -0.191471417458E+03   -0.11841E-03   -0.45459E-03 11440   0.443E-01    0.333E-01
DAV:   7    -0.191470854495E+03    0.56296E-03   -0.41395E-03 11240   0.485E-01    0.219E-01
DAV:   8    -0.191470267966E+03    0.58653E-03   -0.11102E-03  9920   0.214E-01    0.392E-02
DAV:   9    -0.191470260381E+03    0.75858E-05   -0.12712E-04  6720   0.463E-02
   7 F= -.19147026E+03 E0= -.19137244E+03  d E =-.677348E-01
       N       E                     dE             d eps       ncg     rms          rms(c)
DAV:   1    -0.191503970394E+03   -0.33702E-01   -0.21663E+00  8160   0.315E+00    0.450E-01
DAV:   2    -0.191532944973E+03   -0.28975E-01   -0.11104E-01 12720   0.191E+00    0.168E+00
DAV:   3    -0.191507169910E+03    0.25775E-01   -0.59509E-02 12160   0.163E+00    0.378E-01
DAV:   4    -0.191507620424E+03   -0.45051E-03   -0.83621E-03 11520   0.626E-01    0.448E-01
DAV:   5    -0.191505626164E+03    0.19943E-02   -0.44583E-03 11320   0.469E-01    0.161E-01
DAV:   6    -0.191505724442E+03   -0.98278E-04   -0.17411E-03  9880   0.280E-01    0.206E-01
DAV:   7    -0.191505431453E+03    0.29299E-03   -0.14154E-03  9840   0.280E-01    0.110E-01
DAV:   8    -0.191505273727E+03    0.15773E-03   -0.30465E-04  7520   0.108E-01    0.234E-02
DAV:   9    -0.191505270397E+03    0.33293E-05   -0.54325E-05  6960   0.302E-02
   8 F= -.19150527E+03 E0= -.19140705E+03  d E =-.350100E-01
       N       E                     dE             d eps       ncg     rms          rms(c)
DAV:   1    -0.191558091348E+03   -0.52818E-01   -0.59841E+00  8160   0.522E+00    0.649E-01
DAV:   2    -0.191612151085E+03   -0.54060E-01   -0.23988E-01 13080   0.251E+00    0.228E+00
DAV:   3    -0.191568052036E+03    0.44099E-01   -0.12334E-01 12280   0.226E+00    0.592E-01
DAV:   4    -0.191568972841E+03   -0.92080E-03   -0.18430E-02 11480   0.919E-01    0.690E-01
DAV:   5    -0.191564142107E+03    0.48307E-02   -0.10338E-02 11280   0.732E-01    0.248E-01
DAV:   6    -0.191564131622E+03    0.10485E-04   -0.34219E-03 11480   0.384E-01    0.270E-01
DAV:   7    -0.191563892721E+03    0.23890E-03   -0.30707E-03 11160   0.429E-01    0.207E-01
DAV:   8    -0.191563308432E+03    0.58429E-03   -0.93823E-04  9640   0.213E-01    0.336E-02
DAV:   9    -0.191563306464E+03    0.19682E-05   -0.10189E-04  6760   0.408E-02
   9 F= -.19156331E+03 E0= -.19146632E+03  d E =-.580361E-01
       N       E                     dE             d eps       ncg     rms          rms(c)
DAV:   1    -0.191556371496E+03    0.69369E-02   -0.11511E-01  8160   0.723E-01    0.907E-02
DAV:   2    -0.191557278886E+03   -0.90739E-03   -0.43891E-03 12480   0.314E-01    0.284E-01
DAV:   3    -0.191556484851E+03    0.79403E-03   -0.18736E-03  9760   0.302E-01    0.822E-02
DAV:   4    -0.191556461669E+03    0.23182E-04   -0.23733E-04  6000   0.920E-02
  10 F= -.19155646E+03 E0= -.19145910E+03  d E =0.684479E-02
       N       E                     dE             d eps       ncg     rms          rms(c)
DAV:   1    -0.191558069235E+03   -0.15844E-02   -0.72550E-03  8920   0.206E-01    0.576E-02
DAV:   2    -0.191558492157E+03   -0.42292E-03   -0.12328E-03 10320   0.228E-01    0.214E-01
DAV:   3    -0.191558011219E+03    0.48094E-03   -0.84088E-04  8760   0.209E-01    0.411E-02
DAV:   4    -0.191558036821E+03   -0.25602E-04   -0.11109E-04  5840   0.732E-02
  11 F= -.19155804E+03 E0= -.19146099E+03  d E =-.157515E-02
       N       E                     dE             d eps       ncg     rms          rms(c)
DAV:   1    -0.191588117871E+03   -0.30107E-01   -0.15503E+00  8160   0.269E+00    0.340E-01
DAV:   2    -0.191596385208E+03   -0.82673E-02   -0.57373E-02 13360   0.106E+00    0.854E-01
DAV:   3    -0.191590393128E+03    0.59921E-02   -0.21295E-02 11560   0.955E-01    0.354E-01
DAV:   4    -0.191590272085E+03    0.12104E-03   -0.56486E-03 11400   0.507E-01    0.363E-01
DAV:   5    -0.191588943581E+03    0.13285E-02   -0.31606E-03 10960   0.421E-01    0.148E-01
DAV:   6    -0.191588857563E+03    0.86017E-04   -0.13076E-03  9760   0.211E-01    0.130E-01
DAV:   7    -0.191588827342E+03    0.30221E-04   -0.90307E-04  9680   0.226E-01
  12 F= -.19158883E+03 E0= -.19149277E+03  d E =-.307905E-01
       N       E                     dE             d eps       ncg     rms          rms(c)
DAV:   1    -0.191607019175E+03   -0.18162E-01   -0.60987E-01  8160   0.167E+00    0.198E-01
DAV:   2    -0.191610153328E+03   -0.31342E-02   -0.20965E-02 12520   0.577E-01    0.476E-01
DAV:   3    -0.191608068687E+03    0.20846E-02   -0.69251E-03 11600   0.593E-01    0.209E-01
DAV:   4    -0.191607846615E+03    0.22207E-03   -0.13915E-03  9600   0.222E-01    0.154E-01
DAV:   5    -0.191607736891E+03    0.10972E-03   -0.99589E-04  8600   0.221E-01    0.132E-01
DAV:   6    -0.191607602381E+03    0.13451E-03   -0.48551E-04  8160   0.139E-01    0.552E-02
DAV:   7    -0.191607604397E+03   -0.20163E-05   -0.16211E-04  6320   0.910E-02
  13 F= -.19160760E+03 E0= -.19151299E+03  d E =-.187771E-01
       N       E                     dE             d eps       ncg     rms          rms(c)
DAV:   1    -0.191638173208E+03   -0.30571E-01   -0.15757E+00  8160   0.268E+00    0.274E-01
DAV:   2    -0.191642382560E+03   -0.42094E-02   -0.46321E-02 12200   0.686E-01    0.435E-01
DAV:   3    -0.191642033256E+03    0.34930E-03   -0.11210E-02 11840   0.687E-01    0.418E-01
DAV:   4    -0.191640549143E+03    0.14841E-02   -0.35608E-03 12040   0.387E-01    0.169E-01
DAV:   5    -0.191640350400E+03    0.19874E-03   -0.11824E-03  9960   0.247E-01    0.150E-01
DAV:   6    -0.191640283715E+03    0.66685E-04   -0.10566E-03 10800   0.229E-01    0.114E-01
DAV:   7    -0.191640213021E+03    0.70694E-04   -0.47711E-04  8200   0.158E-01
  14 F= -.19164021E+03 E0= -.19154791E+03  d E =-.326086E-01
       N       E                     dE             d eps       ncg     rms          rms(c)
DAV:   1    -0.191607354063E+03    0.32930E-01   -0.15168E+00  8160   0.264E+00    0.280E-01
DAV:   2    -0.191611757713E+03   -0.44037E-02   -0.45557E-02 12120   0.742E-01    0.463E-01
DAV:   3    -0.191610342843E+03    0.14149E-02   -0.95143E-03 12360   0.713E-01    0.341E-01
DAV:   4    -0.191609505954E+03    0.83689E-03   -0.36895E-03 11480   0.403E-01    0.229E-01
DAV:   5    -0.191609156017E+03    0.34994E-03   -0.18391E-03  9720   0.309E-01    0.176E-01
DAV:   6    -0.191608996647E+03    0.15937E-03   -0.11598E-03  9600   0.225E-01    0.117E-01
DAV:   7    -0.191609016522E+03   -0.19875E-04   -0.75058E-04  8840   0.197E-01
  15 F= -.19160902E+03 E0= -.19151381E+03  d E =0.311965E-01
       N       E                     dE             d eps       ncg     rms          rms(c)
DAV:   1    -0.191667332697E+03   -0.58336E-01   -0.56525E+00  8160   0.512E+00    0.593E-01
DAV:   2    -0.191683762904E+03   -0.16430E-01   -0.18774E-01 12680   0.158E+00    0.968E-01
DAV:   3    -0.191678931126E+03    0.48318E-02   -0.45199E-02 12080   0.145E+00    0.735E-01
DAV:   4    -0.191675149305E+03    0.37818E-02   -0.16597E-02 12160   0.876E-01    0.549E-01
DAV:   5    -0.191672588254E+03    0.25611E-02   -0.83086E-03 12160   0.710E-01    0.314E-01
DAV:   6    -0.191671799001E+03    0.78925E-03   -0.41821E-03 11240   0.394E-01    0.156E-01
DAV:   7    -0.191671471589E+03    0.32741E-03   -0.15611E-03 11440   0.210E-01    0.118E-01
DAV:   8    -0.191671371273E+03    0.10032E-03   -0.54974E-04  9080   0.181E-01    0.788E-02
DAV:   9    -0.191671292155E+03    0.79118E-04   -0.12383E-04  6000   0.835E-02
  16 F= -.19167129E+03 E0= -.19158121E+03  d E =-.622756E-01
       N       E                     dE             d eps       ncg     rms          rms(c)
DAV:   1    -0.191683751945E+03   -0.12381E-01   -0.22852E-01  8160   0.102E+00    0.106E-01
DAV:   2    -0.191684419393E+03   -0.66745E-03   -0.69915E-03 12160   0.300E-01    0.168E-01
DAV:   3    -0.191684228803E+03    0.19059E-03   -0.11359E-03 10880   0.265E-01    0.120E-01
DAV:   4    -0.191684115181E+03    0.11362E-03   -0.39167E-04  8040   0.145E-01    0.732E-02
DAV:   5    -0.191684100613E+03    0.14568E-04   -0.27314E-04  6400   0.118E-01
  17 F= -.19168410E+03 E0= -.19159562E+03  d E =-.128085E-01
       N       E                     dE             d eps       ncg     rms          rms(c)
DAV:   1    -0.191722519202E+03   -0.38404E-01   -0.21665E+00  8160   0.314E+00    0.320E-01
DAV:   2    -0.191726560339E+03   -0.40411E-02   -0.60789E-02 12040   0.737E-01    0.340E-01
DAV:   3    -0.191727744543E+03   -0.11842E-02   -0.97665E-03 11680   0.704E-01    0.510E-01
DAV:   4    -0.191725487318E+03    0.22572E-02   -0.60991E-03 10680   0.536E-01    0.218E-01
DAV:   5    -0.191725316325E+03    0.17099E-03   -0.18882E-03 10080   0.350E-01    0.194E-01
DAV:   6    -0.191725089536E+03    0.22679E-03   -0.11046E-03 11640   0.255E-01    0.105E-01
DAV:   7    -0.191724894888E+03    0.19465E-03   -0.35143E-04  8120   0.104E-01    0.378E-02
DAV:   8    -0.191724898081E+03   -0.31930E-05   -0.93392E-05  6760   0.752E-02
  18 F= -.19172490E+03 E0= -.19164013E+03  d E =-.407975E-01
       N       E                     dE             d eps       ncg     rms          rms(c)
DAV:   1    -0.191738833784E+03   -0.13939E-01   -0.23980E-01  8160   0.106E+00    0.117E-01
DAV:   2    -0.191739273637E+03   -0.43985E-03   -0.80364E-03 12120   0.242E-01    0.841E-02
DAV:   3    -0.191739450593E+03   -0.17696E-03   -0.93447E-04 11080   0.201E-01    0.166E-01
DAV:   4    -0.191739184561E+03    0.26603E-03   -0.61529E-04  8440   0.188E-01    0.724E-02
DAV:   5    -0.191739169830E+03    0.14732E-04   -0.16776E-04  5840   0.983E-02
  19 F= -.19173917E+03 E0= -.19165546E+03  d E =-.142717E-01
       N       E                     dE             d eps       ncg     rms          rms(c)
DAV:   1    -0.191719698505E+03    0.19486E-01   -0.57593E-01  8160   0.161E+00    0.219E-01
DAV:   2    -0.191726585250E+03   -0.68867E-02   -0.30428E-02 11760   0.994E-01    0.736E-01
DAV:   3    -0.191720912432E+03    0.56728E-02   -0.98976E-03 11560   0.792E-01    0.178E-01
DAV:   4    -0.191720854822E+03    0.57610E-04   -0.16074E-03  9920   0.276E-01    0.170E-01
DAV:   5    -0.191720585451E+03    0.26937E-03   -0.80280E-04  9160   0.208E-01    0.935E-02
DAV:   6    -0.191720490517E+03    0.94933E-04   -0.22795E-04  6040   0.909E-02
  20 F= -.19172049E+03 E0= -.19163517E+03  d E =0.186793E-01
       N       E                     dE             d eps       ncg     rms          rms(c)
DAV:   1    -0.191640372894E+03    0.80213E-01   -0.73920E+00  8160   0.588E+00    0.752E-01
DAV:   2    -0.191654479726E+03   -0.14107E-01   -0.26823E-01 12280   0.158E+00    0.838E-01
DAV:   3    -0.191661750941E+03   -0.72712E-02   -0.59826E-02 11800   0.169E+00    0.137E+00
DAV:   4    -0.191646357268E+03    0.15394E-01   -0.45971E-02 11760   0.133E+00    0.476E-01
DAV:   5    -0.191645638718E+03    0.71855E-03   -0.10985E-02 10880   0.720E-01    0.467E-01
DAV:   6    -0.191644013605E+03    0.16251E-02   -0.83810E-03 11200   0.664E-01    0.287E-01
DAV:   7    -0.191643229412E+03    0.78419E-03   -0.30172E-03 11320   0.354E-01    0.163E-01
DAV:   8    -0.191643020833E+03    0.20858E-03   -0.93101E-04 10760   0.242E-01    0.958E-02
DAV:   9    -0.191642904887E+03    0.11595E-03   -0.20873E-04  7560   0.104E-01    0.253E-02
DAV:  10    -0.191642913205E+03   -0.83175E-05   -0.66779E-05  6760   0.287E-02
  21 F= -.19164291E+03 E0= -.19155175E+03  d E =0.775773E-01
       N       E                     dE             d eps       ncg     rms          rms(c)
DAV:   1    -0.191743405279E+03   -0.10050E+00   -0.15574E+01  8160   0.854E+00    0.957E-01
DAV:   2    -0.191775830878E+03   -0.32426E-01   -0.51493E-01 11560   0.213E+00    0.101E+00
DAV:   3    -0.191784685810E+03   -0.88549E-02   -0.92508E-02 12440   0.215E+00    0.141E+00
DAV:   4    -0.191763539710E+03    0.21146E-01   -0.40294E-02 12240   0.158E+00    0.572E-01
DAV:   5    -0.191761287220E+03    0.22525E-02   -0.13129E-02 11560   0.842E-01    0.508E-01
DAV:   6    -0.191760253203E+03    0.10340E-02   -0.11063E-02 12320   0.853E-01    0.383E-01
DAV:   7    -0.191758373026E+03    0.18802E-02   -0.40552E-03 11400   0.450E-01    0.176E-01
DAV:   8    -0.191758165942E+03    0.20708E-03   -0.13306E-03 10280   0.275E-01    0.122E-01
DAV:   9    -0.191757983541E+03    0.18240E-03   -0.36440E-04  9000   0.133E-01    0.358E-02
DAV:  10    -0.191757965722E+03    0.17819E-04   -0.12556E-04  7200   0.390E-02
  22 F= -.19175797E+03 E0= -.19167584E+03  d E =-.115053E+00
       N       E                     dE             d eps       ncg     rms          rms(c)
DAV:   1    -0.191785462604E+03   -0.27479E-01   -0.93935E-01  8160   0.207E+00    0.218E-01
DAV:   2    -0.191788240703E+03   -0.27781E-02   -0.29380E-02 12160   0.590E-01    0.357E-01
DAV:   3    -0.191787574691E+03    0.66601E-03   -0.53565E-03 12440   0.559E-01    0.275E-01
DAV:   4    -0.191786861528E+03    0.71316E-03   -0.16196E-03 10120   0.278E-01    0.117E-01
DAV:   5    -0.191786867789E+03   -0.62602E-05   -0.77383E-04  9560   0.209E-01
  23 F= -.19178687E+03 E0= -.19170680E+03  d E =-.289021E-01
       N       E                     dE             d eps       ncg     rms          rms(c)
DAV:   1    -0.191676531725E+03    0.11033E+00   -0.11334E+01  8160   0.720E+00    0.877E-01
DAV:   2    -0.191759384449E+03   -0.82853E-01   -0.46702E-01 13000   0.307E+00    0.276E+00
DAV:   3    -0.191701804941E+03    0.57580E-01   -0.20456E-01 12200   0.286E+00    0.853E-01
DAV:   4    -0.191695929136E+03    0.58758E-02   -0.21389E-02 11280   0.903E-01    0.577E-01
DAV:   5    -0.191693374959E+03    0.25542E-02   -0.13568E-02 12200   0.898E-01    0.457E-01
DAV:   6    -0.191691744643E+03    0.16303E-02   -0.75063E-03 12520   0.593E-01    0.257E-01
DAV:   7    -0.191691824120E+03   -0.79477E-04   -0.37733E-03 11640   0.460E-01    0.288E-01
DAV:   8    -0.191690799473E+03    0.10246E-02   -0.15539E-03 10720   0.328E-01    0.537E-02
DAV:   9    -0.191690769670E+03    0.29804E-04   -0.14989E-04  6400   0.587E-02
  24 F= -.19169077E+03 E0= -.19160335E+03  d E =0.960981E-01
       N       E                     dE             d eps       ncg     rms          rms(c)
DAV:   1    -0.191615788013E+03    0.75011E-01   -0.79576E+00  8160   0.603E+00    0.648E-01
DAV:   2    -0.191652410661E+03   -0.36623E-01   -0.27416E-01 12600   0.201E+00    0.169E+00
DAV:   3    -0.191633449845E+03    0.18961E-01   -0.91006E-02 12320   0.185E+00    0.718E-01
DAV:   4    -0.191628372298E+03    0.50775E-02   -0.12242E-02 11560   0.591E-01    0.290E-01
DAV:   5    -0.191627402752E+03    0.96955E-03   -0.45240E-03 12120   0.379E-01    0.264E-01
DAV:   6    -0.191628395392E+03   -0.99264E-03   -0.56017E-03 11640   0.588E-01    0.384E-01
DAV:   7    -0.191626610304E+03    0.17851E-02   -0.27859E-03 11160   0.395E-01    0.610E-02
DAV:   8    -0.191626637323E+03   -0.27019E-04   -0.28994E-04  9000   0.119E-01
  25 F= -.19162664E+03 E0= -.19153385E+03  d E =0.641323E-01
       N       E                     dE             d eps       ncg     rms          rms(c)
DAV:   1    -0.191619967604E+03    0.66427E-02   -0.28040E+00  8160   0.359E+00    0.434E-01
DAV:   2    -0.191640598568E+03   -0.20631E-01   -0.91104E-02 13520   0.165E+00    0.129E+00
DAV:   3    -0.191622964043E+03    0.17635E-01   -0.31530E-02 12280   0.140E+00    0.335E-01
DAV:   4    -0.191624065411E+03   -0.11014E-02   -0.69581E-03 10560   0.557E-01    0.491E-01
DAV:   5    -0.191621973965E+03    0.20914E-02   -0.59016E-03 11520   0.537E-01    0.221E-01
DAV:   6    -0.191622008469E+03   -0.34504E-04   -0.23510E-03 11160   0.336E-01    0.213E-01
DAV:   7    -0.191621714592E+03    0.29388E-03   -0.14971E-03 10400   0.303E-01    0.121E-01
DAV:   8    -0.191621467095E+03    0.24750E-03   -0.36662E-04  8400   0.122E-01    0.164E-02
DAV:   9    -0.191621472202E+03   -0.51065E-05   -0.51141E-05  6680   0.223E-02
  26 F= -.19162147E+03 E0= -.19152829E+03  d E =0.516512E-02
       N       E                     dE             d eps       ncg     rms          rms(c)
DAV:   1    -0.191652533018E+03   -0.31066E-01   -0.25190E+00  8160   0.345E+00    0.452E-01
DAV:   2    -0.191659865204E+03   -0.73322E-02   -0.98122E-02 12760   0.115E+00    0.669E-01
DAV:   3    -0.191657539505E+03    0.23257E-02   -0.21045E-02 12320   0.108E+00    0.527E-01
DAV:   4    -0.191655332993E+03    0.22065E-02   -0.93847E-03 12280   0.646E-01    0.404E-01
DAV:   5    -0.191654388300E+03    0.94469E-03   -0.56424E-03 12040   0.543E-01    0.295E-01
DAV:   6    -0.191653818765E+03    0.56954E-03   -0.30997E-03 10920   0.354E-01    0.179E-01
DAV:   7    -0.191653695546E+03    0.12322E-03   -0.15700E-03 10040   0.298E-01    0.160E-01
DAV:   8    -0.191653397547E+03    0.29800E-03   -0.53787E-04  8720   0.181E-01    0.353E-02
DAV:   9    -0.191653381344E+03    0.16203E-04   -0.59710E-05  6520   0.379E-02
  27 F= -.19165338E+03 E0= -.19156165E+03  d E =-.319091E-01
       N       E                     dE             d eps       ncg     rms          rms(c)
DAV:   1    -0.191673201413E+03   -0.19804E-01   -0.23257E+00  8160   0.327E+00    0.400E-01
DAV:   2    -0.191690678736E+03   -0.17477E-01   -0.94620E-02 13040   0.143E+00    0.119E+00
DAV:   3    -0.191678044492E+03    0.12634E-01   -0.32290E-02 12360   0.128E+00    0.377E-01
DAV:   4    -0.191678395724E+03   -0.35123E-03   -0.62630E-03 11040   0.565E-01    0.432E-01
DAV:   5    -0.191676437693E+03    0.19580E-02   -0.40625E-03 11240   0.498E-01    0.147E-01
DAV:   6    -0.191676661133E+03   -0.22344E-03   -0.16006E-03 11280   0.263E-01    0.186E-01
DAV:   7    -0.191676355308E+03    0.30582E-03   -0.10390E-03 10320   0.261E-01    0.973E-02
DAV:   8    -0.191676210808E+03    0.14450E-03   -0.21682E-04  7120   0.103E-01    0.203E-02
DAV:   9    -0.191676209889E+03    0.91840E-06   -0.47234E-05  6880   0.250E-02
  28 F= -.19167621E+03 E0= -.19158659E+03  d E =-.228285E-01
       N       E                     dE             d eps       ncg     rms          rms(c)
DAV:   1    -0.191699057567E+03   -0.22847E-01   -0.13884E+00  8160   0.253E+00    0.275E-01
DAV:   2    -0.191701314759E+03   -0.22572E-02   -0.42160E-02 12200   0.551E-01    0.187E-01
DAV:   3    -0.191701412940E+03   -0.98181E-04   -0.37226E-03 12240   0.354E-01    0.260E-01
DAV:   4    -0.191700808797E+03    0.60414E-03   -0.21235E-03 11560   0.374E-01    0.183E-01
DAV:   5    -0.191700526156E+03    0.28264E-03   -0.13470E-03  9760   0.244E-01    0.112E-01
DAV:   6    -0.191700657275E+03   -0.13112E-03   -0.86975E-04 10040   0.222E-01    0.165E-01
DAV:   7    -0.191700382656E+03    0.27462E-03   -0.49609E-04  8360   0.172E-01    0.506E-02
DAV:   8    -0.191700379746E+03    0.29103E-05   -0.96930E-05  5840   0.763E-02
  29 F= -.19170038E+03 E0= -.19161244E+03  d E =-.241699E-01
       N       E                     dE             d eps       ncg     rms          rms(c)
DAV:   1    -0.191675344308E+03    0.25038E-01   -0.12581E+00  8160   0.240E+00    0.257E-01
DAV:   2    -0.191677961913E+03   -0.26176E-02   -0.39520E-02 12200   0.565E-01    0.256E-01
DAV:   3    -0.191678538703E+03   -0.57679E-03   -0.57820E-03 11920   0.587E-01    0.373E-01
DAV:   4    -0.191677062295E+03    0.14764E-02   -0.26774E-03 11240   0.413E-01    0.140E-01
DAV:   5    -0.191677026779E+03    0.35516E-04   -0.12806E-03  9560   0.233E-01    0.165E-01
DAV:   6    -0.191676955574E+03    0.71206E-04   -0.10714E-03 10600   0.222E-01    0.131E-01
DAV:   7    -0.191676840118E+03    0.11546E-03   -0.59064E-04  8160   0.167E-01    0.923E-02
DAV:   8    -0.191676754174E+03    0.85945E-04   -0.15743E-04  6480   0.105E-01
  30 F= -.19167675E+03 E0= -.19158698E+03  d E =0.236256E-01
       N       E                     dE             d eps       ncg     rms          rms(c)
DAV:   1    -0.191668267310E+03    0.85728E-02   -0.24581E-01  8160   0.107E+00    0.135E-01
DAV:   2    -0.191669677714E+03   -0.14104E-02   -0.91334E-03 12400   0.448E-01    0.345E-01
DAV:   3    -0.191668622656E+03    0.10551E-02   -0.32268E-03 11520   0.390E-01    0.136E-01
DAV:   4    -0.191668644870E+03   -0.22214E-04   -0.79066E-04  8440   0.202E-01
  31 F= -.19166864E+03 E0= -.19157811E+03  d E =0.810930E-02
       N       E                     dE             d eps       ncg     rms          rms(c)
DAV:   1    -0.191683301904E+03   -0.14679E-01   -0.99821E-01  8160   0.212E+00    0.202E-01
DAV:   2    -0.191686615957E+03   -0.33141E-02   -0.33647E-02 12080   0.589E-01    0.318E-01
DAV:   3    -0.191686180824E+03    0.43513E-03   -0.49546E-03 12200   0.544E-01    0.264E-01
DAV:   4    -0.191685511904E+03    0.66892E-03   -0.12322E-03  9600   0.260E-01    0.117E-01
DAV:   5    -0.191685550019E+03   -0.38115E-04   -0.76821E-04  8680   0.200E-01
  32 F= -.19168555E+03 E0= -.19159755E+03  d E =-.169051E-01
       N       E                     dE             d eps       ncg     rms          rms(c)
DAV:   1    -0.191692211431E+03   -0.66995E-02   -0.18856E-01  8160   0.958E-01    0.145E-01
DAV:   2    -0.191693910643E+03   -0.16992E-02   -0.77185E-03 13440   0.445E-01    0.393E-01
DAV:   3    -0.191692390588E+03    0.15201E-02   -0.40090E-03 11200   0.469E-01    0.172E-01
DAV:   4    -0.191692182439E+03    0.20815E-03   -0.84282E-04  9480   0.174E-01    0.964E-02
DAV:   5    -0.191692178135E+03    0.43039E-05   -0.40108E-04  8040   0.154E-01
  33 F= -.19169218E+03 E0= -.19160326E+03  d E =-.662812E-02
       N       E                     dE             d eps       ncg     rms          rms(c)
DAV:   1    -0.191702156198E+03   -0.99738E-02   -0.14912E+00  8160   0.260E+00    0.336E-01
DAV:   2    -0.191721855193E+03   -0.19699E-01   -0.64846E-02 12640   0.138E+00    0.147E+00
DAV:   3    -0.191704033838E+03    0.17821E-01   -0.37430E-02 11200   0.125E+00    0.226E-01
DAV:   4    -0.191704137440E+03   -0.10360E-03   -0.29371E-03 11040   0.330E-01    0.245E-01
DAV:   5    -0.191703525691E+03    0.61175E-03   -0.16498E-03 11080   0.327E-01    0.138E-01
DAV:   6    -0.191703437652E+03    0.88038E-04   -0.76948E-04  9840   0.193E-01
  34 F= -.19170344E+03 E0= -.19161698E+03  d E =-.112595E-01
       N       E                     dE             d eps       ncg     rms          rms(c)
DAV:   1    -0.191712936434E+03   -0.94107E-02   -0.17741E+00  8160   0.285E+00    0.366E-01
DAV:   2    -0.191730065401E+03   -0.17129E-01   -0.66598E-02 13000   0.137E+00    0.128E+00
DAV:   3    -0.191715542249E+03    0.14523E-01   -0.33034E-02 11640   0.124E+00    0.340E-01
DAV:   4    -0.191715804388E+03   -0.26214E-03   -0.48201E-03 10880   0.556E-01    0.360E-01
DAV:   5    -0.191714297403E+03    0.15070E-02   -0.19853E-03 11240   0.381E-01    0.869E-02
DAV:   6    -0.191714387550E+03   -0.90147E-04   -0.71142E-04 11120   0.107E-01
  35 F= -.19171439E+03 E0= -.19162994E+03  d E =-.109499E-01
       N       E                     dE             d eps       ncg     rms          rms(c)
DAV:   1    -0.191734576940E+03   -0.20280E-01   -0.16450E+00  8160   0.283E+00    0.411E-01
DAV:   2    -0.191741800932E+03   -0.72240E-02   -0.57909E-02 12720   0.105E+00    0.870E-01
DAV:   3    -0.191735576563E+03    0.62244E-02   -0.22140E-02 11520   0.110E+00    0.496E-01
DAV:   4    -0.191733522711E+03    0.20539E-02   -0.60919E-03 11440   0.481E-01    0.229E-01
DAV:   5    -0.191733166169E+03    0.35654E-03   -0.27261E-03 11160   0.387E-01    0.219E-01
DAV:   6    -0.191732767586E+03    0.39858E-03   -0.15680E-03 10560   0.337E-01    0.133E-01
DAV:   7    -0.191732533682E+03    0.23390E-03   -0.61152E-04 10880   0.163E-01    0.561E-02
DAV:   8    -0.191732533492E+03    0.19002E-06   -0.15749E-04  6280   0.107E-01
  36 F= -.19173253E+03 E0= -.19164836E+03  d E =-.181459E-01
       N       E                     dE             d eps       ncg     rms          rms(c)
DAV:   1    -0.191750855789E+03   -0.18322E-01   -0.13254E+00  8160   0.243E+00    0.226E-01
DAV:   2    -0.191753828795E+03   -0.29730E-02   -0.34931E-02 12320   0.578E-01    0.322E-01
DAV:   3    -0.191753947509E+03   -0.11871E-03   -0.61314E-03 12160   0.552E-01    0.354E-01
DAV:   4    -0.191752721990E+03    0.12255E-02   -0.18995E-03  9760   0.312E-01    0.904E-02
DAV:   5    -0.191752726807E+03   -0.48177E-05   -0.61421E-04 10080   0.130E-01
  37 F= -.19175273E+03 E0= -.19167068E+03  d E =-.201933E-01
       N       E                     dE             d eps       ncg     rms          rms(c)
DAV:   1    -0.191773039572E+03   -0.20318E-01   -0.87854E-01  8160   0.203E+00    0.276E-01
DAV:   2    -0.191781096317E+03   -0.80567E-02   -0.35875E-02 12320   0.102E+00    0.816E-01
DAV:   3    -0.191773758926E+03    0.73374E-02   -0.12673E-02 12240   0.889E-01    0.174E-01
DAV:   4    -0.191774234332E+03   -0.47541E-03   -0.20909E-03 11360   0.334E-01    0.275E-01
DAV:   5    -0.191773527761E+03    0.70657E-03   -0.16912E-03 10080   0.336E-01    0.126E-01
DAV:   6    -0.191773504895E+03    0.22866E-04   -0.65696E-04  9680   0.180E-01
  38 F= -.19177350E+03 E0= -.19169325E+03  d E =-.207781E-01
       N       E                     dE             d eps       ncg     rms          rms(c)
DAV:   1    -0.191763643269E+03    0.98845E-02   -0.52935E-01  8160   0.160E+00    0.241E-01
DAV:   2    -0.191770094080E+03   -0.64508E-02   -0.23867E-02 12240   0.900E-01    0.791E-01
DAV:   3    -0.191763974082E+03    0.61200E-02   -0.12120E-02 12120   0.823E-01    0.202E-01
DAV:   4    -0.191763949454E+03    0.24629E-04   -0.19727E-03 10600   0.290E-01    0.206E-01
DAV:   5    -0.191763720998E+03    0.22846E-03   -0.14288E-03 10280   0.305E-01    0.153E-01
DAV:   6    -0.191763415612E+03    0.30539E-03   -0.46468E-04  8800   0.153E-01    0.360E-02
DAV:   7    -0.191763440391E+03   -0.24779E-04   -0.10528E-04  6560   0.731E-02
  39 F= -.19176344E+03 E0= -.19168231E+03  d E =0.100645E-01
       N       E                     dE             d eps       ncg     rms          rms(c)
DAV:   1    -0.191796488483E+03   -0.33073E-01   -0.23849E+00  8160   0.334E+00    0.395E-01
DAV:   2    -0.191801963049E+03   -0.54746E-02   -0.78161E-02 12240   0.981E-01    0.527E-01
DAV:   3    -0.191801375258E+03    0.58779E-03   -0.14537E-02 12240   0.969E-01    0.511E-01
DAV:   4    -0.191798843363E+03    0.25319E-02   -0.58010E-03 12280   0.592E-01    0.263E-01
DAV:   5    -0.191798800946E+03    0.42417E-04   -0.32481E-03 10560   0.442E-01    0.292E-01
DAV:   6    -0.191798157443E+03    0.64350E-03   -0.26259E-03 11400   0.366E-01    0.150E-01
DAV:   7    -0.191798026190E+03    0.13125E-03   -0.91361E-04  9680   0.234E-01    0.118E-01
DAV:   8    -0.191797853056E+03    0.17313E-03   -0.29118E-04  9280   0.141E-01    0.306E-02
DAV:   9    -0.191797837704E+03    0.15353E-04   -0.44307E-05  6080   0.355E-02
  40 F= -.19179784E+03 E0= -.19171885E+03  d E =-.343973E-01
       N       E                     dE             d eps       ncg     rms          rms(c)
DAV:   1    -0.191811520468E+03   -0.13667E-01   -0.36542E-01  8160   0.129E+00    0.153E-01
DAV:   2    -0.191812993330E+03   -0.14729E-02   -0.13086E-02 11400   0.497E-01    0.307E-01
DAV:   3    -0.191812154838E+03    0.83849E-03   -0.26652E-03 12040   0.394E-01    0.144E-01
DAV:   4    -0.191812105682E+03    0.49156E-04   -0.77709E-04  8600   0.212E-01
  41 F= -.19181211E+03 E0= -.19173469E+03  d E =-.142680E-01
       N       E                     dE             d eps       ncg     rms          rms(c)
DAV:   1    -0.191843572995E+03   -0.31418E-01   -0.18958E+00  8160   0.296E+00    0.361E-01
DAV:   2    -0.191850866687E+03   -0.72937E-02   -0.64116E-02 11720   0.998E-01    0.691E-01
DAV:   3    -0.191846884412E+03    0.39823E-02   -0.13606E-02 11720   0.927E-01    0.385E-01
DAV:   4    -0.191845701190E+03    0.11832E-02   -0.39374E-03 11440   0.434E-01    0.209E-01
DAV:   5    -0.191845522831E+03    0.17836E-03   -0.22823E-03 11160   0.370E-01    0.211E-01
DAV:   6    -0.191845231834E+03    0.29100E-03   -0.14107E-03 11520   0.302E-01    0.122E-01
DAV:   7    -0.191845098343E+03    0.13349E-03   -0.54847E-04  8960   0.175E-01    0.849E-02
DAV:   8    -0.191845013525E+03    0.84818E-04   -0.15684E-04  7520   0.110E-01
  42 F= -.19184501E+03 E0= -.19176970E+03  d E =-.329078E-01
       N       E                     dE             d eps       ncg     rms          rms(c)
DAV:   1    -0.191857239677E+03   -0.12141E-01   -0.25015E-01  8160   0.108E+00    0.133E-01
DAV:   2    -0.191858120647E+03   -0.88097E-03   -0.89368E-03 12760   0.348E-01    0.229E-01
DAV:   3    -0.191857784817E+03    0.33583E-03   -0.19696E-03 11920   0.351E-01    0.161E-01
DAV:   4    -0.191857545640E+03    0.23918E-03   -0.47769E-04  8240   0.162E-01    0.723E-02
DAV:   5    -0.191857558840E+03   -0.13200E-04   -0.30163E-04  8680   0.145E-01
  43 F= -.19185756E+03 E0= -.19178285E+03  d E =-.125453E-01
       N       E                     dE             d eps       ncg     rms          rms(c)
DAV:   1    -0.191896258478E+03   -0.38713E-01   -0.27947E+00  8160   0.360E+00    0.437E-01
DAV:   2    -0.191910542741E+03   -0.14284E-01   -0.98998E-02 12280   0.140E+00    0.975E-01
DAV:   3    -0.191901127679E+03    0.94151E-02   -0.20947E-02 12120   0.124E+00    0.385E-01
DAV:   4    -0.191899627853E+03    0.14998E-02   -0.34674E-03 11560   0.389E-01    0.193E-01
DAV:   5    -0.191899901126E+03   -0.27327E-03   -0.26778E-03 12320   0.416E-01    0.265E-01
DAV:   6    -0.191899358904E+03    0.54222E-03   -0.19592E-03 11640   0.358E-01    0.128E-01
DAV:   7    -0.191899101723E+03    0.25718E-03   -0.57438E-04  9720   0.147E-01    0.499E-02
DAV:   8    -0.191899084651E+03    0.17071E-04   -0.10023E-04  8480   0.870E-02
  44 F= -.19189908E+03 E0= -.19182652E+03  d E =-.415258E-01
       N       E                     dE             d eps       ncg     rms          rms(c)
DAV:   1    -0.191919087049E+03   -0.19985E-01   -0.67754E-01  8160   0.177E+00    0.241E-01
DAV:   2    -0.191924314267E+03   -0.52272E-02   -0.29196E-02 11360   0.896E-01    0.621E-01
DAV:   3    -0.191920040553E+03    0.42737E-02   -0.76250E-03 12120   0.728E-01    0.167E-01
DAV:   4    -0.191920115542E+03   -0.74989E-04   -0.13075E-03 10080   0.294E-01    0.192E-01
DAV:   5    -0.191919762868E+03    0.35267E-03   -0.87234E-04 10400   0.273E-01    0.102E-01
DAV:   6    -0.191919727503E+03    0.35365E-04   -0.41557E-04 10200   0.138E-01
  45 F= -.19191973E+03 E0= -.19184835E+03  d E =-.206429E-01
       N       E                     dE             d eps       ncg     rms          rms(c)
DAV:   1    -0.191954972746E+03   -0.35210E-01   -0.23931E+00  8160   0.332E+00    0.418E-01
DAV:   2    -0.191970222289E+03   -0.15250E-01   -0.91419E-02 11880   0.143E+00    0.998E-01
DAV:   3    -0.191959093980E+03    0.11128E-01   -0.20473E-02 11760   0.123E+00    0.314E-01
DAV:   4    -0.191958796428E+03    0.29755E-03   -0.33177E-03 11560   0.447E-01    0.279E-01
DAV:   5    -0.191958019935E+03    0.77649E-03   -0.20562E-03 11920   0.414E-01    0.156E-01
DAV:   6    -0.191958039697E+03   -0.19763E-04   -0.10916E-03 10760   0.222E-01    0.126E-01
DAV:   7    -0.191957861212E+03    0.17849E-03   -0.63038E-04 10440   0.193E-01    0.937E-02
DAV:   8    -0.191957756966E+03    0.10425E-03   -0.16955E-04  7320   0.112E-01    0.182E-02
DAV:   9    -0.191957757613E+03   -0.64664E-06   -0.31239E-05  6480   0.244E-02
  46 F= -.19195776E+03 E0= -.19188819E+03  d E =-.380301E-01
       N       E                     dE             d eps       ncg     rms          rms(c)
DAV:   1    -0.192030979748E+03   -0.73223E-01   -0.28399E+01  8160   0.115E+01    0.138E+00
DAV:   2    -0.192180357787E+03   -0.14938E+00   -0.10458E+00 12320   0.452E+00    0.276E+00
DAV:   3    -0.192085397488E+03    0.94960E-01   -0.17631E-01 11720   0.375E+00    0.107E+00
DAV:   4    -0.192076518402E+03    0.88791E-02   -0.36712E-02 12600   0.143E+00    0.732E-01
DAV:   5    -0.192071689664E+03    0.48287E-02   -0.19266E-02 12000   0.120E+00    0.546E-01
DAV:   6    -0.192070713771E+03    0.97589E-03   -0.11363E-02 12920   0.863E-01    0.397E-01
DAV:   7    -0.192067957233E+03    0.27565E-02   -0.48937E-03 11760   0.423E-01    0.134E-01
DAV:   8    -0.192067916438E+03    0.40795E-04   -0.91106E-04 11840   0.234E-01
  47 F= -.19206792E+03 E0= -.19200282E+03  d E =-.110159E+00
       N       E                     dE             d eps       ncg     rms          rms(c)
DAV:   1    -0.192093727973E+03   -0.25771E-01   -0.50580E+00  8160   0.478E+00    0.615E-01
DAV:   2    -0.192126861545E+03   -0.33134E-01   -0.22376E-01 12000   0.221E+00    0.135E+00
DAV:   3    -0.192106265505E+03    0.20596E-01   -0.42082E-02 12280   0.184E+00    0.456E-01
DAV:   4    -0.192104635672E+03    0.16298E-02   -0.60954E-03 12080   0.625E-01    0.319E-01
DAV:   5    -0.192103833074E+03    0.80260E-03   -0.33191E-03 11880   0.540E-01    0.233E-01
DAV:   6    -0.192103675914E+03    0.15716E-03   -0.20733E-03 12080   0.328E-01    0.154E-01
DAV:   7    -0.192103355268E+03    0.32065E-03   -0.10211E-03 10760   0.214E-01    0.105E-01
DAV:   8    -0.192103236104E+03    0.11916E-03   -0.25840E-04  9480   0.133E-01    0.299E-02
DAV:   9    -0.192103232882E+03    0.32221E-05   -0.44384E-05  6840   0.374E-02
  48 F= -.19210323E+03 E0= -.19203984E+03  d E =-.353164E-01
       N       E                     dE             d eps       ncg     rms          rms(c)
DAV:   1    -0.192100894489E+03    0.23416E-02   -0.31129E+00  8160   0.380E+00    0.423E-01
DAV:   2    -0.192111020134E+03   -0.10126E-01   -0.93101E-02 12800   0.123E+00    0.754E-01
DAV:   3    -0.192106070294E+03    0.49498E-02   -0.17453E-02 12320   0.111E+00    0.409E-01
DAV:   4    -0.192104347468E+03    0.17228E-02   -0.34144E-03 12520   0.480E-01    0.240E-01
DAV:   5    -0.192104223886E+03    0.12358E-03   -0.26222E-03 11040   0.476E-01    0.249E-01
DAV:   6    -0.192103636631E+03    0.58725E-03   -0.15758E-03 12000   0.324E-01    0.968E-02
DAV:   7    -0.192103477520E+03    0.15911E-03   -0.42524E-04 10520   0.130E-01    0.596E-02
DAV:   8    -0.192103444785E+03    0.32735E-04   -0.96826E-05  7280   0.912E-02
  49 F= -.19210344E+03 E0= -.19203983E+03  d E =-.211903E-03
       N       E                     dE             d eps       ncg     rms          rms(c)
DAV:   1    -0.192128351350E+03   -0.24874E-01   -0.51639E+00  8160   0.484E+00    0.614E-01
DAV:   2    -0.192161657024E+03   -0.33306E-01   -0.20262E-01 12520   0.219E+00    0.140E+00
DAV:   3    -0.192138095076E+03    0.23562E-01   -0.41413E-02 12200   0.184E+00    0.439E-01
DAV:   4    -0.192136924336E+03    0.11707E-02   -0.66427E-03 12440   0.626E-01    0.343E-01
DAV:   5    -0.192135782562E+03    0.11418E-02   -0.36424E-03 11920   0.555E-01    0.230E-01
DAV:   6    -0.192135583861E+03    0.19870E-03   -0.20680E-03 12040   0.332E-01    0.151E-01
DAV:   7    -0.192135263484E+03    0.32038E-03   -0.95004E-04 10520   0.193E-01    0.917E-02
DAV:   8    -0.192135174122E+03    0.89363E-04   -0.21564E-04  9040   0.124E-01
  50 F= -.19213517E+03 E0= -.19207284E+03  d E =-.317293E-01
       N       E                     dE             d eps       ncg     rms          rms(c)
DAV:   1    -0.192150429619E+03   -0.15166E-01   -0.10342E+01  8160   0.688E+00    0.855E-01
DAV:   2    -0.192213647584E+03   -0.63218E-01   -0.38941E-01 13560   0.299E+00    0.189E+00
DAV:   3    -0.192168916422E+03    0.44731E-01   -0.75349E-02 11720   0.252E+00    0.617E-01
DAV:   4    -0.192166271912E+03    0.26445E-02   -0.13204E-02 12720   0.847E-01    0.454E-01
DAV:   5    -0.192164184246E+03    0.20877E-02   -0.70587E-03 12440   0.744E-01    0.314E-01
DAV:   6    -0.192163814483E+03    0.36976E-03   -0.40187E-03 12240   0.484E-01    0.217E-01
DAV:   7    -0.192162964274E+03    0.85021E-03   -0.16687E-03 12240   0.219E-01    0.499E-02
DAV:   8    -0.192162972155E+03   -0.78813E-05   -0.19335E-04  9000   0.999E-02
  51 F= -.19216297E+03 E0= -.19210108E+03  d E =-.277980E-01
       N       E                     dE             d eps       ncg     rms          rms(c)
DAV:   1    -0.192166922240E+03   -0.39580E-02   -0.16993E+00  8160   0.277E+00    0.364E-01
DAV:   2    -0.192178535288E+03   -0.11613E-01   -0.74795E-02 12360   0.138E+00    0.823E-01
DAV:   3    -0.192170395202E+03    0.81401E-02   -0.14804E-02 11920   0.109E+00    0.248E-01
DAV:   4    -0.192170075104E+03    0.32010E-03   -0.23028E-03 11960   0.390E-01    0.215E-01
DAV:   5    -0.192169694069E+03    0.38103E-03   -0.13301E-03 11440   0.353E-01    0.145E-01
DAV:   6    -0.192169556064E+03    0.13801E-03   -0.75464E-04 10920   0.182E-01    0.689E-02
DAV:   7    -0.192169484328E+03    0.71736E-04   -0.26509E-04  7640   0.825E-02
  52 F= -.19216948E+03 E0= -.19210797E+03  d E =-.651217E-02
       N       E                     dE             d eps       ncg     rms          rms(c)
DAV:   1    -0.192170515590E+03   -0.95953E-03   -0.15726E-01  8240   0.855E-01    0.103E-01
DAV:   2    -0.192171241133E+03   -0.72554E-03   -0.62571E-03 11560   0.328E-01    0.195E-01
DAV:   3    -0.192170858592E+03    0.38254E-03   -0.10685E-03 11320   0.285E-01    0.875E-02
DAV:   4    -0.192170779121E+03    0.79471E-04   -0.18671E-04  7800   0.119E-01
  53 F= -.19217078E+03 E0= -.19210932E+03  d E =-.129479E-02
       N       E                     dE             d eps       ncg     rms          rms(c)
DAV:   1    -0.192172849779E+03   -0.19912E-02   -0.20690E-01  8160   0.970E-01    0.112E-01
DAV:   2    -0.192173768004E+03   -0.91823E-03   -0.78164E-03 12280   0.355E-01    0.195E-01
DAV:   3    -0.192173330121E+03    0.43788E-03   -0.11997E-03 12320   0.300E-01    0.860E-02
DAV:   4    -0.192173235914E+03    0.94207E-04   -0.12766E-04  6280   0.930E-02
  54 F= -.19217324E+03 E0= -.19211202E+03  d E =-.245679E-02
       N       E                     dE             d eps       ncg     rms          rms(c)
DAV:   1    -0.192175353561E+03   -0.20234E-02   -0.30090E-01  8160   0.117E+00    0.139E-01
DAV:   2    -0.192177033864E+03   -0.16803E-02   -0.11752E-02 12640   0.462E-01    0.298E-01
DAV:   3    -0.192176061937E+03    0.97193E-03   -0.22159E-03 12640   0.424E-01    0.111E-01
DAV:   4    -0.192175929890E+03    0.13205E-03   -0.24037E-04  8280   0.114E-01    0.515E-02
DAV:   5    -0.192175968061E+03   -0.38172E-04   -0.19092E-04  8840   0.127E-01
  55 F= -.19217597E+03 E0= -.19211495E+03  d E =-.273215E-02
       N       E                     dE             d eps       ncg     rms          rms(c)
DAV:   1    -0.192177925001E+03   -0.19951E-02   -0.81512E-01  8160   0.192E+00    0.209E-01
DAV:   2    -0.192180961865E+03   -0.30369E-02   -0.31110E-02 11840   0.659E-01    0.316E-01
DAV:   3    -0.192180205801E+03    0.75606E-03   -0.39758E-03 12520   0.538E-01    0.208E-01
DAV:   4    -0.192179725608E+03    0.48019E-03   -0.83475E-04 10560   0.252E-01    0.107E-01
DAV:   5    -0.192179711802E+03    0.13806E-04   -0.40702E-04  9480   0.198E-01
  56 F= -.19217971E+03 E0= -.19211906E+03  d E =-.374374E-02
       N       E                     dE             d eps       ncg     rms          rms(c)
DAV:   1    -0.192180759591E+03   -0.10340E-02   -0.11740E+00  8160   0.230E+00    0.257E-01
DAV:   2    -0.192185927949E+03   -0.51684E-02   -0.42479E-02 13040   0.871E-01    0.484E-01
DAV:   3    -0.192183433425E+03    0.24945E-02   -0.65953E-03 12360   0.724E-01    0.215E-01
DAV:   4    -0.192183008215E+03    0.42521E-03   -0.11492E-03 10440   0.280E-01    0.136E-01
DAV:   5    -0.192182901957E+03    0.10626E-03   -0.65204E-04 11440   0.244E-01    0.114E-01
DAV:   6    -0.192182871472E+03    0.30485E-04   -0.51142E-04 10320   0.165E-01
  57 F= -.19218287E+03 E0= -.19212262E+03  d E =-.315967E-02
       N       E                     dE             d eps       ncg     rms          rms(c)
DAV:   1    -0.192183130340E+03   -0.22838E-03   -0.93034E-03  8640   0.243E-01    0.590E-02
DAV:   2    -0.192183452808E+03   -0.32247E-03   -0.10658E-03 12600   0.230E-01    0.169E-01
DAV:   3    -0.192183092000E+03    0.36081E-03   -0.51295E-04  9120   0.211E-01    0.339E-02
DAV:   4    -0.192183094776E+03   -0.27754E-05   -0.52630E-05  6360   0.473E-02
  58 F= -.19218309E+03 E0= -.19212276E+03  d E =-.223304E-03
