<?xml version="1.0" encoding="ISO-8859-1"?>
<modeling>
 <generator>
  <i name="program" type="string">vasp </i>
  <i name="version" type="string">5.4.1  </i>
  <i name="subversion" type="string">05Feb16 (build Jul 05 2020 17:13:04) complex                          parallel </i>
  <i name="platform" type="string">IFC91_ompi </i>
  <i name="date" type="string">2024 04 24 </i>
  <i name="time" type="string">08:46:19 </i>
 </generator>
 <incar>
  <i type="int" name="ISTART">     0</i>
  <i type="string" name="PREC">normal</i>
  <i type="string" name="ALGO"> Normal</i>
  <i type="int" name="ISPIN">     1</i>
  <i type="int" name="ICHARG">     2</i>
  <i type="int" name="IBRION">     1</i>
  <i type="int" name="NSW">   100</i>
  <i type="int" name="ISIF">     3</i>
  <i type="int" name="ISYM">     0</i>
  <i name="SYMPREC">      0.00000001</i>
  <i name="POTIM">      0.50000000</i>
  <i type="logical" name="LREAL"> F  </i>
  <i type="logical" name="LPLANE"> F  </i>
  <i type="int" name="ISMEAR">     0</i>
  <i type="logical" name="LWAVE"> F  </i>
  <i type="logical" name="LCHARG"> F  </i>
  <v type="int" name="KPOINT_BSE">    -1     0     0     0</v>
 </incar>
 <kpoints>
  <generation param="Gamma">
   <v type="int" name="divisions">       8        8        1 </v>
   <v name="usershift">      0.00000000       0.00000000       0.00000000 </v>
   <v name="genvec1">      0.12500000       0.00000000       0.00000000 </v>
   <v name="genvec2">     -0.00000000       0.12500000       0.00000000 </v>
   <v name="genvec3">      0.00000000       0.00000000       1.00000000 </v>
   <v name="shift">      0.00000000       0.00000000       0.00000000 </v>
  </generation>
  <varray name="kpointlist" >
   <v>       0.00000000       0.00000000       0.00000000 </v>
   <v>       0.12500000       0.00000000       0.00000000 </v>
   <v>       0.25000000       0.00000000       0.00000000 </v>
   <v>       0.37500000       0.00000000       0.00000000 </v>
   <v>       0.50000000       0.00000000       0.00000000 </v>
   <v>       0.00000000       0.12500000       0.00000000 </v>
   <v>       0.12500000       0.12500000       0.00000000 </v>
   <v>       0.25000000       0.12500000       0.00000000 </v>
   <v>       0.37500000       0.12500000       0.00000000 </v>
   <v>       0.50000000       0.12500000       0.00000000 </v>
   <v>      -0.37500000       0.12500000       0.00000000 </v>
   <v>      -0.25000000       0.12500000       0.00000000 </v>
   <v>      -0.12500000       0.12500000       0.00000000 </v>
   <v>       0.00000000       0.25000000       0.00000000 </v>
   <v>       0.12500000       0.25000000       0.00000000 </v>
   <v>       0.25000000       0.25000000       0.00000000 </v>
   <v>       0.37500000       0.25000000       0.00000000 </v>
   <v>       0.50000000       0.25000000       0.00000000 </v>
   <v>      -0.37500000       0.25000000       0.00000000 </v>
   <v>      -0.25000000       0.25000000       0.00000000 </v>
   <v>      -0.12500000       0.25000000       0.00000000 </v>
   <v>      -0.00000000       0.37500000       0.00000000 </v>
   <v>       0.12500000       0.37500000       0.00000000 </v>
   <v>       0.25000000       0.37500000       0.00000000 </v>
   <v>       0.37500000       0.37500000       0.00000000 </v>
   <v>       0.50000000       0.37500000       0.00000000 </v>
   <v>      -0.37500000       0.37500000       0.00000000 </v>
   <v>      -0.25000000       0.37500000       0.00000000 </v>
   <v>      -0.12500000       0.37500000       0.00000000 </v>
   <v>       0.00000000       0.50000000       0.00000000 </v>
   <v>       0.12500000       0.50000000       0.00000000 </v>
   <v>       0.25000000       0.50000000       0.00000000 </v>
   <v>       0.37500000       0.50000000       0.00000000 </v>
   <v>       0.50000000       0.50000000       0.00000000 </v>
  </varray>
  <varray name="weights" >
   <v>       0.01562500 </v>
   <v>       0.03125000 </v>
   <v>       0.03125000 </v>
   <v>       0.03125000 </v>
   <v>       0.01562500 </v>
   <v>       0.03125000 </v>
   <v>       0.03125000 </v>
   <v>       0.03125000 </v>
   <v>       0.03125000 </v>
   <v>       0.03125000 </v>
   <v>       0.03125000 </v>
   <v>       0.03125000 </v>
   <v>       0.03125000 </v>
   <v>       0.03125000 </v>
   <v>       0.03125000 </v>
   <v>       0.03125000 </v>
   <v>       0.03125000 </v>
   <v>       0.03125000 </v>
   <v>       0.03125000 </v>
   <v>       0.03125000 </v>
   <v>       0.03125000 </v>
   <v>       0.03125000 </v>
   <v>       0.03125000 </v>
   <v>       0.03125000 </v>
   <v>       0.03125000 </v>
   <v>       0.03125000 </v>
   <v>       0.03125000 </v>
   <v>       0.03125000 </v>
   <v>       0.03125000 </v>
   <v>       0.01562500 </v>
   <v>       0.03125000 </v>
   <v>       0.03125000 </v>
   <v>       0.03125000 </v>
   <v>       0.01562500 </v>
  </varray>
 </kpoints>
 <parameters>
  <separator name="general" >
   <i type="string" name="SYSTEM">unknown system</i>
   <i type="logical" name="LCOMPAT"> F  </i>
  </separator>
  <separator name="electronic" >
   <i type="string" name="PREC">normal</i>
   <i name="ENMAX">    280.00000000</i>
   <i name="ENAUG">    373.43800000</i>
   <i name="EDIFF">      0.00010000</i>
   <i type="int" name="IALGO">    38</i>
   <i type="int" name="IWAVPR">    11</i>
   <i type="int" name="NBANDS">   120</i>
   <i name="NELECT">    159.00000000</i>
   <i type="int" name="TURBO">     0</i>
   <i type="int" name="IRESTART">     0</i>
   <i type="int" name="NREBOOT">     0</i>
   <i type="int" name="NMIN">     0</i>
   <i name="EREF">      0.00000000</i>
   <separator name="electronic smearing" >
    <i type="int" name="ISMEAR">     0</i>
    <i name="SIGMA">      0.20000000</i>
    <i name="KSPACING">      0.50000000</i>
    <i type="logical" name="KGAMMA"> T  </i>
   </separator>
   <separator name="electronic projectors" >
    <i type="logical" name="LREAL"> F  </i>
    <v name="ROPT">      0.00000000      0.00000000      0.00000000      0.00000000</v>
    <i type="int" name="LMAXPAW">  -100</i>
    <i type="int" name="LMAXMIX">     2</i>
    <i type="logical" name="NLSPLINE"> F  </i>
   </separator>
   <separator name="electronic startup" >
    <i type="int" name="ISTART">     0</i>
    <i type="int" name="ICHARG">     2</i>
    <i type="int" name="INIWAV">     1</i>
   </separator>
   <separator name="electronic spin" >
    <i type="int" name="ISPIN">     1</i>
    <i type="logical" name="LNONCOLLINEAR"> F  </i>
    <v name="MAGMOM">      1.00000000      1.00000000      1.00000000      1.00000000      1.00000000      1.00000000      1.00000000      1.00000000      1.00000000      1.00000000      1.00000000      1.00000000      1.00000000      1.00000000      1.00000000      1.00000000      1.00000000      1.00000000      1.00000000      1.00000000
      1.00000000      1.00000000      1.00000000      1.00000000      1.00000000      1.00000000      1.00000000</v>
    <i name="NUPDOWN">     -1.00000000</i>
    <i type="logical" name="LSORBIT"> F  </i>
    <v name="SAXIS">      0.00000000      0.00000000      1.00000000</v>
    <i type="logical" name="LSPIRAL"> F  </i>
    <v name="QSPIRAL">      0.00000000      0.00000000      0.00000000</v>
    <i type="logical" name="LZEROZ"> F  </i>
   </separator>
   <separator name="electronic exchange-correlation" >
    <i type="logical" name="LASPH"> F  </i>
    <i type="logical" name="LMETAGGA"> F  </i>
   </separator>
   <separator name="electronic convergence" >
    <i type="int" name="NELM">    60</i>
    <i type="int" name="NELMDL">    -5</i>
    <i type="int" name="NELMIN">     2</i>
    <i name="ENINI">    280.00000000</i>
    <separator name="electronic convergence detail" >
     <i type="logical" name="LDIAG"> T  </i>
     <i type="logical" name="LSUBROT"> F  </i>
     <i name="WEIMIN">      0.00100000</i>
     <i name="EBREAK">      0.00000021</i>
     <i name="DEPER">      0.30000000</i>
     <i type="int" name="NRMM">     4</i>
     <i name="TIME">      0.40000000</i>
    </separator>
   </separator>
   <separator name="electronic mixer" >
    <i name="AMIX">      0.40000000</i>
    <i name="BMIX">      1.00000000</i>
    <i name="AMIN">      0.10000000</i>
    <i name="AMIX_MAG">      1.60000000</i>
    <i name="BMIX_MAG">      1.00000000</i>
    <separator name="electronic mixer details" >
     <i type="int" name="IMIX">     4</i>
     <i type="logical" name="MIXFIRST"> F  </i>
     <i type="int" name="MAXMIX">   -45</i>
     <i name="WC">    100.00000000</i>
     <i type="int" name="INIMIX">     1</i>
     <i type="int" name="MIXPRE">     1</i>
     <i type="int" name="MREMOVE">     5</i>
    </separator>
   </separator>
   <separator name="electronic dipolcorrection" >
    <i type="logical" name="LDIPOL"> F  </i>
    <i type="logical" name="LMONO"> F  </i>
    <i type="int" name="IDIPOL">     0</i>
    <i name="EPSILON">      1.00000000</i>
    <v name="DIPOL">   -100.00000000   -100.00000000   -100.00000000</v>
    <i name="EFIELD">      0.00000000</i>
   </separator>
  </separator>
  <separator name="grids" >
   <i type="int" name="NGX">    42</i>
   <i type="int" name="NGY">    42</i>
   <i type="int" name="NGZ">   126</i>
   <i type="int" name="NGXF">    84</i>
   <i type="int" name="NGYF">    84</i>
   <i type="int" name="NGZF">   252</i>
   <i type="logical" name="ADDGRID"> F  </i>
  </separator>
  <separator name="ionic" >
   <i type="int" name="NSW">   100</i>
   <i type="int" name="IBRION">     1</i>
   <i type="int" name="ISIF">     3</i>
   <i name="PSTRESS">      0.00000000</i>
   <i name="EDIFFG">      0.00100000</i>
   <i type="int" name="NFREE">     0</i>
   <i name="POTIM">      0.50000000</i>
   <i name="SMASS">     -3.00000000</i>
   <i name="SCALEE">      1.00000000</i>
  </separator>
  <separator name="ionic md" >
   <i name="TEBEG">      0.00010000</i>
   <i name="TEEND">      0.00010000</i>
   <i type="int" name="NBLOCK">     1</i>
   <i type="int" name="KBLOCK">   100</i>
   <i type="int" name="NPACO">   256</i>
   <i name="APACO">     16.00000000</i>
  </separator>
  <separator name="symmetry" >
   <i type="int" name="ISYM">     0</i>
   <i name="SYMPREC">      0.00000001</i>
  </separator>
  <separator name="dos" >
   <i type="logical" name="LORBIT"> F  </i>
   <v name="RWIGS">     -1.00000000     -1.00000000     -1.00000000     -1.00000000</v>
   <i type="int" name="NEDOS">   301</i>
   <i name="EMIN">     10.00000000</i>
   <i name="EMAX">    -10.00000000</i>
   <i name="EFERMI">      0.00000000</i>
  </separator>
  <separator name="writing" >
   <i type="int" name="NWRITE">     2</i>
   <i type="logical" name="LWAVE"> F  </i>
   <i type="logical" name="LCHARG"> F  </i>
   <i type="logical" name="LPARD"> F  </i>
   <i type="logical" name="LVTOT"> F  </i>
   <i type="logical" name="LVHAR"> F  </i>
   <i type="logical" name="LELF"> F  </i>
   <i type="logical" name="LOPTICS"> F  </i>
   <v name="STM">      0.00000000      0.00000000      0.00000000      0.00000000      0.00000000      0.00000000      0.00000000</v>
  </separator>
  <separator name="performance" >
   <i type="int" name="NPAR">    40</i>
   <i type="int" name="NSIM">     4</i>
   <i type="int" name="NBLK">    -1</i>
   <i type="logical" name="LPLANE"> F  </i>
   <i type="logical" name="LSCALAPACK"> T  </i>
   <i type="logical" name="LSCAAWARE"> F  </i>
   <i type="logical" name="LSCALU"> F  </i>
   <i type="logical" name="LASYNC"> F  </i>
   <i type="logical" name="LORBITALREAL"> F  </i>
  </separator>
  <separator name="miscellaneous" >
   <i type="int" name="IDIOT">     3</i>
   <i type="logical" name="LMUSIC"> F  </i>
   <v name="POMASS">     50.94100000     95.94000000    183.85000000     32.06600000</v>
   <v name="DARWINR">      0.00000000      0.00000000      0.00000000      0.00000000</v>
   <v name="DARWINV">      1.00000000      1.00000000      1.00000000      1.00000000</v>
   <i type="logical" name="LCORR"> T  </i>
  </separator>
  <i type="logical" name="GGA_COMPAT"> T  </i>
  <i type="logical" name="LBERRY"> F  </i>
  <i type="int" name="ICORELEVEL">     0</i>
  <i type="logical" name="LDAU"> F  </i>
  <i type="int" name="I_CONSTRAINED_M">     0</i>
  <separator name="electronic exchange-correlation" >
   <i type="string" name="GGA">--</i>
   <i type="int" name="VOSKOWN">     0</i>
   <i type="logical" name="LHFCALC"> F  </i>
   <i type="string" name="PRECFOCK"></i>
   <i type="logical" name="LSYMGRAD"> F  </i>
   <i type="logical" name="LHFONE"> F  </i>
   <i type="logical" name="LRHFCALC"> F  </i>
   <i type="logical" name="LTHOMAS"> F  </i>
   <i type="logical" name="LMODELHF"> F  </i>
   <i name="ENCUT4O">     -1.00000000</i>
   <i type="int" name="EXXOEP">     0</i>
   <i type="int" name="FOURORBIT">     0</i>
   <i name="AEXX">      0.00000000</i>
   <i name="HFALPHA">      0.00000000</i>
   <i name="MCALPHA">      0.00000000</i>
   <i name="ALDAX">      1.00000000</i>
   <i name="AGGAX">      1.00000000</i>
   <i name="ALDAC">      1.00000000</i>
   <i name="AGGAC">      1.00000000</i>
   <i type="int" name="NKREDX">     1</i>
   <i type="int" name="NKREDY">     1</i>
   <i type="int" name="NKREDZ">     1</i>
   <i type="logical" name="SHIFTRED"> F  </i>
   <i type="logical" name="ODDONLY"> F  </i>
   <i type="logical" name="EVENONLY"> F  </i>
   <i type="int" name="LMAXFOCK">     0</i>
   <i type="int" name="NMAXFOCKAE">     0</i>
   <i type="logical" name="LFOCKAEDFT"> F  </i>
   <i name="HFSCREEN">      0.00000000</i>
   <i name="HFSCREENC">      0.00000000</i>
   <i type="int" name="NBANDSGWLOW">     0</i>
  </separator>
  <separator name="vdW DFT" >
   <i type="logical" name="LUSE_VDW"> F  </i>
   <i name="Zab_VDW">     -0.84910000</i>
   <i name="PARAM1">      0.12340000</i>
   <i name="PARAM2">      1.00000000</i>
   <i name="PARAM3">      0.00000000</i>
  </separator>
  <separator name="model GW" >
   <i type="int" name="MODEL_GW">     0</i>
   <i name="MODEL_EPS0">     58.26239943</i>
   <i name="MODEL_ALPHA">      1.00000000</i>
  </separator>
  <separator name="linear response parameters" >
   <i type="logical" name="LEPSILON"> F  </i>
   <i type="logical" name="LRPA"> F  </i>
   <i type="logical" name="LNABLA"> F  </i>
   <i type="logical" name="LVEL"> F  </i>
   <i type="int" name="KINTER">     0</i>
   <i name="CSHIFT">      0.10000000</i>
   <i name="OMEGAMAX">     -1.00000000</i>
   <i name="DEG_THRESHOLD">      0.00200000</i>
  </separator>
  <separator name="orbital magnetization" >
   <i type="logical" name="NUCIND"> F  </i>
   <v name="MAGPOS">      0.00000000      0.00000000      0.00000000</v>
   <i type="logical" name="LNICSALL"> T  </i>
   <i type="logical" name="ORBITALMAG"> F  </i>
   <i type="logical" name="LMAGBLOCH"> F  </i>
   <i type="logical" name="LCHIMAG"> F  </i>
   <i type="logical" name="LGAUGE"> T  </i>
   <i type="int" name="MAGATOM">     0</i>
   <v name="MAGDIPOL">      0.00000000      0.00000000      0.00000000</v>
   <v name="AVECCONST">      0.00000000      0.00000000      0.00000000</v>
  </separator>
  <separator name="response functions" >
   <i type="logical" name="LADDER"> F  </i>
   <i type="logical" name="LFXC"> F  </i>
   <i type="logical" name="LHARTREE"> T  </i>
   <i type="int" name="IBSE">     0</i>
   <v type="int" name="KPOINT">    -1     0     0     0</v>
   <i type="logical" name="LTCTE"> F  </i>
   <i type="logical" name="LTETE"> F  </i>
   <i type="logical" name="LTRIPLET"> F  </i>
   <i type="logical" name="LFXCEPS"> F  </i>
   <i type="logical" name="LFXHEG"> F  </i>
   <i type="int" name="NATURALO">     0</i>
   <i type="logical" name="L2ORDER"> F  </i>
   <i type="logical" name="LUSEW"> F  </i>
   <i name="ENCUTGW">     -2.00000000</i>
   <i name="ENCUTGWSOFT">     -2.00000000</i>
   <i name="ENCUTLF">     -1.00000000</i>
   <i type="int" name="LMAXMP2">    -1</i>
   <i name="SCISSOR">      0.00000000</i>
   <i type="int" name="NOMEGA">     0</i>
   <i type="int" name="NOMEGAR">     0</i>
   <i type="int" name="NBANDSGW">    -1</i>
   <i type="int" name="NBANDSO">    -1</i>
   <i type="int" name="NBANDSV">    -1</i>
   <i type="int" name="NELM">     1</i>
   <i type="int" name="NELMHF">     1</i>
   <i type="int" name="DIM">     3</i>
   <i type="int" name="ANTIRES">     0</i>
   <i name="OMEGAMAX">    -30.00000000</i>
   <i name="OMEGAMIN">    -30.00000000</i>
   <i name="OMEGATL">   -200.00000000</i>
   <i type="int" name="OMEGAGRID">     0</i>
   <i name="CSHIFT">     -0.10000000</i>
   <i type="logical" name="SELFENERGY"> F  </i>
   <i type="logical" name="LSPECTRAL"> F  </i>
   <i type="logical" name="LSPECTRALGW"> F  </i>
   <i type="logical" name="LSINGLES"> F  </i>
   <i type="logical" name="LFERMIGW"> F  </i>
   <i type="logical" name="ODDONLYGW"> F  </i>
   <i type="logical" name="EVENONLYGW"> F  </i>
   <i type="int" name="NKREDLFX">     1</i>
   <i type="int" name="NKREDLFY">     1</i>
   <i type="int" name="NKREDLFZ">     1</i>
   <i type="int" name="MAXMEM">  1800</i>
   <i type="int" name="TELESCOPE">     0</i>
   <i type="int" name="TAUPAR">     1</i>
   <i type="int" name="OMEGAPAR">    -1</i>
   <i name="LAMBDA">      1.00000000</i>
  </separator>
  <separator name="External order field" >
   <i name="OFIELD_KAPPA">      0.00000000</i>
   <v name="OFIELD_K">      0.00000000      0.00000000      0.00000000</v>
   <i name="OFIELD_Q6_NEAR">      0.00000000</i>
   <i name="OFIELD_Q6_FAR">      0.00000000</i>
   <i name="OFIELD_A">      0.00000000</i>
  </separator>
 </parameters>
 <atominfo>
  <atoms>      27 </atoms>
  <types>       4 </types>
  <array name="atoms" >
   <dimension dim="1">ion</dimension>
   <field type="string">element</field>
   <field type="int">atomtype</field>
   <set>
    <rc><c>V </c><c>   1</c></rc>
    <rc><c>V </c><c>   1</c></rc>
    <rc><c>V </c><c>   1</c></rc>
    <rc><c>Mo</c><c>   2</c></rc>
    <rc><c>Mo</c><c>   2</c></rc>
    <rc><c>Mo</c><c>   2</c></rc>
    <rc><c>W </c><c>   3</c></rc>
    <rc><c>W </c><c>   3</c></rc>
    <rc><c>W </c><c>   3</c></rc>
    <rc><c>S </c><c>   4</c></rc>
    <rc><c>S </c><c>   4</c></rc>
    <rc><c>S </c><c>   4</c></rc>
    <rc><c>S </c><c>   4</c></rc>
    <rc><c>S </c><c>   4</c></rc>
    <rc><c>S </c><c>   4</c></rc>
    <rc><c>S </c><c>   4</c></rc>
    <rc><c>S </c><c>   4</c></rc>
    <rc><c>S </c><c>   4</c></rc>
    <rc><c>S </c><c>   4</c></rc>
    <rc><c>S </c><c>   4</c></rc>
    <rc><c>S </c><c>   4</c></rc>
    <rc><c>S </c><c>   4</c></rc>
    <rc><c>S </c><c>   4</c></rc>
    <rc><c>S </c><c>   4</c></rc>
    <rc><c>S </c><c>   4</c></rc>
    <rc><c>S </c><c>   4</c></rc>
    <rc><c>S </c><c>   4</c></rc>
   </set>
  </array>
  <array name="atomtypes" >
   <dimension dim="1">type</dimension>
   <field type="int">atomspertype</field>
   <field type="string">element</field>
   <field>mass</field>
   <field>valence</field>
   <field type="string">pseudopotential</field>
   <set>
    <rc><c>   3</c><c>V </c><c>     50.94100000</c><c>      5.00000000</c><c> PAW_PBE V 08Apr2002                    </c></rc>
    <rc><c>   3</c><c>Mo</c><c>     95.94000000</c><c>      6.00000000</c><c> PAW_PBE Mo 08Apr2002                   </c></rc>
    <rc><c>   3</c><c>W </c><c>    183.85000000</c><c>      6.00000000</c><c> PAW_PBE W 08Apr2002                    </c></rc>
    <rc><c>  18</c><c>S </c><c>     32.06600000</c><c>      6.00000000</c><c>  PAW_PBE S 17Jan2003                   </c></rc>
   </set>
  </array>
 </atominfo>
 <structure name="initialpos" >
  <crystal>
   <varray name="basis" >
    <v>       8.66999996       5.03999989       0.00000000 </v>
    <v>      -8.66999982       5.04000013       0.00000000 </v>
    <v>       0.00000000       0.00000000      30.00000000 </v>
   </varray>
   <i name="volume">   2621.80797419 </i>
   <varray name="rec_basis" >
    <v>       0.05767013       0.09920635       0.00000000 </v>
    <v>      -0.05767013       0.09920635       0.00000000 </v>
    <v>       0.00000000       0.00000000       0.03333333 </v>
   </varray>
  </crystal>
  <varray name="positions" >
   <v>       0.00000000       0.66666669       0.00000000 </v>
   <v>       0.00000000       0.00000000       0.00000000 </v>
   <v>       0.66666669       0.00000000       0.00000000 </v>
   <v>       0.66666669       0.33333334       0.00000000 </v>
   <v>       0.33333334       0.66666669       0.00000000 </v>
   <v>       0.33333334       0.00000000       0.00000000 </v>
   <v>       1.00000000       0.33333334       0.00000000 </v>
   <v>       0.33333334       0.33333334       0.00000000 </v>
   <v>       0.66666669       0.66666669       0.00000000 </v>
   <v>       0.11068511       0.22244981       0.95539999 </v>
   <v>       0.22244981       0.11068511       0.04460000 </v>
   <v>       0.11068511       0.55578315       0.95539999 </v>
   <v>       0.22244981       0.44401845       0.04460000 </v>
   <v>       0.11068511       0.88911647       0.95539999 </v>
   <v>       0.22244981       0.77735180       0.04460000 </v>
   <v>       0.44401845       0.22244981       0.95539999 </v>
   <v>       0.55578315       0.11068511       0.04460000 </v>
   <v>       0.44401845       0.55578315       0.95539999 </v>
   <v>       0.55578315       0.44401845       0.04460000 </v>
   <v>       0.44401845       0.88911647       0.95539999 </v>
   <v>       0.55578315       0.77735180       0.04460000 </v>
   <v>       0.77735180       0.22244981       0.95539999 </v>
   <v>       0.88911647       0.11068511       0.04460000 </v>
   <v>       0.77735180       0.55578315       0.95539999 </v>
   <v>       0.88911647       0.44401845       0.04460000 </v>
   <v>       0.77735180       0.88911647       0.95539999 </v>
   <v>       0.88911647       0.77735180       0.04460000 </v>
  </varray>
 </structure>
 <calculation>
  <scstep>
   <time name="dav">   21.68   21.73</time>
   <time name="total">   21.72   21.78</time>
   <energy>
    <i name="alphaZ">     81.65567618 </i>
    <i name="ewald">  41890.25208822 </i>
    <i name="hartreedc"> -47722.88713395 </i>
    <i name="XCdc">   -242.92854904 </i>
    <i name="pawpsdc">   3467.42045192 </i>
    <i name="pawaedc">  -2871.19716117 </i>
    <i name="eentropy">     -0.53159809 </i>
    <i name="bandstr">   -237.56087929 </i>
    <i name="atom">   6761.44252427 </i>
    <i name="e_fr_energy">   1125.66541906 </i>
    <i name="e_wo_entrp">   1126.19701715 </i>
    <i name="e_0_energy">   1125.93121810 </i>
   </energy>
  </scstep>
  <scstep>
   <time name="dav">   28.41   28.48</time>
   <time name="total">   28.41   28.49</time>
   <energy>
    <i name="e_fr_energy">     -3.25009013 </i>
    <i name="e_wo_entrp">     -3.05229543 </i>
    <i name="e_0_energy">     -3.15119278 </i>
   </energy>
  </scstep>
  <scstep>
   <time name="dav">   27.50   27.57</time>
   <time name="total">   27.50   27.58</time>
   <energy>
    <i name="e_fr_energy">   -199.90676176 </i>
    <i name="e_wo_entrp">   -199.65544950 </i>
    <i name="e_0_energy">   -199.78110563 </i>
   </energy>
  </scstep>
  <scstep>
   <time name="dav">   30.15   30.23</time>
   <time name="total">   30.16   30.24</time>
   <energy>
    <i name="e_fr_energy">   -208.99383317 </i>
    <i name="e_wo_entrp">   -208.70879500 </i>
    <i name="e_0_energy">   -208.85131409 </i>
   </energy>
  </scstep>
  <scstep>
   <time name="dav">   28.51   28.58</time>
   <time name="total">   28.98   29.06</time>
   <energy>
    <i name="e_fr_energy">   -209.31219989 </i>
    <i name="e_wo_entrp">   -209.03023372 </i>
    <i name="e_0_energy">   -209.17121680 </i>
   </energy>
  </scstep>
  <scstep>
   <time name="dav">   31.01   31.08</time>
   <time name="total">   31.52   31.60</time>
   <energy>
    <i name="e_fr_energy">   -237.17222442 </i>
    <i name="e_wo_entrp">   -236.89714037 </i>
    <i name="e_0_energy">   -237.03468240 </i>
   </energy>
  </scstep>
  <scstep>
   <time name="dav">   32.42   32.50</time>
   <time name="total">   32.93   33.02</time>
   <energy>
    <i name="e_fr_energy">   -196.49468774 </i>
    <i name="e_wo_entrp">   -196.16776259 </i>
    <i name="e_0_energy">   -196.33122517 </i>
   </energy>
  </scstep>
  <scstep>
   <time name="dav">   29.31   29.38</time>
   <time name="total">   29.83   29.91</time>
   <energy>
    <i name="e_fr_energy">   -189.44249798 </i>
    <i name="e_wo_entrp">   -189.15035154 </i>
    <i name="e_0_energy">   -189.29642476 </i>
   </energy>
  </scstep>
  <scstep>
   <time name="dav">   30.54   30.61</time>
   <time name="total">   31.07   31.15</time>
   <energy>
    <i name="e_fr_energy">   -188.23642096 </i>
    <i name="e_wo_entrp">   -187.91631675 </i>
    <i name="e_0_energy">   -188.07636886 </i>
   </energy>
  </scstep>
  <scstep>
   <time name="dav">   32.46   32.53</time>
   <time name="total">   32.99   33.08</time>
   <energy>
    <i name="e_fr_energy">   -187.08117382 </i>
    <i name="e_wo_entrp">   -186.73438471 </i>
    <i name="e_0_energy">   -186.90777927 </i>
   </energy>
  </scstep>
  <scstep>
   <time name="dav">   32.93   33.01</time>
   <time name="total">   33.47   33.56</time>
   <energy>
    <i name="e_fr_energy">   -187.03347089 </i>
    <i name="e_wo_entrp">   -186.68567217 </i>
    <i name="e_0_energy">   -186.85957153 </i>
   </energy>
  </scstep>
  <scstep>
   <time name="dav">   31.09   31.16</time>
   <time name="total">   31.63   31.71</time>
   <energy>
    <i name="e_fr_energy">   -187.17360998 </i>
    <i name="e_wo_entrp">   -186.83510127 </i>
    <i name="e_0_energy">   -187.00435562 </i>
   </energy>
  </scstep>
  <scstep>
   <time name="dav">   32.09   32.17</time>
   <time name="total">   32.64   32.73</time>
   <energy>
    <i name="e_fr_energy">   -186.93005150 </i>
    <i name="e_wo_entrp">   -186.59557148 </i>
    <i name="e_0_energy">   -186.76281149 </i>
   </energy>
  </scstep>
  <scstep>
   <time name="dav">   32.78   32.86</time>
   <time name="total">   33.32   33.41</time>
   <energy>
    <i name="e_fr_energy">   -186.88065729 </i>
    <i name="e_wo_entrp">   -186.53694437 </i>
    <i name="e_0_energy">   -186.70880083 </i>
   </energy>
  </scstep>
  <scstep>
   <time name="dav">   30.15   30.23</time>
   <time name="total">   30.69   30.78</time>
   <energy>
    <i name="e_fr_energy">   -186.87945789 </i>
    <i name="e_wo_entrp">   -186.53423881 </i>
    <i name="e_0_energy">   -186.70684835 </i>
   </energy>
  </scstep>
  <scstep>
   <time name="dav">   32.48   32.56</time>
   <time name="total">   33.02   33.11</time>
   <energy>
    <i name="e_fr_energy">   -186.87504482 </i>
    <i name="e_wo_entrp">   -186.52974874 </i>
    <i name="e_0_energy">   -186.70239678 </i>
   </energy>
  </scstep>
  <scstep>
   <time name="dav">   30.94   31.02</time>
   <time name="total">   31.48   31.57</time>
   <energy>
    <i name="e_fr_energy">   -186.87146550 </i>
    <i name="e_wo_entrp">   -186.52851074 </i>
    <i name="e_0_energy">   -186.69998812 </i>
   </energy>
  </scstep>
  <scstep>
   <time name="dav">   29.44   29.51</time>
   <time name="total">   29.98   30.06</time>
   <energy>
    <i name="e_fr_energy">   -186.87129771 </i>
    <i name="e_wo_entrp">   -186.52798356 </i>
    <i name="e_0_energy">   -186.69964064 </i>
   </energy>
  </scstep>
  <scstep>
   <time name="dav">   27.81   27.88</time>
   <time name="total">   28.36   28.43</time>
   <energy>
    <i name="e_fr_energy">   -186.87093466 </i>
    <i name="e_wo_entrp">   -186.52746161 </i>
    <i name="e_0_energy">   -186.69919813 </i>
   </energy>
  </scstep>
  <scstep>
   <time name="dav">   23.95   24.01</time>
   <time name="total">   24.49   24.56</time>
   <energy>
    <i name="e_fr_energy">   -186.87165720 </i>
    <i name="e_wo_entrp">   -186.52843944 </i>
    <i name="e_0_energy">   -186.70004832 </i>
   </energy>
  </scstep>
  <scstep>
   <time name="dav">   21.71   21.76</time>
   <time name="total">   22.25   22.31</time>
   <energy>
    <i name="e_fr_energy">   -186.87220788 </i>
    <i name="e_wo_entrp">   -186.52898639 </i>
    <i name="e_0_energy">   -186.70059713 </i>
   </energy>
  </scstep>
  <scstep>
   <time name="dav">   20.61   20.66</time>
   <time name="total">   21.15   21.21</time>
   <energy>
    <i name="e_fr_energy">   -186.87340886 </i>
    <i name="e_wo_entrp">   -186.53015737 </i>
    <i name="e_0_energy">   -186.70178312 </i>
   </energy>
  </scstep>
  <scstep>
   <time name="dav">   20.64   20.69</time>
   <time name="total">   21.19   21.24</time>
   <energy>
    <i name="e_fr_energy">   -186.87463627 </i>
    <i name="e_wo_entrp">   -186.53145476 </i>
    <i name="e_0_energy">   -186.70304551 </i>
   </energy>
  </scstep>
  <scstep>
   <time name="dav">   18.75   18.79</time>
   <time name="total">   19.29   19.35</time>
   <energy>
    <i name="e_fr_energy">   -186.87522678 </i>
    <i name="e_wo_entrp">   -186.53202802 </i>
    <i name="e_0_energy">   -186.70362740 </i>
   </energy>
  </scstep>
  <scstep>
   <time name="dav">   16.61   16.65</time>
   <time name="total">   17.15   17.20</time>
   <energy>
    <i name="e_fr_energy">   -186.87560621 </i>
    <i name="e_wo_entrp">   -186.53236567 </i>
    <i name="e_0_energy">   -186.70398594 </i>
   </energy>
  </scstep>
  <scstep>
   <time name="dav">   19.10   19.15</time>
   <time name="total">   19.65   19.70</time>
   <energy>
    <i name="e_fr_energy">   -186.87583033 </i>
    <i name="e_wo_entrp">   -186.53260358 </i>
    <i name="e_0_energy">   -186.70421696 </i>
   </energy>
  </scstep>
  <scstep>
   <time name="dav">   19.86   19.91</time>
   <time name="total">   19.89   19.95</time>
   <energy>
    <i name="alphaZ">     81.65567618 </i>
    <i name="ewald">  41890.25208822 </i>
    <i name="hartreedc"> -47833.01763714 </i>
    <i name="XCdc">   -231.60091752 </i>
    <i name="pawpsdc">   4192.11958955 </i>
    <i name="pawaedc">  -3610.13737480 </i>
    <i name="eentropy">     -0.34322194 </i>
    <i name="bandstr">  -1437.24665502 </i>
    <i name="atom">   6761.44252427 </i>
    <i name="e_fr_energy">   -186.87592819 </i>
    <i name="e_wo_entrp">   -186.53270625 </i>
    <i name="e_0_energy">   -186.70431722 </i>
   </energy>
  </scstep>
  <structure>
   <crystal>
    <varray name="basis" >
     <v>       8.66999996       5.03999989       0.00000000 </v>
     <v>      -8.66999982       5.04000013       0.00000000 </v>
     <v>       0.00000000       0.00000000      30.00000000 </v>
    </varray>
    <i name="volume">   2621.80797419 </i>
    <varray name="rec_basis" >
     <v>       0.05767013       0.09920635       0.00000000 </v>
     <v>      -0.05767013       0.09920635       0.00000000 </v>
     <v>       0.00000000       0.00000000       0.03333333 </v>
    </varray>
   </crystal>
   <varray name="positions" >
    <v>       0.00000000       0.66666669       0.00000000 </v>
    <v>       0.00000000       0.00000000       0.00000000 </v>
    <v>       0.66666669       0.00000000       0.00000000 </v>
    <v>       0.66666669       0.33333334       0.00000000 </v>
    <v>       0.33333334       0.66666669       0.00000000 </v>
    <v>       0.33333334       0.00000000       0.00000000 </v>
    <v>       1.00000000       0.33333334       0.00000000 </v>
    <v>       0.33333334       0.33333334       0.00000000 </v>
    <v>       0.66666669       0.66666669       0.00000000 </v>
    <v>       0.11068511       0.22244981       0.95539999 </v>
    <v>       0.22244981       0.11068511       0.04460000 </v>
    <v>       0.11068511       0.55578315       0.95539999 </v>
    <v>       0.22244981       0.44401845       0.04460000 </v>
    <v>       0.11068511       0.88911647       0.95539999 </v>
    <v>       0.22244981       0.77735180       0.04460000 </v>
    <v>       0.44401845       0.22244981       0.95539999 </v>
    <v>       0.55578315       0.11068511       0.04460000 </v>
    <v>       0.44401845       0.55578315       0.95539999 </v>
    <v>       0.55578315       0.44401845       0.04460000 </v>
    <v>       0.44401845       0.88911647       0.95539999 </v>
    <v>       0.55578315       0.77735180       0.04460000 </v>
    <v>       0.77735180       0.22244981       0.95539999 </v>
    <v>       0.88911647       0.11068511       0.04460000 </v>
    <v>       0.77735180       0.55578315       0.95539999 </v>
    <v>       0.88911647       0.44401845       0.04460000 </v>
    <v>       0.77735180       0.88911647       0.95539999 </v>
    <v>       0.88911647       0.77735180       0.04460000 </v>
   </varray>
  </structure>
  <varray name="forces" >
   <v>       0.16111598       0.17800299      -0.11659823 </v>
   <v>       0.20585664       0.04331994      -0.01466588 </v>
   <v>      -0.37225339      -0.19548275       0.10155691 </v>
   <v>      -0.01858716      -0.28585944       0.09305394 </v>
   <v>      -0.25900486       0.14005430      -0.07051549 </v>
   <v>       0.27040964       0.08482248      -0.01998119 </v>
   <v>      -0.30025385       0.03689046       0.05605529 </v>
   <v>       0.31511650       0.14008466       0.02067680 </v>
   <v>       0.00173161      -0.16058954      -0.03202523 </v>
   <v>       0.46988639      -0.55008214      -2.15221592 </v>
   <v>      -0.62520348      -0.53588413       2.13743668 </v>
   <v>      -0.68674819      -0.13683201      -2.16980914 </v>
   <v>      -0.03576330      -0.13727573       2.84783405 </v>
   <v>      -0.31679656      -0.69269734      -1.41940347 </v>
   <v>      -0.53804615      -0.68934606       2.15107752 </v>
   <v>      -0.06196995      -0.01327001      -2.90081854 </v>
   <v>       0.77497881       0.01555990       2.16130163 </v>
   <v>       0.24823521      -0.01826168      -2.91820816 </v>
   <v>      -0.25824767      -0.01554059       2.95184236 </v>
   <v>       0.52481989       0.68173537      -2.17931607 </v>
   <v>      -0.37273470       0.73473793       2.16367679 </v>
   <v>       0.63056935      -0.54535725      -2.13594873 </v>
   <v>       0.22735808      -0.53108066       1.40776196 </v>
   <v>       0.36807094       0.72856677      -2.13816056 </v>
   <v>      -0.35861742       0.68303051       2.15587980 </v>
   <v>      -0.23110892       0.51726939      -1.38971636 </v>
   <v>       0.23718655       0.52348463       1.40922920 </v>
  </varray>
  <varray name="stress" >
   <v>       7.28570444       0.08790861      -1.54573305 </v>
   <v>       0.08790853       4.46658480       0.06268822 </v>
   <v>      -1.54573297       0.06268823      30.30587408 </v>
  </varray>
  <energy>
   <i name="e_fr_energy">   -186.87592819 </i>
   <i name="e_wo_entrp">   -186.70431722 </i>
   <i name="e_0_energy">     -0.34322194 </i>
  </energy>
  <time name="totalsc">  786.54  788.65</time>
 </calculation>
 <calculation>
  <scstep>
   <time name="dav">   21.64   21.70</time>
   <time name="total">   22.20   22.25</time>
   <energy>
    <i name="alphaZ">     78.92180309 </i>
    <i name="ewald">  39380.08116198 </i>
    <i name="hartreedc"> -45337.59452233 </i>
    <i name="XCdc">   -239.05664575 </i>
    <i name="pawpsdc">   4192.09106524 </i>
    <i name="pawaedc">  -3610.10921489 </i>
    <i name="eentropy">     -0.28173416 </i>
    <i name="bandstr">  -1412.99362430 </i>
    <i name="atom">   6761.44252427 </i>
    <i name="e_fr_energy">   -187.49918686 </i>
    <i name="e_wo_entrp">   -187.21745269 </i>
    <i name="e_0_energy">   -187.35831977 </i>
   </energy>
  </scstep>
  <scstep>
   <time name="dav">   30.25   30.32</time>
   <time name="total">   30.79   30.87</time>
   <energy>
    <i name="e_fr_energy">   -189.35992489 </i>
    <i name="e_wo_entrp">   -189.03539569 </i>
    <i name="e_0_energy">   -189.19766029 </i>
   </energy>
  </scstep>
  <scstep>
   <time name="dav">   30.40   30.47</time>
   <time name="total">   30.96   31.04</time>
   <energy>
    <i name="e_fr_energy">   -189.37895507 </i>
    <i name="e_wo_entrp">   -189.11331018 </i>
    <i name="e_0_energy">   -189.24613263 </i>
   </energy>
  </scstep>
  <scstep>
   <time name="dav">   30.53   30.60</time>
   <time name="total">   31.07   31.16</time>
   <energy>
    <i name="e_fr_energy">   -188.75556099 </i>
    <i name="e_wo_entrp">   -188.47267099 </i>
    <i name="e_0_energy">   -188.61411599 </i>
   </energy>
  </scstep>
  <scstep>
   <time name="dav">   28.61   28.68</time>
   <time name="total">   29.16   29.24</time>
   <energy>
    <i name="e_fr_energy">   -188.79792062 </i>
    <i name="e_wo_entrp">   -188.51756095 </i>
    <i name="e_0_energy">   -188.65774079 </i>
   </energy>
  </scstep>
  <scstep>
   <time name="dav">   31.30   31.37</time>
   <time name="total">   31.84   31.93</time>
   <energy>
    <i name="e_fr_energy">   -188.76281564 </i>
    <i name="e_wo_entrp">   -188.47431478 </i>
    <i name="e_0_energy">   -188.61856521 </i>
   </energy>
  </scstep>
  <scstep>
   <time name="dav">   31.14   31.21</time>
   <time name="total">   31.69   31.78</time>
   <energy>
    <i name="e_fr_energy">   -188.69002200 </i>
    <i name="e_wo_entrp">   -188.40878769 </i>
    <i name="e_0_energy">   -188.54940485 </i>
   </energy>
  </scstep>
  <scstep>
   <time name="dav">   29.01   29.08</time>
   <time name="total">   29.56   29.64</time>
   <energy>
    <i name="e_fr_energy">   -188.67493177 </i>
    <i name="e_wo_entrp">   -188.39187116 </i>
    <i name="e_0_energy">   -188.53340147 </i>
   </energy>
  </scstep>
  <scstep>
   <time name="dav">   30.07   30.14</time>
   <time name="total">   30.62   30.70</time>
   <energy>
    <i name="e_fr_energy">   -188.66985745 </i>
    <i name="e_wo_entrp">   -188.38914074 </i>
    <i name="e_0_energy">   -188.52949910 </i>
   </energy>
  </scstep>
  <scstep>
   <time name="dav">   32.47   32.55</time>
   <time name="total">   33.02   33.10</time>
   <energy>
    <i name="e_fr_energy">   -188.66831299 </i>
    <i name="e_wo_entrp">   -188.38779945 </i>
    <i name="e_0_energy">   -188.52805622 </i>
   </energy>
  </scstep>
  <scstep>
   <time name="dav">   31.22   31.30</time>
   <time name="total">   31.77   31.86</time>
   <energy>
    <i name="e_fr_energy">   -188.66767627 </i>
    <i name="e_wo_entrp">   -188.38804025 </i>
    <i name="e_0_energy">   -188.52785826 </i>
   </energy>
  </scstep>
  <scstep>
   <time name="dav">   28.83   28.90</time>
   <time name="total">   28.86   28.94</time>
   <energy>
    <i name="alphaZ">     78.92180309 </i>
    <i name="ewald">  39380.08116198 </i>
    <i name="hartreedc"> -45348.53014560 </i>
    <i name="XCdc">   -237.96766706 </i>
    <i name="pawpsdc">   3952.78096988 </i>
    <i name="pawaedc">  -3367.32006834 </i>
    <i name="eentropy">     -0.27959759 </i>
    <i name="bandstr">  -1407.79664024 </i>
    <i name="atom">   6761.44252427 </i>
    <i name="e_fr_energy">   -188.66765960 </i>
    <i name="e_wo_entrp">   -188.38806202 </i>
    <i name="e_0_energy">   -188.52786081 </i>
   </energy>
  </scstep>
  <structure>
   <crystal>
    <varray name="basis" >
     <v>       8.85598752       5.10804928       0.00000000 </v>
     <v>      -8.85339649       5.10359256       0.00000000 </v>
     <v>       0.00000000       0.00000000      30.00000000 </v>
    </varray>
    <i name="volume">   2712.62812763 </i>
    <varray name="rec_basis" >
     <v>       0.05644260       0.09791312       0.00000000 </v>
     <v>      -0.05649189       0.09794178       0.00000000 </v>
     <v>       0.00000000       0.00000000       0.03333333 </v>
    </varray>
   </crystal>
   <varray name="positions" >
    <v>       0.00130017       0.66707035      -0.00018750 </v>
    <v>       0.00078005      -0.00036540      -0.00002358 </v>
    <v>       0.66469544       0.00010009       0.00016331 </v>
    <v>       0.66524686       0.33201694       0.00014964 </v>
    <v>       0.33328305       0.66805758      -0.00011340 </v>
    <v>       0.33449162      -0.00034636      -0.00003213 </v>
    <v>       0.99934120       0.33434525       0.00009014 </v>
    <v>       0.33488049       0.33312708       0.00003325 </v>
    <v>       0.66590293       0.66589329      -0.00005150 </v>
    <v>       0.10935973       0.21850983       0.95193904 </v>
    <v>       0.21814566       0.10985980       0.04803719 </v>
    <v>       0.10811959       0.55703892       0.95191075 </v>
    <v>       0.22169331       0.44346095       0.04917957 </v>
    <v>       0.10648850       0.88668261       0.95311746 </v>
    <v>       0.21765368       0.77554953       0.04805912 </v>
    <v>       0.44378253       0.22255871       0.95073522 </v>
    <v>       0.55801374       0.10860346       0.04807556 </v>
    <v>       0.44462168       0.55500512       0.95070725 </v>
    <v>       0.55499029       0.44466256       0.04934682 </v>
    <v>       0.44874136       0.89091910       0.95189546 </v>
    <v>       0.55826258       0.78190524       0.04807938 </v>
    <v>       0.77649607       0.21808540       0.95196520 </v>
    <v>       0.88720727       0.10751082       0.04686380 </v>
    <v>       0.78186273       0.55824602       0.95196164 </v>
    <v>       0.89138770       0.44828515       0.04806684 </v>
    <v>       0.77918445       0.89223509       0.95316520 </v>
    <v>       0.89228174       0.77919729       0.04686616 </v>
   </varray>
  </structure>
  <varray name="forces" >
   <v>       0.22036050       0.15725960      -0.03989205 </v>
   <v>       0.13760463       0.08032069      -0.01586433 </v>
   <v>      -0.33950489      -0.19090082       0.02945291 </v>
   <v>      -0.20978528      -0.35499612      -0.03487760 </v>
   <v>      -0.13559106       0.04898338       0.04291615 </v>
   <v>       0.22371923       0.23323963       0.00257244 </v>
   <v>      -0.22770117       0.16177542       0.08852813 </v>
   <v>       0.32096451       0.31961885       0.00195651 </v>
   <v>       0.00744002      -0.44983941      -0.09904573 </v>
   <v>      -0.06262046       0.06861975       0.16792536 </v>
   <v>      -0.06250561       0.04619155      -0.04168124 </v>
   <v>      -0.00711994      -0.09988186      -0.11342393 </v>
   <v>       0.07315671      -0.10300305      -0.11303631 </v>
   <v>       0.00826544      -0.04443919       0.03786674 </v>
   <v>      -0.04543455      -0.06545917       0.04759387 </v>
   <v>      -0.12676981      -0.00874964      -0.13817119 </v>
   <v>       0.08031053      -0.01070504       0.21511857 </v>
   <v>       0.10080470      -0.00494183      -0.03197322 </v>
   <v>      -0.10068480      -0.00104177       0.15306162 </v>
   <v>       0.03414123       0.08001075      -0.15296921 </v>
   <v>       0.10466735       0.07564280      -0.02936020 </v>
   <v>       0.09467755       0.04775559       0.06176383 </v>
   <v>      -0.06920427       0.06586553      -0.18764885 </v>
   <v>      -0.11543586       0.05348793       0.10853412 </v>
   <v>       0.09841608       0.05370730      -0.03349696 </v>
   <v>       0.05221541      -0.07895679       0.23028254 </v>
   <v>      -0.05438618      -0.07956410      -0.15613195 </v>
  </varray>
  <varray name="stress" >
   <v>     -20.00230432       0.00190869       0.04153411 </v>
   <v>       0.00190849     -19.59659706      -0.03188278 </v>
   <v>       0.04153421      -0.03188291      -1.80516460 </v>
  </varray>
  <energy>
   <i name="e_fr_energy">   -188.66765960 </i>
   <i name="e_wo_entrp">   -188.52786081 </i>
   <i name="e_0_energy">     -0.27959759 </i>
  </energy>
  <time name="totalsc">  403.12  404.18</time>
 </calculation>
 <calculation>
  <scstep>
   <time name="dav">   23.74   23.80</time>
   <time name="total">   24.29   24.34</time>
   <energy>
    <i name="alphaZ">     82.34562829 </i>
    <i name="ewald">  41302.72971251 </i>
    <i name="hartreedc"> -47301.69908803 </i>
    <i name="XCdc">   -233.85015273 </i>
    <i name="pawpsdc">   3950.51925121 </i>
    <i name="pawaedc">  -3365.03256305 </i>
    <i name="eentropy">     -0.23304466 </i>
    <i name="bandstr">  -1386.80672726 </i>
    <i name="atom">   6761.44252427 </i>
    <i name="e_fr_energy">   -190.58445943 </i>
    <i name="e_wo_entrp">   -190.35141477 </i>
    <i name="e_0_energy">   -190.46793710 </i>
   </energy>
  </scstep>
  <scstep>
   <time name="dav">   27.53   27.59</time>
   <time name="total">   28.05   28.13</time>
   <energy>
    <i name="e_fr_energy">   -190.56450217 </i>
    <i name="e_wo_entrp">   -190.33639261 </i>
    <i name="e_0_energy">   -190.45044739 </i>
   </energy>
  </scstep>
  <scstep>
   <time name="dav">   30.16   30.23</time>
   <time name="total">   30.69   30.78</time>
   <energy>
    <i name="e_fr_energy">   -190.05978483 </i>
    <i name="e_wo_entrp">   -189.81114233 </i>
    <i name="e_0_energy">   -189.93546358 </i>
   </energy>
  </scstep>
  <scstep>
   <time name="dav">   31.03   31.11</time>
   <time name="total">   31.57   31.66</time>
   <energy>
    <i name="e_fr_energy">   -189.85405330 </i>
    <i name="e_wo_entrp">   -189.62526665 </i>
    <i name="e_0_energy">   -189.73965998 </i>
   </energy>
  </scstep>
  <scstep>
   <time name="dav">   27.66   27.72</time>
   <time name="total">   28.20   28.27</time>
   <energy>
    <i name="e_fr_energy">   -189.78770058 </i>
    <i name="e_wo_entrp">   -189.54548449 </i>
    <i name="e_0_energy">   -189.66659254 </i>
   </energy>
  </scstep>
  <scstep>
   <time name="dav">   30.97   31.05</time>
   <time name="total">   31.51   31.60</time>
   <energy>
    <i name="e_fr_energy">   -189.75822466 </i>
    <i name="e_wo_entrp">   -189.52570543 </i>
    <i name="e_0_energy">   -189.64196504 </i>
   </energy>
  </scstep>
  <scstep>
   <time name="dav">   30.75   30.83</time>
   <time name="total">   31.30   31.38</time>
   <energy>
    <i name="e_fr_energy">   -189.75037069 </i>
    <i name="e_wo_entrp">   -189.51547537 </i>
    <i name="e_0_energy">   -189.63292303 </i>
   </energy>
  </scstep>
  <scstep>
   <time name="dav">   27.70   27.77</time>
   <time name="total">   28.24   28.31</time>
   <energy>
    <i name="e_fr_energy">   -189.75035983 </i>
    <i name="e_wo_entrp">   -189.51579357 </i>
    <i name="e_0_energy">   -189.63307670 </i>
   </energy>
  </scstep>
  <scstep>
   <time name="dav">   26.55   26.62</time>
   <time name="total">   27.09   27.17</time>
   <energy>
    <i name="e_fr_energy">   -189.75095391 </i>
    <i name="e_wo_entrp">   -189.51609759 </i>
    <i name="e_0_energy">   -189.63352575 </i>
   </energy>
  </scstep>
  <scstep>
   <time name="dav">   26.59   26.66</time>
   <time name="total">   27.13   27.21</time>
   <energy>
    <i name="e_fr_energy">   -189.75081529 </i>
    <i name="e_wo_entrp">   -189.51589802 </i>
    <i name="e_0_energy">   -189.63335665 </i>
   </energy>
  </scstep>
  <scstep>
   <time name="dav">   24.22   24.28</time>
   <time name="total">   24.79   24.86</time>
   <energy>
    <i name="e_fr_energy">   -189.75049389 </i>
    <i name="e_wo_entrp">   -189.51562875 </i>
    <i name="e_0_energy">   -189.63306132 </i>
   </energy>
  </scstep>
  <scstep>
   <time name="dav">   17.96   18.00</time>
   <time name="total">   18.00   18.05</time>
   <energy>
    <i name="alphaZ">     82.34562829 </i>
    <i name="ewald">  41302.72971251 </i>
    <i name="hartreedc"> -47274.97771523 </i>
    <i name="XCdc">   -235.24529901 </i>
    <i name="pawpsdc">   4038.48414932 </i>
    <i name="pawaedc">  -3454.18754258 </i>
    <i name="eentropy">     -0.23484701 </i>
    <i name="bandstr">  -1410.10712009 </i>
    <i name="atom">   6761.44252427 </i>
    <i name="e_fr_energy">   -189.75050952 </i>
    <i name="e_wo_entrp">   -189.51566252 </i>
    <i name="e_0_energy">   -189.63308602 </i>
   </energy>
  </scstep>
  <structure>
   <crystal>
    <varray name="basis" >
     <v>       8.66802687       5.00184642       0.00000000 </v>
     <v>      -8.66547015       4.99744651       0.00000000 </v>
     <v>       0.00000000       0.00000000      30.00000000 </v>
    </varray>
    <i name="volume">   2599.84054263 </i>
    <varray name="rec_basis" >
     <v>       0.05766638       0.09999233       0.00000000 </v>
     <v>      -0.05771715       0.10002183       0.00000000 </v>
     <v>       0.00000000       0.00000000       0.03333333 </v>
    </varray>
   </crystal>
   <varray name="positions" >
    <v>       0.00177121       0.66712034      -0.00021000 </v>
    <v>       0.00104457      -0.00036382      -0.00003253 </v>
    <v>       0.66405486       0.00010825       0.00017993 </v>
    <v>       0.66445829       0.33162912       0.00012997 </v>
    <v>       0.33323470       0.66826838      -0.00008919 </v>
    <v>       0.33509176      -0.00017366      -0.00003068 </v>
    <v>       0.99939176       0.33483106       0.00014008 </v>
    <v>       0.33571663       0.33334998       0.00003435 </v>
    <v>       0.66516469       0.66514062      -0.00010737 </v>
    <v>       0.10941361       0.21868342       0.95203376 </v>
    <v>       0.21816250       0.10999611       0.04801367 </v>
    <v>       0.10794730       0.55688018       0.95184677 </v>
    <v>       0.22159252       0.44322030       0.04911581 </v>
    <v>       0.10642276       0.88660106       0.95313882 </v>
    <v>       0.21750183       0.77548447       0.04808597 </v>
    <v>       0.44364695       0.22266540       0.95065728 </v>
    <v>       0.55807271       0.10850895       0.04819691 </v>
    <v>       0.44470978       0.55490057       0.95068922 </v>
    <v>       0.55489240       0.44475709       0.04943316 </v>
    <v>       0.44890654       0.89101907       0.95180917 </v>
    <v>       0.55848789       0.78193055       0.04806282 </v>
    <v>       0.77666563       0.21807404       0.95200003 </v>
    <v>       0.88725031       0.10768615       0.04675796 </v>
    <v>       0.78184110       0.55844503       0.95202286 </v>
    <v>       0.89157069       0.44828008       0.04804795 </v>
    <v>       0.77910350       0.89205431       0.95329510 </v>
    <v>       0.89209797       0.77911741       0.04677809 </v>
   </varray>
  </structure>
  <varray name="forces" >
   <v>       0.26578399       0.13999042      -0.01164437 </v>
   <v>       0.11441432       0.10793087      -0.01101067 </v>
   <v>      -0.34305516      -0.18195076       0.00295512 </v>
   <v>      -0.27443364      -0.37333042      -0.04897731 </v>
   <v>      -0.09646317      -0.00421385       0.05230820 </v>
   <v>       0.19439215       0.27559235       0.00997255 </v>
   <v>      -0.19974241       0.20295110       0.06847583 </v>
   <v>       0.31751517       0.37294136       0.00054436 </v>
   <v>       0.02130772      -0.54129723      -0.08350326 </v>
   <v>       0.00463920      -0.04559048      -0.31648072 </v>
   <v>      -0.04959997      -0.08200166       0.44790803 </v>
   <v>      -0.11644291      -0.02739235      -0.62977027 </v>
   <v>       0.04569780      -0.03920837       0.42463012 </v>
   <v>      -0.02103802      -0.09314564      -0.40724083 </v>
   <v>      -0.09319962      -0.12110250       0.53247045 </v>
   <v>      -0.03859306      -0.02037875      -0.70198048 </v>
   <v>       0.14647051      -0.01186914       0.72604628 </v>
   <v>       0.01548897      -0.01812376      -0.59754399 </v>
   <v>      -0.02092475       0.00572132       0.73916772 </v>
   <v>       0.07381683       0.14555042      -0.65024803 </v>
   <v>      -0.00568976       0.13498195       0.46765219 </v>
   <v>       0.08964365      -0.07604324      -0.42264653 </v>
   <v>       0.01074085      -0.06748616       0.25978608 </v>
   <v>       0.01225812       0.10914713      -0.38159457 </v>
   <v>      -0.04488260       0.10907637       0.45767342 </v>
   <v>      -0.02891949       0.05499128      -0.21058076 </v>
   <v>       0.02081529       0.04425975       0.28363143 </v>
  </varray>
  <varray name="stress" >
   <v>     -10.17240288      -0.02538256       0.01118162 </v>
   <v>      -0.02538239      -9.86332769      -0.05182506 </v>
   <v>       0.01118174      -0.05182527       6.50558451 </v>
  </varray>
  <energy>
   <i name="e_fr_energy">   -189.75050952 </i>
   <i name="e_wo_entrp">   -189.63308602 </i>
   <i name="e_0_energy">     -0.23484701 </i>
  </energy>
  <time name="totalsc">  372.42  373.41</time>
 </calculation>
 <calculation>
  <scstep>
   <time name="dav">   21.63   21.68</time>
   <time name="total">   22.16   22.21</time>
   <energy>
    <i name="alphaZ">     85.80604869 </i>
    <i name="ewald">  42825.07078307 </i>
    <i name="hartreedc"> -48841.68441272 </i>
    <i name="XCdc">   -232.97399504 </i>
    <i name="pawpsdc">   4038.63183248 </i>
    <i name="pawaedc">  -3454.33304782 </i>
    <i name="eentropy">     -0.19149619 </i>
    <i name="bandstr">  -1373.05565054 </i>
    <i name="atom">   6761.44252427 </i>
    <i name="e_fr_energy">   -191.28741380 </i>
    <i name="e_wo_entrp">   -191.09591761 </i>
    <i name="e_0_energy">   -191.19166571 </i>
   </energy>
  </scstep>
  <scstep>
   <time name="dav">   32.61   32.69</time>
   <time name="total">   33.13   33.22</time>
   <energy>
    <i name="e_fr_energy">   -191.17932212 </i>
    <i name="e_wo_entrp">   -190.98068053 </i>
    <i name="e_0_energy">   -191.08000132 </i>
   </energy>
  </scstep>
  <scstep>
   <time name="dav">   28.90   28.97</time>
   <time name="total">   29.42   29.50</time>
   <energy>
    <i name="e_fr_energy">   -191.22789625 </i>
    <i name="e_wo_entrp">   -191.01652989 </i>
    <i name="e_0_energy">   -191.12221307 </i>
   </energy>
  </scstep>
  <scstep>
   <time name="dav">   30.68   30.75</time>
   <time name="total">   31.20   31.28</time>
   <energy>
    <i name="e_fr_energy">   -190.90413634 </i>
    <i name="e_wo_entrp">   -190.69440973 </i>
    <i name="e_0_energy">   -190.79927304 </i>
   </energy>
  </scstep>
  <scstep>
   <time name="dav">   27.88   27.95</time>
   <time name="total">   28.41   28.49</time>
   <energy>
    <i name="e_fr_energy">   -190.89096511 </i>
    <i name="e_wo_entrp">   -190.70518608 </i>
    <i name="e_0_energy">   -190.79807560 </i>
   </energy>
  </scstep>
  <scstep>
   <time name="dav">   28.06   28.13</time>
   <time name="total">   28.59   28.66</time>
   <energy>
    <i name="e_fr_energy">   -190.70876431 </i>
    <i name="e_wo_entrp">   -190.51105450 </i>
    <i name="e_0_energy">   -190.60990941 </i>
   </energy>
  </scstep>
  <scstep>
   <time name="dav">   28.28   28.35</time>
   <time name="total">   28.81   28.89</time>
   <energy>
    <i name="e_fr_energy">   -190.70714697 </i>
    <i name="e_wo_entrp">   -190.51057574 </i>
    <i name="e_0_energy">   -190.60886135 </i>
   </energy>
  </scstep>
  <scstep>
   <time name="dav">   25.86   25.92</time>
   <time name="total">   26.38   26.46</time>
   <energy>
    <i name="e_fr_energy">   -190.70375396 </i>
    <i name="e_wo_entrp">   -190.50660173 </i>
    <i name="e_0_energy">   -190.60517784 </i>
   </energy>
  </scstep>
  <scstep>
   <time name="dav">   30.46   30.53</time>
   <time name="total">   30.98   31.07</time>
   <energy>
    <i name="e_fr_energy">   -190.70438720 </i>
    <i name="e_wo_entrp">   -190.50727487 </i>
    <i name="e_0_energy">   -190.60583103 </i>
   </energy>
  </scstep>
  <scstep>
   <time name="dav">   26.97   27.04</time>
   <time name="total">   27.50   27.57</time>
   <energy>
    <i name="e_fr_energy">   -190.70410108 </i>
    <i name="e_wo_entrp">   -190.50699636 </i>
    <i name="e_0_energy">   -190.60554872 </i>
   </energy>
  </scstep>
  <scstep>
   <time name="dav">   26.00   26.06</time>
   <time name="total">   26.53   26.60</time>
   <energy>
    <i name="e_fr_energy">   -190.70395786 </i>
    <i name="e_wo_entrp">   -190.50686317 </i>
    <i name="e_0_energy">   -190.60541051 </i>
   </energy>
  </scstep>
  <scstep>
   <time name="dav">   20.14   20.19</time>
   <time name="total">   20.18   20.24</time>
   <energy>
    <i name="alphaZ">     85.80604869 </i>
    <i name="ewald">  42825.07078307 </i>
    <i name="hartreedc"> -48813.20993508 </i>
    <i name="XCdc">   -234.30524015 </i>
    <i name="pawpsdc">   4062.81749355 </i>
    <i name="pawaedc">  -3478.68462080 </i>
    <i name="eentropy">     -0.19717659 </i>
    <i name="bandstr">  -1399.44384255 </i>
    <i name="atom">   6761.44252427 </i>
    <i name="e_fr_energy">   -190.70396560 </i>
    <i name="e_wo_entrp">   -190.50678901 </i>
    <i name="e_0_energy">   -190.60537730 </i>
   </energy>
  </scstep>
  <structure>
   <crystal>
    <varray name="basis" >
     <v>       8.48665062       4.90113984       0.00000000 </v>
     <v>      -8.48551276       4.89919466       0.00000000 </v>
     <v>       0.00000000       0.00000000      30.00000000 </v>
    </varray>
    <i name="volume">   2494.99314107 </i>
    <varray name="rec_basis" >
     <v>       0.05890831       0.10203049       0.00000000 </v>
     <v>      -0.05893170       0.10204418       0.00000000 </v>
     <v>       0.00000000       0.00000000       0.03333333 </v>
    </varray>
   </crystal>
   <varray name="positions" >
    <v>       0.00362701       0.66692816      -0.00021010 </v>
    <v>       0.00216738       0.00000034      -0.00005117 </v>
    <v>       0.66169751       0.00023598       0.00016356 </v>
    <v>       0.66099620       0.33033222       0.00001680 </v>
    <v>       0.33278416       0.66840134       0.00002687 </v>
    <v>       0.33757906       0.00099588      -0.00000380 </v>
    <v>       1.00008303       0.33688355       0.00026457 </v>
    <v>       0.33932101       0.33467406       0.00003428 </v>
    <v>       0.66164955       0.66143082      -0.00026674 </v>
    <v>       0.10895736       0.21800022       0.95096887 </v>
    <v>       0.21717011       0.10932426       0.04935454 </v>
    <v>       0.10737975       0.55746699       0.95010740 </v>
    <v>       0.22163171       0.44300866       0.05044935 </v>
    <v>       0.10560113       0.88601523       0.95191973 </v>
    <v>       0.21620140       0.77499351       0.04959758 </v>
    <v>       0.44347806       0.22252150       0.94872844 </v>
    <v>       0.55861881       0.10780807       0.05013062 </v>
    <v>       0.44449694       0.55482112       0.94897469 </v>
    <v>       0.55498412       0.44477058       0.05145776 </v>
    <v>       0.45030295       0.89176917       0.95004367 </v>
    <v>       0.55930058       0.78310175       0.04945078 </v>
    <v>       0.77619779       0.21697364       0.95071576 </v>
    <v>       0.88664969       0.10677805       0.04767433 </v>
    <v>       0.78288976       0.55903849       0.95081857 </v>
    <v>       0.89202289       0.44946820       0.04941034 </v>
    <v>       0.77956023       0.89295307       0.95248598 </v>
    <v>       0.89286627       0.77951958       0.04773723 </v>
   </varray>
  </structure>
  <varray name="forces" >
   <v>       0.30546202       0.18444888       0.04331552 </v>
   <v>       0.08637568       0.09858673      -0.00447349 </v>
   <v>      -0.30548866      -0.14382488      -0.04971193 </v>
   <v>      -0.36575176      -0.41078548      -0.02392566 </v>
   <v>      -0.08503717      -0.04928633       0.02904026 </v>
   <v>       0.14754344       0.28672403       0.01586581 </v>
   <v>      -0.16790538       0.21498094       0.01838500 </v>
   <v>       0.35179051       0.41158552      -0.00640721 </v>
   <v>       0.04730201      -0.56392636      -0.02397878 </v>
   <v>       0.00789609       0.03804233      -0.17107462 </v>
   <v>       0.02979679       0.01268773       0.29630798 </v>
   <v>      -0.05173410       0.03316731      -0.47015801 </v>
   <v>       0.04182503       0.01373181       0.26351957 </v>
   <v>       0.05382497       0.01494932      -0.32445605 </v>
   <v>      -0.05025032       0.00487915       0.36914384 </v>
   <v>       0.02288184      -0.05197976      -0.54746208 </v>
   <v>       0.02931184       0.00007374       0.55317385 </v>
   <v>      -0.04499614      -0.05146048      -0.45571377 </v>
   <v>       0.03474771       0.00173364       0.60184209 </v>
   <v>       0.02675182       0.04456684      -0.44159420 </v>
   <v>      -0.00515042       0.03417241       0.30186622 </v>
   <v>      -0.00830727      -0.02513670      -0.22469786 </v>
   <v>      -0.02983995      -0.02873920       0.18344639 </v>
   <v>       0.02485582       0.00047587      -0.24238777 </v>
   <v>      -0.08732396       0.00230490       0.26324299 </v>
   <v>      -0.01332880      -0.03763058      -0.09372256 </v>
   <v>       0.00474834      -0.03434139       0.14061448 </v>
  </varray>
  <varray name="stress" >
   <v>      -5.87118101       0.10226010      -0.04487802 </v>
   <v>       0.10226016      -5.84059741       0.04597601 </v>
   <v>      -0.04487799       0.04597594       4.50622391 </v>
  </varray>
  <energy>
   <i name="e_fr_energy">   -190.70396560 </i>
   <i name="e_wo_entrp">   -190.60537730 </i>
   <i name="e_0_energy">     -0.19717659 </i>
  </energy>
  <time name="totalsc">  375.48  376.49</time>
 </calculation>
 <calculation>
  <scstep>
   <time name="dav">   21.63   21.69</time>
   <time name="total">   22.15   22.21</time>
   <energy>
    <i name="alphaZ">     90.30403210 </i>
    <i name="ewald">  44721.76062645 </i>
    <i name="hartreedc"> -50766.89644644 </i>
    <i name="XCdc">   -231.74885475 </i>
    <i name="pawpsdc">   4062.79225473 </i>
    <i name="pawaedc">  -3478.65523298 </i>
    <i name="eentropy">     -0.17797055 </i>
    <i name="bandstr">  -1350.94578190 </i>
    <i name="atom">   6761.44252427 </i>
    <i name="e_fr_energy">   -192.12484907 </i>
    <i name="e_wo_entrp">   -191.94687852 </i>
    <i name="e_0_energy">   -192.03586379 </i>
   </energy>
  </scstep>
  <scstep>
   <time name="dav">   29.99   30.06</time>
   <time name="total">   30.50   30.58</time>
   <energy>
    <i name="e_fr_energy">   -191.96826053 </i>
    <i name="e_wo_entrp">   -191.76865954 </i>
    <i name="e_0_energy">   -191.86846003 </i>
   </energy>
  </scstep>
  <scstep>
   <time name="dav">   30.07   30.14</time>
   <time name="total">   30.58   30.66</time>
   <energy>
    <i name="e_fr_energy">   -192.42465679 </i>
    <i name="e_wo_entrp">   -192.23334478 </i>
    <i name="e_0_energy">   -192.32900078 </i>
   </energy>
  </scstep>
  <scstep>
   <time name="dav">   30.27   30.34</time>
   <time name="total">   30.78   30.86</time>
   <energy>
    <i name="e_fr_energy">   -191.54566306 </i>
    <i name="e_wo_entrp">   -191.36509284 </i>
    <i name="e_0_energy">   -191.45537795 </i>
   </energy>
  </scstep>
  <scstep>
   <time name="dav">   29.24   29.31</time>
   <time name="total">   29.75   29.83</time>
   <energy>
    <i name="e_fr_energy">   -191.51777318 </i>
    <i name="e_wo_entrp">   -191.32001277 </i>
    <i name="e_0_energy">   -191.41889297 </i>
   </energy>
  </scstep>
  <scstep>
   <time name="dav">   30.00   30.08</time>
   <time name="total">   30.52   30.60</time>
   <energy>
    <i name="e_fr_energy">   -191.37564066 </i>
    <i name="e_wo_entrp">   -191.19266778 </i>
    <i name="e_0_energy">   -191.28415422 </i>
   </energy>
  </scstep>
  <scstep>
   <time name="dav">   29.50   29.57</time>
   <time name="total">   30.02   30.10</time>
   <energy>
    <i name="e_fr_energy">   -191.35049971 </i>
    <i name="e_wo_entrp">   -191.16494555 </i>
    <i name="e_0_energy">   -191.25772263 </i>
   </energy>
  </scstep>
  <scstep>
   <time name="dav">   29.75   29.82</time>
   <time name="total">   30.26   30.34</time>
   <energy>
    <i name="e_fr_energy">   -191.34905330 </i>
    <i name="e_wo_entrp">   -191.16176338 </i>
    <i name="e_0_energy">   -191.25540834 </i>
   </energy>
  </scstep>
  <scstep>
   <time name="dav">   28.47   28.54</time>
   <time name="total">   28.98   29.06</time>
   <energy>
    <i name="e_fr_energy">   -191.34335122 </i>
    <i name="e_wo_entrp">   -191.15697373 </i>
    <i name="e_0_energy">   -191.25016248 </i>
   </energy>
  </scstep>
  <scstep>
   <time name="dav">   28.87   28.94</time>
   <time name="total">   29.38   29.46</time>
   <energy>
    <i name="e_fr_energy">   -191.34347410 </i>
    <i name="e_wo_entrp">   -191.15677310 </i>
    <i name="e_0_energy">   -191.25012360 </i>
   </energy>
  </scstep>
  <scstep>
   <time name="dav">   27.00   27.06</time>
   <time name="total">   27.51   27.59</time>
   <energy>
    <i name="e_fr_energy">   -191.34334620 </i>
    <i name="e_wo_entrp">   -191.15633482 </i>
    <i name="e_0_energy">   -191.24984051 </i>
   </energy>
  </scstep>
  <scstep>
   <time name="dav">   19.88   19.93</time>
   <time name="total">   19.91   19.97</time>
   <energy>
    <i name="alphaZ">     90.30403210 </i>
    <i name="ewald">  44721.76062645 </i>
    <i name="hartreedc"> -50731.69969873 </i>
    <i name="XCdc">   -233.33976991 </i>
    <i name="pawpsdc">   4084.92585388 </i>
    <i name="pawaedc">  -3500.86786322 </i>
    <i name="eentropy">     -0.18688848 </i>
    <i name="bandstr">  -1383.68212368 </i>
    <i name="atom">   6761.44252427 </i>
    <i name="e_fr_energy">   -191.34330732 </i>
    <i name="e_wo_entrp">   -191.15641884 </i>
    <i name="e_0_energy">   -191.24986308 </i>
   </energy>
  </scstep>
  <structure>
   <crystal>
    <varray name="basis" >
     <v>       8.27426854       4.78278236       0.00000000 </v>
     <v>      -8.26776544       4.77154573       0.00000000 </v>
     <v>       0.00000000       0.00000000      30.00000000 </v>
    </varray>
    <i name="volume">   2370.71920214 </i>
    <varray name="rec_basis" >
     <v>       0.06038099       0.10462351       0.00000000 </v>
     <v>      -0.06052318       0.10470580       0.00000000 </v>
     <v>       0.00000000       0.00000000       0.03333333 </v>
    </varray>
   </crystal>
   <varray name="positions" >
    <v>       0.00806400       0.66686208      -0.00003449 </v>
    <v>       0.00411587       0.00072223      -0.00006811 </v>
    <v>       0.65759930       0.00064967      -0.00003769 </v>
    <v>       0.65318299       0.32785913      -0.00010915 </v>
    <v>       0.33152441       0.66826105       0.00016795 </v>
    <v>       0.34234745       0.00363586       0.00006536 </v>
    <v>       1.00168296       0.34088294       0.00034687 </v>
    <v>       0.34708477       0.33742200       0.00001047 </v>
    <v>       0.65468190       0.65378033      -0.00038169 </v>
    <v>       0.10911959       0.21782243       0.94969631 </v>
    <v>       0.21694313       0.10877808       0.05114777 </v>
    <v>       0.10728168       0.55862365       0.94757179 </v>
    <v>       0.22216340       0.44302154       0.05216271 </v>
    <v>       0.10572298       0.88560648       0.95009456 </v>
    <v>       0.21539159       0.77516133       0.05169023 </v>
    <v>       0.44310234       0.22163169       0.94583126 </v>
    <v>       0.55903799       0.10734254       0.05300740 </v>
    <v>       0.44345603       0.55460657       0.94645779 </v>
    <v>       0.55536701       0.44448513       0.05459049 </v>
    <v>       0.45153970       0.89238858       0.94761726 </v>
    <v>       0.55985135       0.78410904       0.05128209 </v>
    <v>       0.77545305       0.21617259       0.94919507 </v>
    <v>       0.88578586       0.10599025       0.04892183 </v>
    <v>       0.78363608       0.55900930       0.94925205 </v>
    <v>       0.89156291       0.45068369       0.05109355 </v>
    <v>       0.77939569       0.89329244       0.95158969 </v>
    <v>       0.89312043       0.77941383       0.04883850 </v>
   </varray>
  </structure>
  <varray name="forces" >
   <v>       0.26645600       0.32542694       0.00810579 </v>
   <v>       0.06300746       0.05982248      -0.00472574 </v>
   <v>      -0.18423317      -0.08046327       0.01239618 </v>
   <v>      -0.23985630      -0.23389782       0.05964952 </v>
   <v>      -0.06608690      -0.09369731      -0.02926003 </v>
   <v>       0.00624839       0.09415239      -0.02494747 </v>
   <v>      -0.03813577       0.20106265       0.01683873 </v>
   <v>       0.18731952       0.16182824      -0.08746108 </v>
   <v>       0.03872199      -0.32926548       0.02143801 </v>
   <v>       0.00902789       0.18018917       0.07647312 </v>
   <v>       0.07746922       0.15927312       0.02456410 </v>
   <v>       0.01459840       0.07598408      -0.14997703 </v>
   <v>       0.10716173       0.03903300      -0.01423282 </v>
   <v>       0.11349590       0.09232501      -0.03052425 </v>
   <v>       0.02721632       0.14895903       0.11116642 </v>
   <v>       0.01245956      -0.09832792      -0.23550098 </v>
   <v>      -0.07860713       0.02680318       0.14636221 </v>
   <v>      -0.07213166      -0.10428480      -0.16965151 </v>
   <v>       0.07631883      -0.02359783       0.34046417 </v>
   <v>      -0.02628750      -0.05150323      -0.08611453 </v>
   <v>       0.02931327      -0.07616434      -0.00767703 </v>
   <v>      -0.15801590       0.05462850       0.07421724 </v>
   <v>      -0.08320852       0.03186276      -0.07058009 </v>
   <v>      -0.00409433      -0.13320182       0.09215049 </v>
   <v>      -0.09555861      -0.11848614      -0.08889857 </v>
   <v>       0.01446534      -0.17910196       0.13382500 </v>
   <v>       0.00293599      -0.12935863      -0.11809982 </v>
  </varray>
  <varray name="stress" >
   <v>      -0.22299204       0.22202396       0.17969818 </v>
   <v>       0.22202393       0.16309075       0.24850457 </v>
   <v>       0.17969828       0.24850435      -0.48474999 </v>
  </varray>
  <energy>
   <i name="e_fr_energy">   -191.34330732 </i>
   <i name="e_wo_entrp">   -191.24986308 </i>
   <i name="e_0_energy">     -0.18688848 </i>
  </energy>
  <time name="totalsc">  382.09  383.09</time>
 </calculation>
 <calculation>
  <scstep>
   <time name="dav">   21.64   21.69</time>
   <time name="total">   22.16   22.21</time>
   <energy>
    <i name="alphaZ">     90.35822451 </i>
    <i name="ewald">  44722.63776178 </i>
    <i name="hartreedc"> -50734.01080081 </i>
    <i name="XCdc">   -233.39846179 </i>
    <i name="pawpsdc">   4084.80734438 </i>
    <i name="pawaedc">  -3500.74483844 </i>
    <i name="eentropy">     -0.18973844 </i>
    <i name="bandstr">  -1382.29736595 </i>
    <i name="atom">   6761.44252427 </i>
    <i name="e_fr_energy">   -191.39535048 </i>
    <i name="e_wo_entrp">   -191.20561204 </i>
    <i name="e_0_energy">   -191.30048126 </i>
   </energy>
  </scstep>
  <scstep>
   <time name="dav">   30.45   30.53</time>
   <time name="total">   30.96   31.05</time>
   <energy>
    <i name="e_fr_energy">   -191.45654295 </i>
    <i name="e_wo_entrp">   -191.25424408 </i>
    <i name="e_0_energy">   -191.35539352 </i>
   </energy>
  </scstep>
  <scstep>
   <time name="dav">   29.42   29.49</time>
   <time name="total">   29.93   30.01</time>
   <energy>
    <i name="e_fr_energy">   -191.40653203 </i>
    <i name="e_wo_entrp">   -191.21634949 </i>
    <i name="e_0_energy">   -191.31144076 </i>
   </energy>
  </scstep>
  <scstep>
   <time name="dav">   28.35   28.42</time>
   <time name="total">   28.86   28.94</time>
   <energy>
    <i name="e_fr_energy">   -191.40676931 </i>
    <i name="e_wo_entrp">   -191.21507508 </i>
    <i name="e_0_energy">   -191.31092219 </i>
   </energy>
  </scstep>
  <scstep>
   <time name="dav">   28.48   28.55</time>
   <time name="total">   29.00   29.07</time>
   <energy>
    <i name="e_fr_energy">   -191.40302398 </i>
    <i name="e_wo_entrp">   -191.21148076 </i>
    <i name="e_0_energy">   -191.30725237 </i>
   </energy>
  </scstep>
  <scstep>
   <time name="dav">   28.48   28.55</time>
   <time name="total">   28.99   29.07</time>
   <energy>
    <i name="e_fr_energy">   -191.40304845 </i>
    <i name="e_wo_entrp">   -191.21120249 </i>
    <i name="e_0_energy">   -191.30712547 </i>
   </energy>
  </scstep>
  <scstep>
   <time name="dav">   29.03   29.10</time>
   <time name="total">   29.54   29.62</time>
   <energy>
    <i name="e_fr_energy">   -191.40306547 </i>
    <i name="e_wo_entrp">   -191.21143295 </i>
    <i name="e_0_energy">   -191.30724921 </i>
   </energy>
  </scstep>
  <scstep>
   <time name="dav">   25.35   25.41</time>
   <time name="total">   25.86   25.93</time>
   <energy>
    <i name="e_fr_energy">   -191.40251193 </i>
    <i name="e_wo_entrp">   -191.21082622 </i>
    <i name="e_0_energy">   -191.30666907 </i>
   </energy>
  </scstep>
  <scstep>
   <time name="dav">   17.55   17.59</time>
   <time name="total">   17.58   17.63</time>
   <energy>
    <i name="alphaZ">     90.35822451 </i>
    <i name="ewald">  44722.63776178 </i>
    <i name="hartreedc"> -50734.53015074 </i>
    <i name="XCdc">   -233.39503196 </i>
    <i name="pawpsdc">   4082.19844186 </i>
    <i name="pawaedc">  -3498.09305173 </i>
    <i name="eentropy">     -0.19168225 </i>
    <i name="bandstr">  -1381.82956129 </i>
    <i name="atom">   6761.44252427 </i>
    <i name="e_fr_energy">   -191.40252555 </i>
    <i name="e_wo_entrp">   -191.21084330 </i>
    <i name="e_0_energy">   -191.30668443 </i>
   </energy>
  </scstep>
  <structure>
   <crystal>
    <varray name="basis" >
     <v>       8.27035600       4.78888565       0.00000000 </v>
     <v>      -8.25805275       4.76759506       0.00000000 </v>
     <v>       0.00000000       0.00000000      30.00000000 </v>
    </varray>
    <i name="volume">   2369.29736175 </i>
    <varray name="rec_basis" >
     <v>       0.06036720       0.10456331       0.00000000 </v>
     <v>      -0.06063678       0.10471910       0.00000000 </v>
     <v>       0.00000000       0.00000000       0.03333333 </v>
    </varray>
   </crystal>
   <varray name="positions" >
    <v>       0.01060388       0.66774604      -0.00001862 </v>
    <v>       0.00464198       0.00085476      -0.00007612 </v>
    <v>       0.65657386       0.00079033      -0.00002017 </v>
    <v>       0.65114556       0.32733094      -0.00001303 </v>
    <v>       0.33082461       0.66797070       0.00012203 </v>
    <v>       0.34292272       0.00414343       0.00002533 </v>
    <v>       1.00263257       0.34209558       0.00037585 </v>
    <v>       0.34859275       0.33774004      -0.00013385 </v>
    <v>       0.65299263       0.65184861      -0.00034821 </v>
    <v>       0.11007655       0.21871917       0.94979843 </v>
    <v>       0.21798833       0.10935772       0.05121962 </v>
    <v>       0.10771516       0.55899317       0.94728240 </v>
    <v>       0.22269295       0.44290459       0.05217004 </v>
    <v>       0.10653609       0.88573682       0.95001321 </v>
    <v>       0.21622605       0.77585037       0.05190902 </v>
    <v>       0.44262696       0.22107234       0.94539541 </v>
    <v>       0.55895006       0.10770703       0.05329578 </v>
    <v>       0.44268625       0.55428074       0.94613591 </v>
    <v>       0.55547925       0.44413028       0.05520270 </v>
    <v>       0.45121761       0.89221216       0.94743454 </v>
    <v>       0.55955465       0.78364717       0.05130156 </v>
    <v>       0.77524983       0.21691078       0.94928961 </v>
    <v>       0.88568715       0.10638634       0.04882835 </v>
    <v>       0.78295158       0.55833358       0.94937570 </v>
    <v>       0.89066028       0.45037938       0.05097724 </v>
    <v>       0.77851468       0.89233453       0.95179224 </v>
    <v>       0.89247047       0.77873787       0.04866493 </v>
   </varray>
  </structure>
  <varray name="forces" >
   <v>       0.24429672       0.35016562       0.02056354 </v>
   <v>       0.07004636       0.05521573       0.02257511 </v>
   <v>      -0.18814870      -0.07295279      -0.00326350 </v>
   <v>      -0.23520234      -0.27593325       0.01569604 </v>
   <v>      -0.07449276      -0.09749613      -0.01809927 </v>
   <v>       0.00755064       0.08597604      -0.01416407 </v>
   <v>      -0.02946205       0.22179049       0.03103038 </v>
   <v>       0.20307718       0.18270810      -0.02517263 </v>
   <v>       0.02136728      -0.36428780       0.01085133 </v>
   <v>       0.00443204       0.11392654       0.05643999 </v>
   <v>       0.03985855       0.10219021      -0.00890450 </v>
   <v>       0.00943205       0.05795844      -0.12635811 </v>
   <v>       0.08054316       0.02246671      -0.03989801 </v>
   <v>       0.07618005       0.05583915      -0.02608092 </v>
   <v>       0.02635615       0.10350122       0.08424005 </v>
   <v>       0.01802743      -0.06646852      -0.15833925 </v>
   <v>      -0.05449866      -0.00138317       0.10165025 </v>
   <v>      -0.04476836      -0.06583088      -0.09742669 </v>
   <v>       0.02343487      -0.05097185       0.20755325 </v>
   <v>      -0.00586755      -0.02633502      -0.04189931 </v>
   <v>       0.00947613      -0.05874950      -0.02822694 </v>
   <v>      -0.10591687       0.04975310       0.11917955 </v>
   <v>      -0.05992098       0.02582026      -0.11035841 </v>
   <v>       0.01516206      -0.07815918       0.13953185 </v>
   <v>      -0.07485736      -0.05748903      -0.12756278 </v>
   <v>       0.01113915      -0.12597952       0.16195066 </v>
   <v>       0.01275582      -0.08527496      -0.14550763 </v>
  </varray>
  <varray name="stress" >
   <v>      -0.02137075       0.04069213       0.02779802 </v>
   <v>       0.04069209      -0.02982099       0.09097501 </v>
   <v>       0.02779797       0.09097509      -1.29233113 </v>
  </varray>
  <energy>
   <i name="e_fr_energy">   -191.40252555 </i>
   <i name="e_wo_entrp">   -191.30668443 </i>
   <i name="e_0_energy">     -0.19168225 </i>
  </energy>
  <time name="totalsc">  284.57  285.33</time>
 </calculation>
 <calculation>
  <scstep>
   <time name="dav">   21.66   21.72</time>
   <time name="total">   22.18   22.23</time>
   <energy>
    <i name="alphaZ">     90.39063226 </i>
    <i name="ewald">  44739.84893474 </i>
    <i name="hartreedc"> -50751.91689730 </i>
    <i name="XCdc">   -233.36620109 </i>
    <i name="pawpsdc">   4082.15966121 </i>
    <i name="pawaedc">  -3498.05341875 </i>
    <i name="eentropy">     -0.19190970 </i>
    <i name="bandstr">  -1381.77787182 </i>
    <i name="atom">   6761.44252427 </i>
    <i name="e_fr_energy">   -191.46454617 </i>
    <i name="e_wo_entrp">   -191.27263647 </i>
    <i name="e_0_energy">   -191.36859132 </i>
   </energy>
  </scstep>
  <scstep>
   <time name="dav">   31.92   31.99</time>
   <time name="total">   32.43   32.52</time>
   <energy>
    <i name="e_fr_energy">   -191.56105172 </i>
    <i name="e_wo_entrp">   -191.34425076 </i>
    <i name="e_0_energy">   -191.45265124 </i>
   </energy>
  </scstep>
  <scstep>
   <time name="dav">   29.74   29.81</time>
   <time name="total">   30.25   30.33</time>
   <energy>
    <i name="e_fr_energy">   -191.47753850 </i>
    <i name="e_wo_entrp">   -191.28444319 </i>
    <i name="e_0_energy">   -191.38099084 </i>
   </energy>
  </scstep>
  <scstep>
   <time name="dav">   28.86   28.93</time>
   <time name="total">   29.38   29.45</time>
   <energy>
    <i name="e_fr_energy">   -191.47706880 </i>
    <i name="e_wo_entrp">   -191.28216260 </i>
    <i name="e_0_energy">   -191.37961570 </i>
   </energy>
  </scstep>
  <scstep>
   <time name="dav">   28.82   28.89</time>
   <time name="total">   29.33   29.41</time>
   <energy>
    <i name="e_fr_energy">   -191.47129905 </i>
    <i name="e_wo_entrp">   -191.27615737 </i>
    <i name="e_0_energy">   -191.37372821 </i>
   </energy>
  </scstep>
  <scstep>
   <time name="dav">   28.42   28.49</time>
   <time name="total">   28.93   29.01</time>
   <energy>
    <i name="e_fr_energy">   -191.47141746 </i>
    <i name="e_wo_entrp">   -191.27567732 </i>
    <i name="e_0_energy">   -191.37354739 </i>
   </energy>
  </scstep>
  <scstep>
   <time name="dav">   28.04   28.10</time>
   <time name="total">   28.55   28.62</time>
   <energy>
    <i name="e_fr_energy">   -191.47085450 </i>
    <i name="e_wo_entrp">   -191.27535010 </i>
    <i name="e_0_energy">   -191.37310230 </i>
   </energy>
  </scstep>
  <scstep>
   <time name="dav">   25.27   25.33</time>
   <time name="total">   25.78   25.85</time>
   <energy>
    <i name="e_fr_energy">   -191.47026797 </i>
    <i name="e_wo_entrp">   -191.27464580 </i>
    <i name="e_0_energy">   -191.37245688 </i>
   </energy>
  </scstep>
  <scstep>
[...]
      <set comment="kpoint 31">
       <r>  -17.5887    1.0000 </r>
       <r>  -17.2582    1.0000 </r>
       <r>  -16.9128    1.0000 </r>
       <r>  -16.6763    1.0000 </r>
       <r>  -16.5486    1.0000 </r>
       <r>  -16.4860    1.0000 </r>
       <r>  -16.3396    1.0000 </r>
       <r>  -16.2343    1.0000 </r>
       <r>  -16.1622    1.0000 </r>
       <r>  -16.0327    1.0000 </r>
       <r>  -15.9201    1.0000 </r>
       <r>  -15.8795    1.0000 </r>
       <r>  -15.7578    1.0000 </r>
       <r>  -15.5904    1.0000 </r>
       <r>  -15.5548    1.0000 </r>
       <r>  -15.4084    1.0000 </r>
       <r>  -15.3074    1.0000 </r>
       <r>  -15.2965    1.0000 </r>
       <r>   -9.8165    1.0000 </r>
       <r>   -9.5201    1.0000 </r>
       <r>   -9.3306    1.0000 </r>
       <r>   -9.0648    1.0000 </r>
       <r>   -8.8287    1.0000 </r>
       <r>   -8.7418    1.0000 </r>
       <r>   -8.6090    1.0000 </r>
       <r>   -8.5377    1.0000 </r>
       <r>   -8.4078    1.0000 </r>
       <r>   -8.3193    1.0000 </r>
       <r>   -8.2243    1.0000 </r>
       <r>   -8.2062    1.0000 </r>
       <r>   -8.1321    1.0000 </r>
       <r>   -8.1043    1.0000 </r>
       <r>   -7.9912    1.0000 </r>
       <r>   -7.8672    1.0000 </r>
       <r>   -7.8246    1.0000 </r>
       <r>   -7.7001    1.0000 </r>
       <r>   -7.6019    1.0000 </r>
       <r>   -7.5184    1.0000 </r>
       <r>   -7.3855    1.0000 </r>
       <r>   -7.2371    1.0000 </r>
       <r>   -7.1863    1.0000 </r>
       <r>   -7.1468    1.0000 </r>
       <r>   -6.9725    1.0000 </r>
       <r>   -6.8649    1.0000 </r>
       <r>   -6.8168    1.0000 </r>
       <r>   -6.7026    1.0000 </r>
       <r>   -6.6715    1.0000 </r>
       <r>   -6.5803    1.0000 </r>
       <r>   -6.5505    1.0000 </r>
       <r>   -6.5097    1.0000 </r>
       <r>   -6.4484    1.0000 </r>
       <r>   -6.3321    1.0000 </r>
       <r>   -6.2731    1.0000 </r>
       <r>   -6.1737    1.0000 </r>
       <r>   -6.1176    1.0000 </r>
       <r>   -6.0664    1.0000 </r>
       <r>   -5.9344    1.0000 </r>
       <r>   -5.8623    1.0000 </r>
       <r>   -5.8190    1.0000 </r>
       <r>   -5.7543    1.0000 </r>
       <r>   -5.6497    1.0000 </r>
       <r>   -5.4867    1.0000 </r>
       <r>   -5.4558    1.0000 </r>
       <r>   -5.4463    1.0000 </r>
       <r>   -5.1717    1.0000 </r>
       <r>   -5.0744    1.0000 </r>
       <r>   -5.0322    1.0000 </r>
       <r>   -4.9020    1.0000 </r>
       <r>   -4.7685    1.0000 </r>
       <r>   -4.6944    1.0000 </r>
       <r>   -4.6509    1.0000 </r>
       <r>   -4.4386    1.0000 </r>
       <r>   -4.2923    1.0000 </r>
       <r>   -4.0958    1.0000 </r>
       <r>   -4.0550    1.0000 </r>
       <r>   -3.9486    1.0000 </r>
       <r>   -3.7738    0.9999 </r>
       <r>   -3.7212    0.9998 </r>
       <r>   -3.6869    0.9994 </r>
       <r>   -3.1657    0.3293 </r>
       <r>   -2.9897    0.0459 </r>
       <r>   -2.9211    0.0149 </r>
       <r>   -2.6543    0.0000 </r>
       <r>   -2.5491    0.0000 </r>
       <r>   -2.5005    0.0000 </r>
       <r>   -2.3607    0.0000 </r>
       <r>   -2.2659    0.0000 </r>
       <r>   -2.0496    0.0000 </r>
       <r>   -2.0049    0.0000 </r>
       <r>   -1.8632    0.0000 </r>
       <r>   -1.7368    0.0000 </r>
       <r>   -1.4587    0.0000 </r>
       <r>   -1.3270    0.0000 </r>
       <r>   -1.2721    0.0000 </r>
       <r>   -1.1877    0.0000 </r>
       <r>   -1.1367    0.0000 </r>
       <r>   -1.0502    0.0000 </r>
       <r>   -0.9578    0.0000 </r>
       <r>   -0.8972    0.0000 </r>
       <r>   -0.8400    0.0000 </r>
       <r>   -0.8013    0.0000 </r>
       <r>   -0.7017    0.0000 </r>
       <r>   -0.6658    0.0000 </r>
       <r>   -0.6279    0.0000 </r>
       <r>   -0.5225    0.0000 </r>
       <r>   -0.2500    0.0000 </r>
       <r>   -0.2263    0.0000 </r>
       <r>   -0.1538    0.0000 </r>
       <r>    0.0247    0.0000 </r>
       <r>    0.0969    0.0000 </r>
       <r>    0.3338    0.0000 </r>
       <r>    0.6271    0.0000 </r>
       <r>    0.7081    0.0000 </r>
       <r>    1.0887    0.0000 </r>
       <r>    1.1593    0.0000 </r>
       <r>    1.3528    0.0000 </r>
       <r>    1.4849    0.0000 </r>
       <r>    2.1539    0.0000 </r>
       <r>    2.3027    0.0000 </r>
       <r>    2.4055    0.0000 </r>
      </set>
      <set comment="kpoint 32">
       <r>  -17.5940    1.0000 </r>
       <r>  -17.2042    1.0000 </r>
       <r>  -17.0150    1.0000 </r>
       <r>  -16.6757    1.0000 </r>
       <r>  -16.5436    1.0000 </r>
       <r>  -16.3683    1.0000 </r>
       <r>  -16.3105    1.0000 </r>
       <r>  -16.2675    1.0000 </r>
       <r>  -16.1790    1.0000 </r>
       <r>  -16.0998    1.0000 </r>
       <r>  -15.9095    1.0000 </r>
       <r>  -15.8698    1.0000 </r>
       <r>  -15.7825    1.0000 </r>
       <r>  -15.5850    1.0000 </r>
       <r>  -15.5405    1.0000 </r>
       <r>  -15.4097    1.0000 </r>
       <r>  -15.3085    1.0000 </r>
       <r>  -15.2906    1.0000 </r>
       <r>   -9.7707    1.0000 </r>
       <r>   -9.6019    1.0000 </r>
       <r>   -9.3900    1.0000 </r>
       <r>   -9.0682    1.0000 </r>
       <r>   -8.6947    1.0000 </r>
       <r>   -8.6403    1.0000 </r>
       <r>   -8.5536    1.0000 </r>
       <r>   -8.4997    1.0000 </r>
       <r>   -8.4135    1.0000 </r>
       <r>   -8.3439    1.0000 </r>
       <r>   -8.3150    1.0000 </r>
       <r>   -8.2454    1.0000 </r>
       <r>   -8.1903    1.0000 </r>
       <r>   -8.1035    1.0000 </r>
       <r>   -8.0079    1.0000 </r>
       <r>   -7.9658    1.0000 </r>
       <r>   -7.8749    1.0000 </r>
       <r>   -7.6215    1.0000 </r>
       <r>   -7.5536    1.0000 </r>
       <r>   -7.4926    1.0000 </r>
       <r>   -7.3744    1.0000 </r>
       <r>   -7.3024    1.0000 </r>
       <r>   -7.2022    1.0000 </r>
       <r>   -7.0648    1.0000 </r>
       <r>   -6.9332    1.0000 </r>
       <r>   -6.8919    1.0000 </r>
       <r>   -6.8458    1.0000 </r>
       <r>   -6.7829    1.0000 </r>
       <r>   -6.6314    1.0000 </r>
       <r>   -6.5619    1.0000 </r>
       <r>   -6.5034    1.0000 </r>
       <r>   -6.4900    1.0000 </r>
       <r>   -6.4539    1.0000 </r>
       <r>   -6.3786    1.0000 </r>
       <r>   -6.3131    1.0000 </r>
       <r>   -6.1659    1.0000 </r>
       <r>   -6.1026    1.0000 </r>
       <r>   -5.9986    1.0000 </r>
       <r>   -5.9526    1.0000 </r>
       <r>   -5.8898    1.0000 </r>
       <r>   -5.7630    1.0000 </r>
       <r>   -5.7112    1.0000 </r>
       <r>   -5.6426    1.0000 </r>
       <r>   -5.5929    1.0000 </r>
       <r>   -5.4944    1.0000 </r>
       <r>   -5.3867    1.0000 </r>
       <r>   -5.1578    1.0000 </r>
       <r>   -5.0628    1.0000 </r>
       <r>   -4.9810    1.0000 </r>
       <r>   -4.8665    1.0000 </r>
       <r>   -4.8404    1.0000 </r>
       <r>   -4.7665    1.0000 </r>
       <r>   -4.7223    1.0000 </r>
       <r>   -4.4338    1.0000 </r>
       <r>   -4.2669    1.0000 </r>
       <r>   -4.1001    1.0000 </r>
       <r>   -4.0362    1.0000 </r>
       <r>   -3.9189    1.0000 </r>
       <r>   -3.8099    1.0000 </r>
       <r>   -3.7044    0.9996 </r>
       <r>   -3.6434    0.9983 </r>
       <r>   -3.2104    0.4499 </r>
       <r>   -2.9692    0.0335 </r>
       <r>   -2.8542    0.0041 </r>
       <r>   -2.6831    0.0001 </r>
       <r>   -2.5590    0.0000 </r>
       <r>   -2.5055    0.0000 </r>
       <r>   -2.3754    0.0000 </r>
       <r>   -2.2820    0.0000 </r>
       <r>   -2.0472    0.0000 </r>
       <r>   -2.0109    0.0000 </r>
       <r>   -1.8533    0.0000 </r>
       <r>   -1.7293    0.0000 </r>
       <r>   -1.4482    0.0000 </r>
       <r>   -1.3519    0.0000 </r>
       <r>   -1.2763    0.0000 </r>
       <r>   -1.2160    0.0000 </r>
       <r>   -1.1476    0.0000 </r>
       <r>   -1.0144    0.0000 </r>
       <r>   -0.9744    0.0000 </r>
       <r>   -0.8932    0.0000 </r>
       <r>   -0.7984    0.0000 </r>
       <r>   -0.7685    0.0000 </r>
       <r>   -0.7223    0.0000 </r>
       <r>   -0.6649    0.0000 </r>
       <r>   -0.6133    0.0000 </r>
       <r>   -0.4771    0.0000 </r>
       <r>   -0.3072    0.0000 </r>
       <r>   -0.2462    0.0000 </r>
       <r>   -0.1181    0.0000 </r>
       <r>    0.0520    0.0000 </r>
       <r>    0.1256    0.0000 </r>
       <r>    0.3265    0.0000 </r>
       <r>    0.6086    0.0000 </r>
       <r>    0.7371    0.0000 </r>
       <r>    1.0342    0.0000 </r>
       <r>    1.1579    0.0000 </r>
       <r>    1.3274    0.0000 </r>
       <r>    1.4635    0.0000 </r>
       <r>    2.1231    0.0000 </r>
       <r>    2.2668    0.0000 </r>
       <r>    2.5727    0.0000 </r>
      </set>
      <set comment="kpoint 33">
       <r>  -17.5814    1.0000 </r>
       <r>  -17.2752    1.0000 </r>
       <r>  -16.9062    1.0000 </r>
       <r>  -16.6750    1.0000 </r>
       <r>  -16.5453    1.0000 </r>
       <r>  -16.4823    1.0000 </r>
       <r>  -16.3216    1.0000 </r>
       <r>  -16.2425    1.0000 </r>
       <r>  -16.1964    1.0000 </r>
       <r>  -16.0480    1.0000 </r>
       <r>  -15.8689    1.0000 </r>
       <r>  -15.8482    1.0000 </r>
       <r>  -15.7819    1.0000 </r>
       <r>  -15.6185    1.0000 </r>
       <r>  -15.5594    1.0000 </r>
       <r>  -15.4105    1.0000 </r>
       <r>  -15.3085    1.0000 </r>
       <r>  -15.2842    1.0000 </r>
       <r>   -9.8294    1.0000 </r>
       <r>   -9.5019    1.0000 </r>
       <r>   -9.3493    1.0000 </r>
       <r>   -9.0605    1.0000 </r>
       <r>   -8.8099    1.0000 </r>
       <r>   -8.7282    1.0000 </r>
       <r>   -8.5953    1.0000 </r>
       <r>   -8.5526    1.0000 </r>
       <r>   -8.4432    1.0000 </r>
       <r>   -8.3311    1.0000 </r>
       <r>   -8.2745    1.0000 </r>
       <r>   -8.1905    1.0000 </r>
       <r>   -8.0977    1.0000 </r>
       <r>   -8.0512    1.0000 </r>
       <r>   -7.9986    1.0000 </r>
       <r>   -7.9169    1.0000 </r>
       <r>   -7.8385    1.0000 </r>
       <r>   -7.6710    1.0000 </r>
       <r>   -7.6192    1.0000 </r>
       <r>   -7.4958    1.0000 </r>
       <r>   -7.3611    1.0000 </r>
       <r>   -7.3194    1.0000 </r>
       <r>   -7.1698    1.0000 </r>
       <r>   -7.0039    1.0000 </r>
       <r>   -6.9258    1.0000 </r>
       <r>   -6.9043    1.0000 </r>
       <r>   -6.8719    1.0000 </r>
       <r>   -6.7432    1.0000 </r>
       <r>   -6.6602    1.0000 </r>
       <r>   -6.5881    1.0000 </r>
       <r>   -6.5167    1.0000 </r>
       <r>   -6.4652    1.0000 </r>
       <r>   -6.4526    1.0000 </r>
       <r>   -6.3514    1.0000 </r>
       <r>   -6.2645    1.0000 </r>
       <r>   -6.1950    1.0000 </r>
       <r>   -6.1051    1.0000 </r>
       <r>   -6.0769    1.0000 </r>
       <r>   -6.0117    1.0000 </r>
       <r>   -5.8767    1.0000 </r>
       <r>   -5.8293    1.0000 </r>
       <r>   -5.7099    1.0000 </r>
       <r>   -5.6622    1.0000 </r>
       <r>   -5.5412    1.0000 </r>
       <r>   -5.4816    1.0000 </r>
       <r>   -5.4150    1.0000 </r>
       <r>   -5.1732    1.0000 </r>
       <r>   -5.0614    1.0000 </r>
       <r>   -5.0332    1.0000 </r>
       <r>   -4.8954    1.0000 </r>
       <r>   -4.7785    1.0000 </r>
       <r>   -4.6912    1.0000 </r>
       <r>   -4.6013    1.0000 </r>
       <r>   -4.4558    1.0000 </r>
       <r>   -4.2706    1.0000 </r>
       <r>   -4.1116    1.0000 </r>
       <r>   -4.0529    1.0000 </r>
       <r>   -3.9166    1.0000 </r>
       <r>   -3.8544    1.0000 </r>
       <r>   -3.7392    0.9998 </r>
       <r>   -3.5867    0.9944 </r>
       <r>   -3.2531    0.5698 </r>
       <r>   -2.9481    0.0238 </r>
       <r>   -2.8222    0.0020 </r>
       <r>   -2.7231    0.0002 </r>
       <r>   -2.5936    0.0000 </r>
       <r>   -2.5022    0.0000 </r>
       <r>   -2.3579    0.0000 </r>
       <r>   -2.2635    0.0000 </r>
       <r>   -2.0360    0.0000 </r>
       <r>   -1.9884    0.0000 </r>
       <r>   -1.8253    0.0000 </r>
       <r>   -1.7334    0.0000 </r>
       <r>   -1.4432    0.0000 </r>
       <r>   -1.3669    0.0000 </r>
       <r>   -1.2792    0.0000 </r>
       <r>   -1.2090    0.0000 </r>
       <r>   -1.1574    0.0000 </r>
       <r>   -1.0831    0.0000 </r>
       <r>   -0.9486    0.0000 </r>
       <r>   -0.8844    0.0000 </r>
       <r>   -0.7859    0.0000 </r>
       <r>   -0.7774    0.0000 </r>
       <r>   -0.7247    0.0000 </r>
       <r>   -0.6662    0.0000 </r>
       <r>   -0.5676    0.0000 </r>
       <r>   -0.4789    0.0000 </r>
       <r>   -0.3289    0.0000 </r>
       <r>   -0.2991    0.0000 </r>
       <r>   -0.1248    0.0000 </r>
       <r>    0.0952    0.0000 </r>
       <r>    0.1383    0.0000 </r>
       <r>    0.3615    0.0000 </r>
       <r>    0.6345    0.0000 </r>
       <r>    0.7594    0.0000 </r>
       <r>    1.0030    0.0000 </r>
       <r>    1.1757    0.0000 </r>
       <r>    1.2915    0.0000 </r>
       <r>    1.4486    0.0000 </r>
       <r>    2.1533    0.0000 </r>
       <r>    2.3008    0.0000 </r>
       <r>    2.4026    0.0000 </r>
      </set>
      <set comment="kpoint 34">
       <r>  -17.5687    1.0000 </r>
       <r>  -17.3216    1.0000 </r>
       <r>  -16.7690    1.0000 </r>
       <r>  -16.6834    1.0000 </r>
       <r>  -16.6248    1.0000 </r>
       <r>  -16.5430    1.0000 </r>
       <r>  -16.3203    1.0000 </r>
       <r>  -16.2409    1.0000 </r>
       <r>  -16.1983    1.0000 </r>
       <r>  -16.0200    1.0000 </r>
       <r>  -15.8626    1.0000 </r>
       <r>  -15.8004    1.0000 </r>
       <r>  -15.7384    1.0000 </r>
       <r>  -15.6926    1.0000 </r>
       <r>  -15.5693    1.0000 </r>
       <r>  -15.4110    1.0000 </r>
       <r>  -15.3086    1.0000 </r>
       <r>  -15.2812    1.0000 </r>
       <r>   -9.8632    1.0000 </r>
       <r>   -9.4115    1.0000 </r>
       <r>   -9.2922    1.0000 </r>
       <r>   -9.0633    1.0000 </r>
       <r>   -8.9345    1.0000 </r>
       <r>   -8.8115    1.0000 </r>
       <r>   -8.6318    1.0000 </r>
       <r>   -8.5480    1.0000 </r>
       <r>   -8.4662    1.0000 </r>
       <r>   -8.3251    1.0000 </r>
       <r>   -8.2684    1.0000 </r>
       <r>   -8.1627    1.0000 </r>
       <r>   -8.0836    1.0000 </r>
       <r>   -7.9896    1.0000 </r>
       <r>   -7.9363    1.0000 </r>
       <r>   -7.8804    1.0000 </r>
       <r>   -7.7732    1.0000 </r>
       <r>   -7.6697    1.0000 </r>
       <r>   -7.6269    1.0000 </r>
       <r>   -7.5591    1.0000 </r>
       <r>   -7.4665    1.0000 </r>
       <r>   -7.3098    1.0000 </r>
       <r>   -7.0633    1.0000 </r>
       <r>   -7.0355    1.0000 </r>
       <r>   -6.9506    1.0000 </r>
       <r>   -6.9126    1.0000 </r>
       <r>   -6.8408    1.0000 </r>
       <r>   -6.7053    1.0000 </r>
       <r>   -6.6449    1.0000 </r>
       <r>   -6.5491    1.0000 </r>
       <r>   -6.5145    1.0000 </r>
       <r>   -6.4707    1.0000 </r>
       <r>   -6.4435    1.0000 </r>
       <r>   -6.4256    1.0000 </r>
       <r>   -6.2907    1.0000 </r>
       <r>   -6.2193    1.0000 </r>
       <r>   -6.1653    1.0000 </r>
       <r>   -6.0673    1.0000 </r>
       <r>   -6.0268    1.0000 </r>
       <r>   -5.8300    1.0000 </r>
       <r>   -5.8015    1.0000 </r>
       <r>   -5.7289    1.0000 </r>
       <r>   -5.6800    1.0000 </r>
       <r>   -5.5881    1.0000 </r>
       <r>   -5.5240    1.0000 </r>
       <r>   -5.3791    1.0000 </r>
       <r>   -5.1909    1.0000 </r>
       <r>   -5.0268    1.0000 </r>
       <r>   -4.9945    1.0000 </r>
       <r>   -4.9748    1.0000 </r>
       <r>   -4.7731    1.0000 </r>
       <r>   -4.6025    1.0000 </r>
       <r>   -4.5399    1.0000 </r>
       <r>   -4.4012    1.0000 </r>
       <r>   -4.3086    1.0000 </r>
       <r>   -4.1290    1.0000 </r>
       <r>   -4.0644    1.0000 </r>
       <r>   -3.9552    1.0000 </r>
       <r>   -3.8595    1.0000 </r>
       <r>   -3.7589    0.9999 </r>
       <r>   -3.5661    0.9916 </r>
       <r>   -3.2694    0.6145 </r>
       <r>   -2.9371    0.0198 </r>
       <r>   -2.8307    0.0025 </r>
       <r>   -2.7300    0.0002 </r>
       <r>   -2.6135    0.0000 </r>
       <r>   -2.5027    0.0000 </r>
       <r>   -2.3383    0.0000 </r>
       <r>   -2.2472    0.0000 </r>
       <r>   -2.0263    0.0000 </r>
       <r>   -1.9732    0.0000 </r>
       <r>   -1.8150    0.0000 </r>
       <r>   -1.7347    0.0000 </r>
       <r>   -1.4404    0.0000 </r>
       <r>   -1.3691    0.0000 </r>
       <r>   -1.2761    0.0000 </r>
       <r>   -1.1911    0.0000 </r>
       <r>   -1.1707    0.0000 </r>
       <r>   -1.1277    0.0000 </r>
       <r>   -0.9516    0.0000 </r>
       <r>   -0.8762    0.0000 </r>
       <r>   -0.7950    0.0000 </r>
       <r>   -0.7607    0.0000 </r>
       <r>   -0.7109    0.0000 </r>
       <r>   -0.6954    0.0000 </r>
       <r>   -0.5450    0.0000 </r>
       <r>   -0.4962    0.0000 </r>
       <r>   -0.3343    0.0000 </r>
       <r>   -0.3072    0.0000 </r>
       <r>   -0.1461    0.0000 </r>
       <r>    0.0937    0.0000 </r>
       <r>    0.1590    0.0000 </r>
       <r>    0.3905    0.0000 </r>
       <r>    0.6540    0.0000 </r>
       <r>    0.7688    0.0000 </r>
       <r>    0.9943    0.0000 </r>
       <r>    1.1986    0.0000 </r>
       <r>    1.2674    0.0000 </r>
       <r>    1.4425    0.0000 </r>
       <r>    2.2307    0.0000 </r>
       <r>    2.2638    0.0000 </r>
       <r>    2.3884    0.0000 </r>
      </set>
     </set>
    </set>
   </array>
  </eigenvalues>
  <separator name="orbital magnetization" >
   <v name="MAGDIPOLOUT">      0.00000000      0.00000000      0.00000000</v>
  </separator>
 </calculation>
 <structure name="finalpos" >
  <crystal>
   <varray name="basis" >
    <v>       8.32373379       4.83175730       0.00000000 </v>
    <v>      -8.29010181       4.77366107       0.00000000 </v>
    <v>       0.00000000       0.00000000      30.00000000 </v>
   </varray>
   <i name="volume">   2393.71331781 </i>
   <varray name="rec_basis" >
    <v>       0.05982748       0.10389843       0.00000000 </v>
    <v>      -0.06055559       0.10431993       0.00000000 </v>
    <v>       0.00000000       0.00000000       0.03333333 </v>
   </varray>
  </crystal>
  <varray name="positions" >
   <v>       0.03615885       0.68390168      -0.00231659 </v>
   <v>       0.03125885       0.01138551      -0.00146451 </v>
   <v>       0.63322296      -0.00910250       0.00198512 </v>
   <v>       0.62768701       0.31522361       0.00212208 </v>
   <v>       0.33105720       0.67973305       0.00001064 </v>
   <v>       0.33972405       0.00275510      -0.00020960 </v>
   <v>       1.03876846       0.35688850      -0.00213612 </v>
   <v>       0.33994916       0.32242157      -0.00021182 </v>
   <v>       0.62854642       0.63947944       0.00209242 </v>
   <v>       0.11167730       0.21654446       0.94578467 </v>
   <v>       0.21926846       0.10780371       0.05371595 </v>
   <v>       0.11529803       0.56481284       0.94382245 </v>
   <v>       0.23237043       0.45043824       0.05276442 </v>
   <v>       0.11000775       0.88741284       0.94634383 </v>
   <v>       0.21886266       0.77892059       0.05368049 </v>
   <v>       0.43826847       0.21675960       0.94384172 </v>
   <v>       0.55338163       0.10624767       0.05616703 </v>
   <v>       0.43470426       0.54954455       0.94690088 </v>
   <v>       0.54638640       0.43681388       0.05811655 </v>
   <v>       0.44986511       0.89379639       0.94579357 </v>
   <v>       0.55691171       0.78408346       0.05409844 </v>
   <v>       0.77826095       0.22174394       0.95578026 </v>
   <v>       0.88909279       0.11127604       0.04250220 </v>
   <v>       0.78033444       0.55642710       0.95565521 </v>
   <v>       0.89017922       0.44820336       0.04332996 </v>
   <v>       0.77673624       0.88926278       0.95847672 </v>
   <v>       0.89023564       0.77543705       0.04335395 </v>
  </varray>
 </structure>
</modeling>
