unknown system                          
           1
     8.855988    5.108049    0.000000
    -8.853396    5.103593    0.000000
     0.000000    0.000000   30.000000
   V    Mo   W    S 
   3   3   3  18
Direct configuration=     1
   0.00000000  0.66666669  0.00000000
   0.00000000  0.00000000  0.00000000
   0.66666669  0.00000000  0.00000000
   0.66666669  0.33333334  0.00000000
   0.33333334  0.66666669  0.00000000
   0.33333334  0.00000000  0.00000000
   1.00000000  0.33333334  0.00000000
   0.33333334  0.33333334  0.00000000
   0.66666669  0.66666669  0.00000000
   0.11068511  0.22244981  0.95539999
   0.22244981  0.11068511  0.04460000
   0.11068511  0.55578315  0.95539999
   0.22244981  0.44401845  0.04460000
   0.11068511  0.88911647  0.95539999
   0.22244981  0.77735180  0.04460000
   0.44401845  0.22244981  0.95539999
   0.55578315  0.11068511  0.04460000
   0.44401845  0.55578315  0.95539999
   0.55578315  0.44401845  0.04460000
   0.44401845  0.88911647  0.95539999
   0.55578315  0.77735180  0.04460000
   0.77735180  0.22244981  0.95539999
   0.88911647  0.11068511  0.04460000
   0.77735180  0.55578315  0.95539999
   0.88911647  0.44401845  0.04460000
   0.77735180  0.88911647  0.95539999
   0.88911647  0.77735180  0.04460000
unknown system                          
           1
     8.668027    5.001846    0.000000
    -8.665470    4.997447    0.000000
     0.000000    0.000000   30.000000
   V    Mo   W    S 
   3   3   3  18
Direct configuration=     2
   0.00130017  0.66707035 -0.00018750
   0.00078005 -0.00036540 -0.00002358
   0.66469544  0.00010009  0.00016331
   0.66524686  0.33201694  0.00014964
   0.33328305  0.66805758 -0.00011340
   0.33449162 -0.00034636 -0.00003213
   0.99934120  0.33434525  0.00009014
   0.33488049  0.33312708  0.00003325
   0.66590293  0.66589329 -0.00005150
   0.10935973  0.21850983  0.95193904
   0.21814566  0.10985980  0.04803719
   0.10811959  0.55703892  0.95191075
   0.22169331  0.44346095  0.04917957
   0.10648850  0.88668261  0.95311746
   0.21765368  0.77554953  0.04805912
   0.44378253  0.22255871  0.95073522
   0.55801374  0.10860346  0.04807556
   0.44462168  0.55500512  0.95070725
   0.55499029  0.44466256  0.04934682
   0.44874136  0.89091910  0.95189546
   0.55826258  0.78190524  0.04807938
   0.77649607  0.21808540  0.95196520
   0.88720727  0.10751082  0.04686380
   0.78186273  0.55824602  0.95196164
   0.89138770  0.44828515  0.04806684
   0.77918445  0.89223509  0.95316520
   0.89228174  0.77919729  0.04686616
unknown system                          
           1
     8.486651    4.901140    0.000000
    -8.485513    4.899195    0.000000
     0.000000    0.000000   30.000000
   V    Mo   W    S 
   3   3   3  18
Direct configuration=     3
   0.00177121  0.66712034 -0.00021000
   0.00104457 -0.00036382 -0.00003253
   0.66405486  0.00010825  0.00017993
   0.66445829  0.33162912  0.00012997
   0.33323470  0.66826838 -0.00008919
   0.33509176 -0.00017366 -0.00003068
   0.99939176  0.33483106  0.00014008
   0.33571663  0.33334998  0.00003435
   0.66516469  0.66514062 -0.00010737
   0.10941361  0.21868342  0.95203376
   0.21816250  0.10999611  0.04801367
   0.10794730  0.55688018  0.95184677
   0.22159252  0.44322030  0.04911581
   0.10642276  0.88660106  0.95313882
   0.21750183  0.77548447  0.04808597
   0.44364695  0.22266540  0.95065728
   0.55807271  0.10850895  0.04819691
   0.44470978  0.55490057  0.95068922
   0.55489240  0.44475709  0.04943316
   0.44890654  0.89101907  0.95180917
   0.55848789  0.78193055  0.04806282
   0.77666563  0.21807404  0.95200003
   0.88725031  0.10768615  0.04675796
   0.78184110  0.55844503  0.95202286
   0.89157069  0.44828008  0.04804795
   0.77910350  0.89205431  0.95329510
   0.89209797  0.77911741  0.04677809
unknown system                          
           1
     8.274269    4.782782    0.000000
    -8.267765    4.771546    0.000000
     0.000000    0.000000   30.000000
   V    Mo   W    S 
   3   3   3  18
Direct configuration=     4
   0.00362701  0.66692816 -0.00021010
   0.00216738  0.00000034 -0.00005117
   0.66169751  0.00023598  0.00016356
   0.66099620  0.33033222  0.00001680
   0.33278416  0.66840134  0.00002687
   0.33757906  0.00099588 -0.00000380
   1.00008303  0.33688355  0.00026457
   0.33932101  0.33467406  0.00003428
   0.66164955  0.66143082 -0.00026674
   0.10895736  0.21800022  0.95096887
   0.21717011  0.10932426  0.04935454
   0.10737975  0.55746699  0.95010740
   0.22163171  0.44300866  0.05044935
   0.10560113  0.88601523  0.95191973
   0.21620140  0.77499351  0.04959758
   0.44347806  0.22252150  0.94872844
   0.55861881  0.10780807  0.05013062
   0.44449694  0.55482112  0.94897469
   0.55498412  0.44477058  0.05145776
   0.45030295  0.89176917  0.95004367
   0.55930058  0.78310175  0.04945078
   0.77619779  0.21697364  0.95071576
   0.88664969  0.10677805  0.04767433
   0.78288976  0.55903849  0.95081857
   0.89202289  0.44946820  0.04941034
   0.77956023  0.89295307  0.95248598
   0.89286627  0.77951958  0.04773723
unknown system                          
           1
     8.270356    4.788886    0.000000
    -8.258053    4.767595    0.000000
     0.000000    0.000000   30.000000
   V    Mo   W    S 
   3   3   3  18
Direct configuration=     5
   0.00806400  0.66686208 -0.00003449
   0.00411587  0.00072223 -0.00006811
   0.65759930  0.00064967 -0.00003769
   0.65318299  0.32785913 -0.00010915
   0.33152441  0.66826105  0.00016795
   0.34234745  0.00363586  0.00006536
   1.00168296  0.34088294  0.00034687
   0.34708477  0.33742200  0.00001047
   0.65468190  0.65378033 -0.00038169
   0.10911959  0.21782243  0.94969631
   0.21694313  0.10877808  0.05114777
   0.10728168  0.55862365  0.94757179
   0.22216340  0.44302154  0.05216271
   0.10572298  0.88560648  0.95009456
   0.21539159  0.77516133  0.05169023
   0.44310234  0.22163169  0.94583126
   0.55903799  0.10734254  0.05300740
   0.44345603  0.55460657  0.94645779
   0.55536701  0.44448513  0.05459049
   0.45153970  0.89238858  0.94761726
   0.55985135  0.78410904  0.05128209
   0.77545305  0.21617259  0.94919507
   0.88578586  0.10599025  0.04892183
   0.78363608  0.55900930  0.94925205
   0.89156291  0.45068369  0.05109355
   0.77939569  0.89329244  0.95158969
   0.89312043  0.77941383  0.04883850
unknown system                          
           1
     8.269740    4.789318    0.000000
    -8.255887    4.765349    0.000000
     0.000000    0.000000   30.000000
   V    Mo   W    S 
   3   3   3  18
Direct configuration=     6
   0.01060388  0.66774604 -0.00001862
   0.00464198  0.00085476 -0.00007612
   0.65657386  0.00079033 -0.00002017
   0.65114556  0.32733094 -0.00001303
   0.33082461  0.66797070  0.00012203
   0.34292272  0.00414343  0.00002533
   1.00263257  0.34209558  0.00037585
   0.34859275  0.33774004 -0.00013385
   0.65299263  0.65184861 -0.00034821
   0.11007655  0.21871917  0.94979843
   0.21798833  0.10935772  0.05121962
   0.10771516  0.55899317  0.94728240
   0.22269295  0.44290459  0.05217004
   0.10653609  0.88573682  0.95001321
   0.21622605  0.77585037  0.05190902
   0.44262696  0.22107234  0.94539541
   0.55895006  0.10770703  0.05329578
   0.44268625  0.55428074  0.94613591
   0.55547925  0.44413028  0.05520270
   0.45121761  0.89221216  0.94743454
   0.55955465  0.78364717  0.05130156
   0.77524983  0.21691078  0.94928961
   0.88568715  0.10638634  0.04882835
   0.78295158  0.55833358  0.94937570
   0.89066028  0.45037938  0.05097724
   0.77851468  0.89233453  0.95179224
   0.89247047  0.77873787  0.04866493
unknown system                          
           1
     8.275607    4.796102    0.000000
    -8.258459    4.766425    0.000000
     0.000000    0.000000   30.000000
   V    Mo   W    S 
   3   3   3  18
Direct configuration=     7
   0.01421115  0.66926857  0.00002998
   0.00535078  0.00096653 -0.00002409
   0.65522633  0.00105515 -0.00002861
   0.64810092  0.32629853  0.00002333
   0.32979290  0.66757216  0.00008061
   0.34360828  0.00475478 -0.00000739
   1.00413469  0.34386215  0.00044830
   0.35082211  0.33823066 -0.00019341
   0.65038815  0.64905519 -0.00032350
   0.11092917  0.21953275  0.94992114
   0.21890210  0.10993276  0.05121107
   0.10817773  0.55938498  0.94697235
   0.22320067  0.44272858  0.05208905
   0.10726612  0.88582027  0.94994092
   0.21708822  0.77649721  0.05211866
   0.44221469  0.22050400  0.94500810
   0.55871401  0.10792601  0.05355051
   0.44200902  0.55398730  0.94589242
   0.55521108  0.44365676  0.05570660
   0.45100743  0.89204817  0.94732121
   0.55916915  0.78318378  0.05124814
   0.77516025  0.21771787  0.94955590
   0.88561714  0.10682296  0.04858067
   0.78244816  0.55769665  0.94968914
   0.88992021  0.45028231  0.05069226
   0.77764059  0.89136865  0.95216193
   0.89190339  0.77805971  0.04833462
unknown system                          
           1
     8.281163    4.803882    0.000000
    -8.258948    4.765434    0.000000
     0.000000    0.000000   30.000000
   V    Mo   W    S 
   3   3   3  18
Direct configuration=     8
   0.01625272  0.67026917  0.00003964
   0.00580170  0.00102751 -0.00000442
   0.65445631  0.00118548 -0.00003276
   0.64656557  0.32564431  0.00006257
   0.32921332  0.66738128  0.00006712
   0.34381936  0.00494408 -0.00003603
   1.00513596  0.34490689  0.00047848
   0.35164636  0.33831715 -0.00028262
   0.64903873  0.64773751 -0.00031043
   0.11122514  0.21981012  0.94997853
   0.21924475  0.11016710  0.05123001
   0.10837391  0.55957189  0.94679876
   0.22349071  0.44265205  0.05207462
   0.10751284  0.88583537  0.94988236
   0.21752567  0.77679018  0.05225795
   0.44191778  0.22018607  0.94479955
   0.55860763  0.10800128  0.05368826
   0.44163046  0.55379457  0.94576871
   0.55511172  0.44341846  0.05598394
   0.45093899  0.89197812  0.94725842
   0.55904555  0.78300999  0.05122278
   0.77512330  0.21807365  0.94970875
   0.88561034  0.10702336  0.04843064
   0.78232574  0.55744944  0.94989113
   0.88964013  0.45034038  0.05050946
   0.77725273  0.89094361  0.95238425
   0.89170701  0.77775545  0.04815024
unknown system                          
           1
     8.282418    4.804296    0.000000
    -8.260641    4.766605    0.000000
     0.000000    0.000000   30.000000
   V    Mo   W    S 
   3   3   3  18
Direct configuration=     9
   0.01969160  0.67214975  0.00003628
   0.00679560  0.00116218  0.00005159
   0.65298572  0.00136514 -0.00003761
   0.64408029  0.32439214  0.00013301
   0.32823507  0.66710492  0.00006086
   0.34398027  0.00511130 -0.00007868
   1.00718425  0.34683246  0.00054790
   0.35262057  0.33825836 -0.00040639
   0.64678332  0.64570612 -0.00027841
   0.11151440  0.22009265  0.95006638
   0.21966060  0.11048723  0.05122893
   0.10870343  0.55985371  0.94655219
   0.22395103  0.44255441  0.05202703
   0.10782278  0.88585814  0.94977938
   0.21825258  0.77722746  0.05247305
   0.44140520  0.21964145  0.94452572
   0.55837115  0.10804278  0.05386378
   0.44106052  0.55348932  0.94562929
   0.55482316  0.44297627  0.05630305
   0.45084961  0.89186318  0.94719285
   0.55891287  0.78276277  0.05114366
   0.77514851  0.21862487  0.95003431
   0.88567546  0.10740024  0.04810195
   0.78224013  0.55713096  0.95033872
   0.88932732  0.45054459  0.05010358
   0.77670190  0.89031477  0.95282344
   0.89143710  0.77726728  0.04778403
unknown system                          
           1
     8.283572    4.804830    0.000000
    -8.261897    4.767318    0.000000
     0.000000    0.000000   30.000000
   V    Mo   W    S 
   3   3   3  18
Direct configuration=    10
   0.01922819  0.67193105  0.00003101
   0.00672821  0.00116138  0.00004364
   0.65313834  0.00132345 -0.00003662
   0.64444042  0.32453704  0.00012544
   0.32837639  0.66715496  0.00006291
   0.34391545  0.00505858 -0.00007574
   1.00699183  0.34660505  0.00053635
   0.35237746  0.33821104 -0.00040018
   0.64709002  0.64602388 -0.00028213
   0.11143469  0.22001559  0.95004548
   0.21957626  0.11042465  0.05123861
   0.10866116  0.55981794  0.94658219
   0.22390212  0.44258241  0.05204568
   0.10776425  0.88585693  0.94978367
   0.21816204  0.77716736  0.05245153
   0.44145909  0.21970534  0.94456522
   0.55839778  0.10802244  0.05384202
   0.44113130  0.55352609  0.94564981
   0.55485577  0.44302690  0.05625710
   0.45086262  0.89187756  0.94719982
   0.55894806  0.78281398  0.05115746
   0.77515170  0.21853880  0.94999683
   0.88567321  0.10734886  0.04813816
   0.78228509  0.55719128  0.95028909
   0.88938414  0.45053824  0.05014892
   0.77679236  0.89041906  0.95277328
   0.89148648  0.77733459  0.04783035
unknown system                          
           1
     8.290998    4.810209    0.000000
    -8.267853    4.770153    0.000000
     0.000000    0.000000   30.000000
   V    Mo   W    S 
   3   3   3  18
Direct configuration=    11
   0.01928090  0.67197132  0.00002956
   0.00679150  0.00118602  0.00004544
   0.65305166  0.00130980 -0.00003690
   0.64439167  0.32447693  0.00012577
   0.32837885  0.66716610  0.00006428
   0.34392388  0.00504145 -0.00007539
   1.00708602  0.34666288  0.00053979
   0.35234401  0.33819533 -0.00040000
   0.64703851  0.64601121 -0.00028253
   0.11142836  0.22000890  0.95004081
   0.21958238  0.11042659  0.05123773
   0.10867282  0.55982455  0.94658024
   0.22391730  0.44259114  0.05204561
   0.10777102  0.88586328  0.94977856
   0.21817679  0.77717467  0.05245359
   0.44144884  0.21969591  0.94456883
   0.55838638  0.10800961  0.05383879
   0.44112482  0.55351703  0.94565498
   0.55483195  0.44300939  0.05624751
   0.45086743  0.89188193  0.94720431
   0.55895317  0.78282021  0.05115258
   0.77515838  0.21853751  0.95001395
   0.88567059  0.10736212  0.04812290
   0.78228982  0.55719354  0.95030984
   0.88938984  0.45054827  0.05013068
   0.77678004  0.89041476  0.95278957
   0.89147754  0.77731401  0.04781939
unknown system                          
           1
     8.289565    4.811050    0.000000
    -8.264543    4.767744    0.000000
     0.000000    0.000000   30.000000
   V    Mo   W    S 
   3   3   3  18
Direct configuration=    12
   0.02081879  0.67289869  0.00001254
   0.00758678  0.00137515  0.00007834
   0.65204325  0.00128798 -0.00003923
   0.64323885  0.32373759  0.00015277
   0.32801137  0.66711129  0.00006851
   0.34395039  0.00501674 -0.00009441
   1.00842010  0.34771579  0.00057859
   0.35245800  0.33803346 -0.00045379
   0.64592740  0.64518782 -0.00026861
   0.11145371  0.22003786  0.95003356
   0.21973565  0.11052824  0.05125525
   0.10886815  0.55997554  0.94646571
   0.22417994  0.44261994  0.05205321
   0.10791697  0.88590408  0.94969570
   0.21853765  0.77738298  0.05256045
   0.44119535  0.21942303  0.94447705
   0.55822832  0.10795407  0.05390897
   0.44086765  0.55336712  0.94561576
   0.55459529  0.44273913  0.05632909
   0.45083495  0.89184043  0.94718183
   0.55894179  0.78276776  0.05111638
   0.77521317  0.21874587  0.95021476
   0.88570101  0.10757245  0.04792242
   0.78231643  0.55709220  0.95057847
   0.88929272  0.45069043  0.04989025
   0.77654144  0.89017504  0.95303695
   0.89133934  0.77703377  0.04762938
unknown system                          
           1
     8.291435    4.813810    0.000000
    -8.264328    4.766897    0.000000
     0.000000    0.000000   30.000000
   V    Mo   W    S 
   3   3   3  18
Direct configuration=    13
   0.02183492  0.67348297  0.00000140
   0.00805011  0.00146336  0.00009797
   0.65154286  0.00129939 -0.00003903
   0.64248612  0.32340366  0.00017394
   0.32770810  0.66701027  0.00006823
   0.34392417  0.00507804 -0.00011382
   1.00918693  0.34835094  0.00059492
   0.35265659  0.33795068 -0.00050334
   0.64521959  0.64455484 -0.00025449
   0.11147281  0.22007498  0.95004359
   0.21982876  0.11059148  0.05127784
   0.10898515  0.56006606  0.94638452
   0.22433546  0.44262681  0.05206593
   0.10800812  0.88591512  0.94964837
   0.21877164  0.77751973  0.05263552
   0.44102559  0.21923771  0.94439524
   0.55814295  0.10796478  0.05398268
   0.44068054  0.55328050  0.94556402
   0.55449852  0.44258712  0.05642770
   0.45077204  0.89177934  0.94713894
   0.55891945  0.78270294  0.05111083
   0.77524541  0.21892376  0.95031436
   0.88575191  0.10770229  0.04781150
   0.78230939  0.55699659  0.95071590
   0.88919076  0.45074860  0.04976291
   0.77640890  0.89000398  0.95318042
   0.89125768  0.77689852  0.04751383
unknown system                          
           1
     8.287818    4.810702    0.000000
    -8.261987    4.765997    0.000000
     0.000000    0.000000   30.000000
   V    Mo   W    S 
   3   3   3  18
Direct configuration=    14
   0.02319767  0.67436481 -0.00002313
   0.00909454  0.00177053  0.00012739
   0.65042066  0.00118761 -0.00003779
   0.64138831  0.32272919  0.00020821
   0.32744310  0.66698009  0.00008004
   0.34391115  0.00508874 -0.00013642
   1.01068019  0.34938243  0.00062758
   0.35258071  0.33768671 -0.00057177
   0.64411741  0.64375760 -0.00023517
   0.11140611  0.22004163  0.95001777
   0.21993805  0.11064665  0.05132108
   0.10919831  0.56020421  0.94626756
   0.22461703  0.44271355  0.05210364
   0.10815284  0.88598600  0.94955170
   0.21915155  0.77773499  0.05274509
   0.44074636  0.21895059  0.94430479
   0.55797816  0.10791164  0.05406978
   0.44039945  0.55312661  0.94551520
   0.55425667  0.44230526  0.05650758
   0.45070281  0.89171655  0.94709129
   0.55893455  0.78267213  0.05109418
   0.77532663  0.21913530  0.95052609
   0.88582541  0.10793023  0.04758731
   0.78232456  0.55689056  0.95097933
   0.88908757  0.45084837  0.04951355
   0.77621991  0.88979508  0.95345155
   0.89111474  0.77665738  0.04731349
unknown system                          
           1
     8.300820    4.820815    0.000000
    -8.271759    4.770521    0.000000
     0.000000    0.000000   30.000000
   V    Mo   W    S 
   3   3   3  18
Direct configuration=    15
   0.02225011  0.67366975  0.00001108
   0.00771041  0.00124211  0.00011446
   0.65175176  0.00147093 -0.00004401
   0.64229941  0.32335876  0.00017547
   0.32743014  0.66689873  0.00006461
   0.34389042  0.00508395 -0.00011512
   1.00905148  0.34849052  0.00061079
   0.35301150  0.33805142 -0.00051391
   0.64511409  0.64435434 -0.00025449
   0.11158478  0.22016632  0.95010557
   0.21989053  0.11066678  0.05124059
   0.10898608  0.56008885  0.94636156
   0.22430974  0.44253154  0.05201547
   0.10802482  0.88586840  0.94966372
   0.21882884  0.77755084  0.05265736
   0.44100324  0.21919811  0.94436799
   0.55813793  0.10800978  0.05398598
   0.44065126  0.55326648  0.94555649
   0.55454287  0.44258135  0.05647367
   0.45077364  0.89175933  0.94715038
   0.55886745  0.78261382  0.05108381
   0.77522575  0.21900854  0.95030124
   0.88577768  0.10773847  0.04782003
   0.78230872  0.55696244  0.95074703
   0.88917425  0.45082403  0.04975228
   0.77634221  0.88990430  0.95317553
   0.89127535  0.77685457  0.04749231
unknown system                          
           1
     8.300043    4.820823    0.000000
    -8.270409    4.769539    0.000000
     0.000000    0.000000   30.000000
   V    Mo   W    S 
   3   3   3  18
Direct configuration=    16
   0.02459324  0.67525347 -0.00004700
   0.01002914  0.00194656  0.00015511
   0.64949212  0.00111840 -0.00003502
   0.64041954  0.32213573  0.00024932
   0.32708874  0.66698725  0.00008908
   0.34375643  0.00503017 -0.00015298
   1.01199674  0.35038780  0.00064918
   0.35250312  0.33737570 -0.00063726
   0.64312769  0.64302715 -0.00021032
   0.11135972  0.21999487  0.94998886
   0.22003182  0.11070723  0.05138315
   0.10938942  0.56038695  0.94612740
   0.22491882  0.44277710  0.05216488
   0.10827579  0.88601752  0.94944675
   0.21950666  0.77794808  0.05286882
   0.44047361  0.21865188  0.94416990
   0.55782237  0.10787016  0.05417257
   0.44011550  0.55299956  0.94543574
   0.55403336  0.44202575  0.05663906
   0.45062449  0.89163959  0.94702699
   0.55893077  0.78263109  0.05109518
   0.77537010  0.21935790  0.95068818
   0.88588502  0.10810510  0.04740562
   0.78243138  0.55681258  0.95119829
   0.88896248  0.45101129  0.04930587
   0.77605932  0.88959699  0.95368216
   0.89101706  0.77641859  0.04714034
unknown system                          
           1
     8.297531    4.820486    0.000000
    -8.266519    4.766818    0.000000
     0.000000    0.000000   30.000000
   V    Mo   W    S 
   3   3   3  18
Direct configuration=    17
   0.02513100  0.67559064 -0.00006184
   0.01046604  0.00201912  0.00016409
   0.64911897  0.00107509 -0.00003124
   0.64001864  0.32190636  0.00026213
   0.32693588  0.66702250  0.00009578
   0.34367546  0.00499882 -0.00016171
   1.01253610  0.35080051  0.00066070
   0.35246952  0.33721913 -0.00066530
   0.64274307  0.64273831 -0.00020359
   0.11131820  0.21996858  0.94998789
   0.22006724  0.11072570  0.05140055
   0.10945902  0.56046080  0.94609679
   0.22502862  0.44282201  0.05217344
   0.10832051  0.88602199  0.94941830
   0.21962578  0.77801799  0.05289586
   0.44038026  0.21855489  0.94414825
   0.55775144  0.10785107  0.05419348
   0.44002465  0.55294743  0.94543435
   0.55392483  0.44191383  0.05665747
   0.45057403  0.89160749  0.94701657
   0.55892956  0.78261034  0.05108224
   0.77539323  0.21943980  0.95076550
   0.88592278  0.10818605  0.04731667
   0.78246625  0.55679418  0.95130051
   0.88894240  0.45107181  0.04920689
   0.77600857  0.88952396  0.95378545
   0.89098240  0.77632607  0.04706065
unknown system                          
           1
     8.300011    4.822446    0.000000
    -8.268149    4.767307    0.000000
     0.000000    0.000000   30.000000
   V    Mo   W    S 
   3   3   3  18
Direct configuration=    18
   0.02638845  0.67638127 -0.00009699
   0.01212720  0.00257806  0.00018297
   0.64769255  0.00073346 -0.00002080
   0.63887999  0.32129004  0.00029851
   0.32673030  0.66705621  0.00011615
   0.34356005  0.00497143 -0.00018734
   1.01446598  0.35198869  0.00069138
   0.35210001  0.33680390 -0.00073384
   0.64154066  0.64192553 -0.00018170
   0.11112813  0.21985688  0.94989565
   0.22017112  0.11073643  0.05150289
   0.10970403  0.56063607  0.94599382
   0.22538309  0.44303952  0.05226126
   0.10847872  0.88610291  0.94929194
   0.21997100  0.77821826  0.05297848
   0.44009695  0.21828226  0.94408346
   0.55754068  0.10778982  0.05429085
   0.43974265  0.55277554  0.94540155
   0.55356265  0.44157081  0.05669857
   0.45041920  0.89152475  0.94694278
   0.55897845  0.78261163  0.05109396
   0.77552432  0.21965763  0.95102597
   0.88602558  0.10844738  0.04703838
   0.78248090  0.55670331  0.95158267
   0.88886148  0.45112450  0.04890762
   0.77586899  0.88934308  0.95411109
   0.89079132  0.77606510  0.04683061
unknown system                          
           1
     8.301034    4.823430    0.000000
    -8.269856    4.769465    0.000000
     0.000000    0.000000   30.000000
   V    Mo   W    S 
   3   3   3  18
Direct configuration=    19
   0.02682105  0.67663083 -0.00011318
   0.01263397  0.00269593  0.00018761
   0.64725933  0.00064038 -0.00001391
   0.63853592  0.32109989  0.00031491
   0.32662034  0.66710185  0.00012520
   0.34350405  0.00492561 -0.00019452
   1.01508011  0.35241732  0.00069733
   0.35196871  0.33663166 -0.00075826
   0.64116878  0.64167390 -0.00017039
   0.11106238  0.21981817  0.94986247
   0.22022466  0.11075508  0.05155239
   0.10978457  0.56072175  0.94593935
   0.22553105  0.44311988  0.05229874
   0.10853665  0.88611163  0.94923402
   0.22009646  0.77830551  0.05302441
   0.43998972  0.21816450  0.94404145
   0.55746531  0.10776481  0.05432852
   0.43961980  0.55270952  0.94538079
   0.55343092  0.44143812  0.05673250
   0.45036050  0.89149563  0.94691099
   0.55899328  0.78262233  0.05110146
   0.77556050  0.21973384  0.95110682
   0.88605459  0.10853983  0.04694619
   0.78253299  0.55668726  0.95167524
   0.88882282  0.45117548  0.04881445
   0.77581938  0.88928315  0.95421586
   0.89073660  0.77595059  0.04675948
unknown system                          
           1
     8.279543    4.809857    0.000000
    -8.251926    4.762038    0.000000
     0.000000    0.000000   30.000000
   V    Mo   W    S 
   3   3   3  18
Direct configuration=    20
   0.02623022  0.67634859 -0.00006963
   0.01215903  0.00276514  0.00019377
   0.64798234  0.00068153 -0.00003540
   0.63905474  0.32150861  0.00029443
   0.32671145  0.66675742  0.00009896
   0.34329055  0.00496694 -0.00018532
   1.01439395  0.35179114  0.00070254
   0.35195490  0.33690465 -0.00071892
   0.64165287  0.64204510 -0.00017789
   0.11115159  0.21983155  0.94984113
   0.22010468  0.11071799  0.05153804
   0.10965825  0.56057540  0.94596124
   0.22536362  0.44298530  0.05232214
   0.10840516  0.88613809  0.94926449
   0.21995720  0.77819297  0.05301368
   0.44012277  0.21831468  0.94402982
   0.55757725  0.10787824  0.05436680
   0.43978931  0.55283168  0.94533074
   0.55369325  0.44166160  0.05674834
   0.45038198  0.89146308  0.94687211
   0.55898452  0.78254088  0.05116278
   0.77553707  0.21970605  0.95092685
   0.88605272  0.10833366  0.04714459
   0.78244616  0.55666207  0.95149972
   0.88882522  0.45109411  0.04897185
   0.77595528  0.88935000  0.95402780
   0.89077838  0.77616798  0.04687525
unknown system                          
           1
     8.301454    4.824417    0.000000
    -8.269290    4.768750    0.000000
     0.000000    0.000000   30.000000
   V    Mo   W    S 
   3   3   3  18
Direct configuration=    21
   0.02418606  0.67513910  0.00006279
   0.00935624  0.00230142  0.00020675
   0.65068642  0.00126508 -0.00011852
   0.64074443  0.32262633  0.00019171
   0.32696492  0.66593492  0.00002131
   0.34333245  0.00522089 -0.00014720
   1.01115001  0.34959549  0.00071632
   0.35285176  0.33815093 -0.00059304
   0.64346642  0.64323644 -0.00024690
   0.11160307  0.22009458  0.94997744
   0.21984430  0.11071180  0.05132274
   0.10913052  0.56002628  0.94620691
   0.22452909  0.44237766  0.05217137
   0.10803145  0.88610239  0.94952107
   0.21940333  0.77774463  0.05283308
   0.44069728  0.21892438  0.94419093
   0.55793991  0.10810992  0.05420570
   0.44050256  0.55322514  0.94535671
   0.55455153  0.44244780  0.05663618
   0.45063296  0.89152836  0.94701903
   0.55884957  0.78229104  0.05116343
   0.77536651  0.21946674  0.95039013
   0.88596822  0.10778862  0.04778615
   0.78218065  0.55670620  0.95096896
   0.88900091  0.45089338  0.04950071
   0.77624474  0.88953017  0.95337153
   0.89099914  0.77677478  0.04728460
unknown system                          
           1
     8.303578    4.826133    0.000000
    -8.270638    4.769124    0.000000
     0.000000    0.000000   30.000000
   V    Mo   W    S 
   3   3   3  18
Direct configuration=    22
   0.02729172  0.67701724 -0.00010464
   0.01368552  0.00337030  0.00019902
   0.64677689  0.00037763 -0.00002932
   0.63806723  0.32085206  0.00033110
   0.32660112  0.66681504  0.00011836
   0.34324254  0.00493913 -0.00020512
   1.01605060  0.35269901  0.00069192
   0.35149786  0.33654337 -0.00079273
   0.64066498  0.64146943 -0.00014750
   0.11096244  0.21973206  0.94974206
   0.22022781  0.11075683  0.05166194
   0.10981112  0.56070321  0.94588711
   0.22572139  0.44319223  0.05246282
   0.10850248  0.88617194  0.94915591
   0.22026752  0.77833768  0.05306720
   0.43985665  0.21810915  0.94399059
   0.55736314  0.10779654  0.05437524
   0.43954088  0.55266304  0.94527688
   0.55332962  0.44136421  0.05678617
   0.45022255  0.89139646  0.94686243
   0.55897880  0.78253594  0.05116285
   0.77563769  0.21988768  0.95119244
   0.88614491  0.10855978  0.04690625
   0.78251002  0.55662346  0.95173516
   0.88875609  0.45113418  0.04870065
   0.77588347  0.88921321  0.95431281
   0.89061941  0.77595365  0.04666029
unknown system                          
           1
     8.293012    4.818475    0.000000
    -8.261834    4.764510    0.000000
     0.000000    0.000000   30.000000
   V    Mo   W    S 
   3   3   3  18
Direct configuration=    23
   0.02792516  0.67744580 -0.00014312
   0.01492947  0.00389379  0.00019811
   0.64589354  0.00006192 -0.00000914
   0.63743482  0.32051119  0.00036746
   0.32658559  0.66681024  0.00014246
   0.34311991  0.00491434 -0.00022229
   1.01738882  0.35330328  0.00069500
   0.35099562  0.33624156 -0.00081832
   0.63996330  0.64108390 -0.00012465
   0.11079366  0.21962913  0.94963552
   0.22031292  0.11076292  0.05176456
   0.10994430  0.56081959  0.94581135
   0.22599384  0.44339565  0.05257554
   0.10857914  0.88621476  0.94906313
   0.22049218  0.77846255  0.05312046
   0.43963896  0.21793807  0.94393516
   0.55722012  0.10773198  0.05443221
   0.43934647  0.55255179  0.94522628
   0.55304132  0.44113023  0.05681705
   0.45007286  0.89133147  0.94681064
   0.55899253  0.78257232  0.05119412
   0.77572471  0.22001259  0.95137503
   0.88621714  0.10870658  0.04672456
   0.78253296  0.55658332  0.95189477
   0.88869232  0.45111717  0.04850602
   0.77587441  0.88915735  0.95452269
   0.89050841  0.77583098  0.04650530
unknown system                          
           1
     8.292903    4.818250    0.000000
    -8.262200    4.765103    0.000000
     0.000000    0.000000   30.000000
   V    Mo   W    S 
   3   3   3  18
Direct configuration=    24
   0.02582656  0.67603754 -0.00001198
   0.01035878  0.00182574  0.00024392
   0.64808323  0.00128252 -0.00008638
   0.63947803  0.32128579  0.00025234
   0.32693803  0.66709290  0.00011384
   0.34417669  0.00509290 -0.00016097
   1.01289597  0.35168952  0.00080166
   0.35307852  0.33740120 -0.00070030
   0.64196283  0.64202771 -0.00023758
   0.11148512  0.22010535  0.95006066
   0.22004754  0.11083382  0.05136787
   0.10942639  0.56039633  0.94599699
   0.22489486  0.44247646  0.05204307
   0.10841526  0.88605550  0.94936207
   0.21991761  0.77820506  0.05303072
   0.44036935  0.21830971  0.94402454
   0.55782864  0.10780307  0.05421888
   0.44000392  0.55295020  0.94538296
   0.55413856  0.44193202  0.05672259
   0.45091125  0.89171989  0.94700326