   27   27  100    1
  0.9710400E+02  0.1002848E-08  0.1002848E-08  0.3000000E-08  0.5000000E-15
  1.000000000000000E-004
  CAR 
 unknown system                          
    159     34    120
 
  0.0000000E+00  0.0000000E+00  0.0000000E+00  0.1562500E-01
    1      -17.826352   1.000000
    2      -16.767602   1.000000
    3      -16.575026   1.000000
    4      -16.575005   1.000000
    5      -16.497402   1.000000
    6      -16.411036   1.000000
    7      -16.410861   1.000000
    8      -16.405025   1.000000
    9      -16.204276   1.000000
   10      -16.204244   1.000000
   11      -16.052127   1.000000
   12      -15.907764   1.000000
   13      -15.907495   1.000000
   14      -15.616532   1.000000
   15      -15.543978   1.000000
   16      -15.543730   1.000000
   17      -15.249281   1.000000
   18      -15.249083   1.000000
   19       -9.364888   1.000000
   20       -9.141680   1.000000
   21       -8.899601   1.000000
   22       -8.899524   1.000000
   23       -8.755098   1.000000
   24       -8.754994   1.000000
   25       -8.578966   1.000000
   26       -8.578659   1.000000
   27       -8.555751   1.000000
   28       -8.427831   1.000000
   29       -8.427702   1.000000
   30       -8.263464   1.000000
   31       -8.244651   1.000000
   32       -8.244170   1.000000
   33       -8.096403   1.000000
   34       -8.096095   1.000000
   35       -7.720552   1.000000
   36       -7.720400   1.000000
   37       -7.718321   1.000000
   38       -7.520030   1.000000
   39       -7.519895   1.000000
   40       -7.400890   1.000000
   41       -7.231425   1.000000
   42       -7.231228   1.000000
   43       -7.041707   1.000000
   44       -6.894556   1.000000
   45       -6.894481   1.000000
   46       -6.880900   1.000000
   47       -6.711871   1.000000
   48       -6.678204   1.000000
   49       -6.677943   1.000000
   50       -6.522862   1.000000
   51       -6.522839   1.000000
   52       -6.194496   1.000000
   53       -6.185684   1.000000
   54       -6.185605   1.000000
   55       -6.144683   1.000000
   56       -6.028737   1.000000
   57       -5.951217   1.000000
   58       -5.951079   1.000000
   59       -5.820373   1.000000
   60       -5.820303   1.000000
   61       -5.664063   1.000000
   62       -5.317639   1.000000
   63       -5.317320   1.000000
   64       -5.007229   1.000000
   65       -5.006961   1.000000
   66       -4.962744   1.000000
   67       -4.744232   1.000000
   68       -4.744086   1.000000
   69       -4.691288   1.000000
   70       -4.690657   1.000000
   71       -4.655550   1.000000
   72       -4.655190   1.000000
   73       -4.591065   1.000000
   74       -4.392692   1.000000
   75       -4.392565   1.000000
   76       -4.095482   1.000000
   77       -3.792059   0.999949
   78       -3.717070   0.999606
   79       -3.432952   0.911191
   80       -3.155894   0.270610
   81       -3.148390   0.253335
   82       -2.834588   0.001970
   83       -2.834471   0.001965
   84       -2.477707   0.000000
   85       -2.477559   0.000000
   86       -2.408021   0.000000
   87       -2.407593   0.000000
   88       -2.285899   0.000000
   89       -2.215792   0.000000
   90       -2.040738   0.000000
   91       -2.040114   0.000000
   92       -1.533213   0.000000
   93       -1.533065   0.000000
   94       -1.074557   0.000000
   95       -1.042488   0.000000
   96       -1.042475   0.000000
   97       -0.976176   0.000000
   98       -0.867879   0.000000
   99       -0.867767   0.000000
  100       -0.621294   0.000000
  101       -0.620575   0.000000
  102       -0.544127   0.000000
  103       -0.327244   0.000000
  104       -0.326880   0.000000
  105       -0.081869   0.000000
  106       -0.038698   0.000000
  107        0.047209   0.000000
  108        0.047297   0.000000
  109        0.079038   0.000000
  110        0.096764   0.000000
  111        0.097051   0.000000
  112        0.803040   0.000000
  113        0.803558   0.000000
  114        0.803643   0.000000
  115        0.884094   0.000000
  116        1.033256   0.000000
  117        1.033339   0.000000
  118        1.662095   0.000000
  119        1.857262   0.000000
  120        2.186949   0.000000
 
  0.1250000E+00  0.2775558E-16  0.0000000E+00  0.3125000E-01
    1      -17.802754   1.000000
    2      -16.804819   1.000000
    3      -16.618159   1.000000
    4      -16.607799   1.000000
    5      -16.607687   1.000000
    6      -16.382793   1.000000
    7      -16.382614   1.000000
    8      -16.332073   1.000000
    9      -16.190959   1.000000
   10      -16.190885   1.000000
   11      -15.984455   1.000000
   12      -15.895986   1.000000
   13      -15.895730   1.000000
   14      -15.612251   1.000000
   15      -15.561489   1.000000
   16      -15.561243   1.000000
   17      -15.252363   1.000000
   18      -15.252157   1.000000
   19       -9.412571   1.000000
   20       -9.159834   1.000000
   21       -8.992361   1.000000
   22       -8.992214   1.000000
   23       -8.804887   1.000000
   24       -8.804713   1.000000
   25       -8.674866   1.000000
   26       -8.535232   1.000000
   27       -8.535056   1.000000
   28       -8.407876   1.000000
   29       -8.407727   1.000000
   30       -8.202841   1.000000
   31       -8.202623   1.000000
   32       -8.052175   1.000000
   33       -8.015733   1.000000
   34       -8.015265   1.000000
   35       -7.692727   1.000000
   36       -7.673107   1.000000
   37       -7.672848   1.000000
   38       -7.535020   1.000000
   39       -7.534904   1.000000
   40       -7.478139   1.000000
   41       -7.214623   1.000000
   42       -7.214352   1.000000
   43       -7.044316   1.000000
   44       -6.992567   1.000000
   45       -6.992453   1.000000
   46       -6.887745   1.000000
   47       -6.703487   1.000000
   48       -6.612660   1.000000
   49       -6.612441   1.000000
   50       -6.481619   1.000000
   51       -6.481459   1.000000
   52       -6.319960   1.000000
   53       -6.211045   1.000000
   54       -6.210790   1.000000
   55       -6.035142   1.000000
   56       -6.034914   1.000000
   57       -6.019992   1.000000
   58       -5.966629   1.000000
   59       -5.737394   1.000000
   60       -5.737330   1.000000
   61       -5.658547   1.000000
   62       -5.420256   1.000000
   63       -5.420026   1.000000
   64       -5.099584   1.000000
   65       -5.099216   1.000000
   66       -4.975900   1.000000
   67       -4.749877   1.000000
   68       -4.749550   1.000000
   69       -4.728241   1.000000
   70       -4.597938   1.000000
   71       -4.565164   1.000000
   72       -4.564934   1.000000
   73       -4.554998   1.000000
   74       -4.370473   1.000000
   75       -4.370325   1.000000
   76       -4.124528   1.000000
   77       -3.857820   0.999993
   78       -3.783622   0.999935
   79       -3.469237   0.945720
   80       -3.121750   0.196994
   81       -3.115558   0.185077
   82       -2.800145   0.000885
   83       -2.800028   0.000882
   84       -2.481560   0.000000
   85       -2.481394   0.000000
   86       -2.389102   0.000000
   87       -2.388721   0.000000
   88       -2.235750   0.000000
   89       -2.196972   0.000000
   90       -2.042619   0.000000
   91       -2.042025   0.000000
   92       -1.528080   0.000000
   93       -1.527912   0.000000
   94       -1.099047   0.000000
   95       -1.047321   0.000000
   96       -1.047258   0.000000
   97       -0.987067   0.000000
   98       -0.854017   0.000000
   99       -0.853928   0.000000
  100       -0.705212   0.000000
  101       -0.704640   0.000000
  102       -0.664729   0.000000
  103       -0.419740   0.000000
  104       -0.419504   0.000000
  105       -0.063834   0.000000
  106       -0.019660   0.000000
  107        0.022865   0.000000
  108        0.023001   0.000000
  109        0.087440   0.000000
  110        0.145530   0.000000
  111        0.145792   0.000000
  112        0.801994   0.000000
  113        0.861754   0.000000
  114        0.865517   0.000000
  115        0.865603   0.000000
  116        1.015350   0.000000
  117        1.015464   0.000000
  118        1.704480   0.000000
  119        1.898406   0.000000
  120        2.221730   0.000000
 
  0.2500000E+00  0.5551115E-16  0.0000000E+00  0.3125000E-01
    1      -17.734528   1.000000
    2      -16.965579   1.000000
    3      -16.673263   1.000000
    4      -16.660608   1.000000
    5      -16.660494   1.000000
    6      -16.350635   1.000000
    7      -16.350518   1.000000
    8      -16.311503   1.000000
    9      -16.145044   1.000000
   10      -16.144872   1.000000
   11      -15.865131   1.000000
   12      -15.864935   1.000000
   13      -15.842483   1.000000
   14      -15.608956   1.000000
   15      -15.608721   1.000000
   16      -15.601350   1.000000
   17      -15.260994   1.000000
   18      -15.260771   1.000000
   19       -9.586743   1.000000
   20       -9.144747   1.000000
   21       -9.144568   1.000000
   22       -9.137569   1.000000
   23       -8.893973   1.000000
   24       -8.893783   1.000000
   25       -8.676033   1.000000
   26       -8.463265   1.000000
   27       -8.463191   1.000000
   28       -8.350116   1.000000
   29       -8.349928   1.000000
   30       -8.189400   1.000000
   31       -8.189251   1.000000
   32       -8.003317   1.000000
   33       -7.814683   1.000000
   34       -7.814376   1.000000
   35       -7.647407   1.000000
   36       -7.647059   1.000000
   37       -7.643157   1.000000
   38       -7.526739   1.000000
   39       -7.455331   1.000000
   40       -7.455242   1.000000
   41       -7.231474   1.000000
   42       -7.231291   1.000000
   43       -7.057735   1.000000
   44       -7.057522   1.000000
   45       -6.989353   1.000000
   46       -6.903373   1.000000
   47       -6.683184   1.000000
   48       -6.606446   1.000000
   49       -6.606118   1.000000
   50       -6.382982   1.000000
   51       -6.382799   1.000000
   52       -6.356263   1.000000
   53       -6.240375   1.000000
   54       -6.240077   1.000000
   55       -6.098480   1.000000
   56       -6.098306   1.000000
   57       -6.001143   1.000000
   58       -5.874123   1.000000
   59       -5.715173   1.000000
   60       -5.715113   1.000000
   61       -5.597895   1.000000
   62       -5.597754   1.000000
   63       -5.537873   1.000000
   64       -5.322150   1.000000
   65       -5.321827   1.000000
   66       -4.983493   1.000000
   67       -4.773857   1.000000
   68       -4.684368   1.000000
   69       -4.684067   1.000000
   70       -4.505523   1.000000
   71       -4.484349   1.000000
   72       -4.484273   1.000000
   73       -4.482061   1.000000
   74       -4.301321   1.000000
   75       -4.301164   1.000000
   76       -4.267172   1.000000
   77       -3.941513   1.000000
   78       -3.927135   0.999999
   79       -3.489131   0.959540
   80       -3.073634   0.116505
   81       -3.055930   0.093782
   82       -2.734703   0.000166
   83       -2.734602   0.000165
   84       -2.488519   0.000000
   85       -2.488287   0.000000
   86       -2.330550   0.000000
   87       -2.330240   0.000000
   88       -2.136394   0.000000
   89       -2.115132   0.000000
   90       -2.035952   0.000000
   91       -2.035417   0.000000
   92       -1.526814   0.000000
   93       -1.526679   0.000000
   94       -1.214497   0.000000
   95       -1.057661   0.000000
   96       -1.057528   0.000000
   97       -1.019153   0.000000
   98       -0.879903   0.000000
   99       -0.879402   0.000000
  100       -0.829146   0.000000
  101       -0.828910   0.000000
  102       -0.823933   0.000000
  103       -0.582515   0.000000
  104       -0.582354   0.000000
  105       -0.115329   0.000000
  106       -0.059125   0.000000
  107       -0.059019   0.000000
  108        0.007986   0.000000
  109        0.099150   0.000000
  110        0.216064   0.000000
  111        0.216321   0.000000
  112        0.799297   0.000000
  113        0.839303   0.000000
  114        0.903870   0.000000
  115        0.903951   0.000000
  116        1.078684   0.000000
  117        1.078712   0.000000
  118        1.822867   0.000000
  119        2.014632   0.000000
  120        2.324254   0.000000
 
  0.3750000E+00  0.0000000E+00  0.0000000E+00  0.3125000E-01
    1      -17.634323   1.000000
    2      -17.157689   1.000000
    3      -16.698679   1.000000
    4      -16.698591   1.000000
    5      -16.675488   1.000000
    6      -16.340380   1.000000
    7      -16.340292   1.000000
    8      -16.318735   1.000000
    9      -16.084691   1.000000
   10      -16.084433   1.000000
   11      -15.824340   1.000000
   12      -15.824233   1.000000
   13      -15.728285   1.000000
   14      -15.671955   1.000000
   15      -15.671777   1.000000
   16      -15.587733   1.000000
   17      -15.271309   1.000000
   18      -15.271073   1.000000
   19       -9.761461   1.000000
   20       -9.255154   1.000000
   21       -9.254953   1.000000
   22       -9.071023   1.000000
   23       -8.963539   1.000000
   24       -8.963337   1.000000
   25       -8.578383   1.000000
   26       -8.403797   1.000000
   27       -8.403746   1.000000
   28       -8.270971   1.000000
   29       -8.270785   1.000000
   30       -8.185949   1.000000
   31       -8.185813   1.000000
   32       -8.131777   1.000000
   33       -7.831704   1.000000
   34       -7.831521   1.000000
   35       -7.777622   1.000000
   36       -7.514123   1.000000
   37       -7.513958   1.000000
   38       -7.493144   1.000000
   39       -7.345319   1.000000
   40       -7.345084   1.000000
   41       -7.234876   1.000000
   42       -7.234772   1.000000
   43       -7.029420   1.000000
   44       -7.029090   1.000000
   45       -6.917760   1.000000
   46       -6.738330   1.000000
   47       -6.662230   1.000000
   48       -6.599457   1.000000
   49       -6.599118   1.000000
   50       -6.385815   1.000000
   51       -6.375352   1.000000
   52       -6.374962   1.000000
   53       -6.268713   1.000000
   54       -6.268536   1.000000
   55       -6.076637   1.000000
   56       -6.076474   1.000000
   57       -5.985741   1.000000
   58       -5.832023   1.000000
   59       -5.831954   1.000000
   60       -5.739277   1.000000
   61       -5.718241   1.000000
   62       -5.717947   1.000000
   63       -5.495191   1.000000
   64       -5.494817   1.000000
   65       -5.400437   1.000000
   66       -4.996264   1.000000
   67       -4.793272   1.000000
   68       -4.767911   1.000000
   69       -4.637177   1.000000
   70       -4.637029   1.000000
   71       -4.470351   1.000000
   72       -4.433242   1.000000
   73       -4.433222   1.000000
   74       -4.228048   1.000000
   75       -4.227859   1.000000
   76       -4.218056   1.000000
   77       -4.062519   1.000000
   78       -3.943230   1.000000
   79       -3.467478   0.944337
   80       -3.053831   0.091321
   81       -3.001784   0.044501
   82       -2.691450   0.000049
   83       -2.691386   0.000049
   84       -2.499583   0.000000
   85       -2.499318   0.000000
   86       -2.237325   0.000000
   87       -2.237042   0.000000
   88       -2.035046   0.000000
   89       -2.020386   0.000000
   90       -2.019880   0.000000
   91       -1.990944   0.000000
   92       -1.544505   0.000000
   93       -1.544361   0.000000
   94       -1.421991   0.000000
   95       -1.081666   0.000000
   96       -1.081268   0.000000
   97       -1.062143   0.000000
   98       -1.016987   0.000000
   99       -1.016883   0.000000
  100       -0.884652   0.000000
  101       -0.855991   0.000000
  102       -0.855884   0.000000
  103       -0.651025   0.000000
  104       -0.650936   0.000000
  105       -0.165920   0.000000
  106       -0.165809   0.000000
  107       -0.160353   0.000000
  108       -0.042691   0.000000
  109        0.105633   0.000000
  110        0.251547   0.000000
  111        0.251772   0.000000
  112        0.796504   0.000000
  113        0.842180   0.000000
  114        0.879886   0.000000
  115        0.879945   0.000000
  116        1.204283   0.000000
  117        1.204322   0.000000
  118        2.000248   0.000000
  119        2.189320   0.000000
  120        2.370071   0.000000
 
  0.5000000E+00  0.1110223E-15  0.0000000E+00  0.1562500E-01
    1      -17.565436   1.000000
    2      -17.260253   1.000000
    3      -16.712142   1.000000
    4      -16.712070   1.000000
    5      -16.673466   1.000000
    6      -16.338982   1.000000
    7      -16.338898   1.000000
    8      -16.323970   1.000000
    9      -16.056157   1.000000
   10      -16.055852   1.000000
   11      -15.794526   1.000000
   12      -15.794320   1.000000
   13      -15.713478   1.000000
   14      -15.713427   1.000000
   15      -15.688349   1.000000
   16      -15.579644   1.000000
   17      -15.276090   1.000000
   18      -15.275851   1.000000
   19       -9.828744   1.000000
   20       -9.294149   1.000000
   21       -9.293946   1.000000
   22       -9.033617   1.000000
   23       -8.989008   1.000000
   24       -8.988808   1.000000
   25       -8.515423   1.000000
   26       -8.381156   1.000000
   27       -8.381109   1.000000
   28       -8.222262   1.000000
   29       -8.222087   1.000000
   30       -8.192775   1.000000
   31       -8.184655   1.000000
   32       -8.184581   1.000000
   33       -7.881883   1.000000
   34       -7.881761   1.000000
   35       -7.880583   1.000000
   36       -7.483109   1.000000
   37       -7.482948   1.000000
   38       -7.470807   1.000000
   39       -7.301092   1.000000
   40       -7.301063   1.000000
   41       -7.154351   1.000000
   42       -7.154112   1.000000
   43       -7.037051   1.000000
   44       -7.036839   1.000000
   45       -6.923503   1.000000
   46       -6.653314   1.000000
   47       -6.639996   1.000000
   48       -6.543086   1.000000
   49       -6.542905   1.000000
   50       -6.436439   1.000000
   51       -6.436181   1.000000
   52       -6.365082   1.000000
   53       -6.241248   1.000000
   54       -6.241175   1.000000
   55       -6.141410   1.000000
   56       -6.141068   1.000000
   57       -5.980531   1.000000
   58       -5.851346   1.000000
   59       -5.851315   1.000000
   60       -5.765918   1.000000
   61       -5.765589   1.000000
   62       -5.594890   1.000000
   63       -5.561770   1.000000
   64       -5.561394   1.000000
   65       -5.318271   1.000000
   66       -5.147547   1.000000
   67       -4.906483   1.000000
   68       -4.795335   1.000000
   69       -4.624661   1.000000
   70       -4.624560   1.000000
   71       -4.456526   1.000000
   72       -4.410115   1.000000
   73       -4.410080   1.000000
   74       -4.199348   1.000000
   75       -4.199160   1.000000
   76       -4.176042   1.000000
   77       -4.119839   1.000000
   78       -3.933884   0.999999
   79       -3.448703   0.927786
   80       -3.050004   0.086959
   81       -2.981312   0.032486
   82       -2.678081   0.000033
   83       -2.678035   0.000033
   84       -2.504852   0.000000
   85       -2.504585   0.000000
   86       -2.186446   0.000000
   87       -2.186141   0.000000
   88       -2.013059   0.000000
   89       -2.012552   0.000000
   90       -1.960700   0.000000
   91       -1.936845   0.000000
   92       -1.561004   0.000000
   93       -1.560832   0.000000
   94       -1.546882   0.000000
   95       -1.103877   0.000000
   96       -1.103367   0.000000
   97       -1.084607   0.000000
   98       -1.063349   0.000000
   99       -1.063094   0.000000
  100       -0.896833   0.000000
  101       -0.881026   0.000000
  102       -0.880808   0.000000
  103       -0.647880   0.000000
  104       -0.647827   0.000000
  105       -0.217143   0.000000
  106       -0.217022   0.000000
  107       -0.177821   0.000000
  108       -0.075661   0.000000
  109        0.107460   0.000000
  110        0.258873   0.000000
  111        0.259079   0.000000
  112        0.795258   0.000000
  113        0.845278   0.000000
  114        0.871943   0.000000
  115        0.871984   0.000000
  116        1.255214   0.000000
  117        1.255247   0.000000
  118        2.194191   0.000000
  119        2.241349   0.000000
  120        2.368374   0.000000
 
  0.0000000E+00  0.1250000E+00  0.0000000E+00  0.3125000E-01
    1      -17.800113   1.000000
    2      -16.767660   1.000000
    3      -16.763297   1.000000
    4      -16.536041   1.000000
    5      -16.508471   1.000000
    6      -16.424394   1.000000
    7      -16.358414   1.000000
    8      -16.350410   1.000000
    9      -16.327636   1.000000
   10      -16.028812   1.000000
   11      -16.027275   1.000000
   12      -15.977581   1.000000
   13      -15.829866   1.000000
   14      -15.608951   1.000000
   15      -15.560470   1.000000
   16      -15.540954   1.000000
   17      -15.294650   1.000000
   18      -15.229728   1.000000
   19       -9.346028   1.000000
   20       -9.205421   1.000000
   21       -9.122625   1.000000
   22       -8.977435   1.000000
   23       -8.811183   1.000000
   24       -8.656825   1.000000
   25       -8.599274   1.000000
   26       -8.588726   1.000000
   27       -8.513612   1.000000
   28       -8.503930   1.000000
   29       -8.416928   1.000000
   30       -8.285390   1.000000
   31       -8.171974   1.000000
   32       -8.074778   1.000000
   33       -7.972363   1.000000
   34       -7.864621   1.000000
   35       -7.859293   1.000000
   36       -7.730605   1.000000
   37       -7.688619   1.000000
   38       -7.495072   1.000000
   39       -7.436083   1.000000
   40       -7.415123   1.000000
   41       -7.298999   1.000000
   42       -7.209525   1.000000
   43       -7.099068   1.000000
   44       -6.939035   1.000000
   45       -6.874441   1.000000
   46       -6.872352   1.000000
   47       -6.792303   1.000000
   48       -6.747217   1.000000
   49       -6.601061   1.000000
   50       -6.511448   1.000000
   51       -6.480475   1.000000
   52       -6.238921   1.000000
   53       -6.216102   1.000000
   54       -6.164818   1.000000
   55       -6.076836   1.000000
   56       -6.065433   1.000000
   57       -5.987651   1.000000
   58       -5.882644   1.000000
   59       -5.858507   1.000000
   60       -5.644605   1.000000
   61       -5.638269   1.000000
   62       -5.344361   1.000000
   63       -5.332528   1.000000
   64       -5.189748   1.000000
   65       -5.082480   1.000000
   66       -4.973121   1.000000
   67       -4.948978   1.000000
   68       -4.882941   1.000000
   69       -4.705999   1.000000
   70       -4.641668   1.000000
   71       -4.565783   1.000000
   72       -4.463822   1.000000
   73       -4.419382   1.000000
   74       -4.397244   1.000000
   75       -4.349034   1.000000
   76       -4.045585   1.000000
   77       -3.857191   0.999993
   78       -3.754308   0.999853
   79       -3.430169   0.907985
   80       -3.385290   0.844017
   81       -2.924635   0.012345
   82       -2.866437   0.003933
   83       -2.766141   0.000380
   84       -2.710466   0.000085
   85       -2.466214   0.000000
   86       -2.465338   0.000000
   87       -2.288468   0.000000
   88       -2.170170   0.000000
   89       -2.169318   0.000000
   90       -2.072255   0.000000
   91       -1.980231   0.000000
   92       -1.712308   0.000000
   93       -1.373060   0.000000
   94       -1.070166   0.000000
   95       -1.016013   0.000000
   96       -1.007270   0.000000
   97       -0.993898   0.000000
   98       -0.913174   0.000000
   99       -0.876712   0.000000
  100       -0.684472   0.000000
  101       -0.618352   0.000000
  102       -0.599957   0.000000
  103       -0.477407   0.000000
  104       -0.289438   0.000000
  105       -0.183158   0.000000
  106       -0.163202   0.000000
  107       -0.018465   0.000000
  108        0.031443   0.000000
  109        0.057455   0.000000
  110        0.126482   0.000000
  111        0.329040   0.000000
  112        0.677065   0.000000
  113        0.737431   0.000000
  114        0.797644   0.000000
  115        0.901955   0.000000
  116        0.982975   0.000000
  117        1.297173   0.000000
  118        1.707233   0.000000
  119        1.895575   0.000000
  120        2.222680   0.000000
 
  0.1250000E+00  0.1250000E+00  0.0000000E+00  0.3125000E-01
    1      -17.753672   1.000000
    2      -16.856260   1.000000
    3      -16.835936   1.000000
    4      -16.651200   1.000000
    5      -16.451630   1.000000
    6      -16.431889   1.000000
    7      -16.321642   1.000000
    8      -16.305287   1.000000
    9      -16.304658   1.000000
   10      -16.033844   1.000000
   11      -15.961759   1.000000
   12      -15.908932   1.000000
   13      -15.798218   1.000000
   14      -15.606598   1.000000
   15      -15.601025   1.000000
   16      -15.558233   1.000000
   17      -15.305381   1.000000
   18      -15.230272   1.000000
   19       -9.460755   1.000000
   20       -9.333266   1.000000
   21       -9.132703   1.000000
   22       -9.049136   1.000000
   23       -8.903755   1.000000
   24       -8.683978   1.000000
   25       -8.636147   1.000000
   26       -8.553558   1.000000
   27       -8.485391   1.000000
   28       -8.428816   1.000000
   29       -8.375296   1.000000
   30       -8.224906   1.000000
   31       -8.127114   1.000000
   32       -7.974251   1.000000
   33       -7.933998   1.000000
   34       -7.855360   1.000000
   35       -7.673304   1.000000
   36       -7.668808   1.000000
   37       -7.662539   1.000000
   38       -7.536307   1.000000
   39       -7.457577   1.000000
   40       -7.427506   1.000000
   41       -7.216691   1.000000
   42       -7.199311   1.000000
   43       -7.121914   1.000000
   44       -7.005617   1.000000
   45       -6.974277   1.000000
   46       -6.897616   1.000000
   47       -6.725415   1.000000
   48       -6.723794   1.000000
   49       -6.553319   1.000000
   50       -6.432493   1.000000
   51       -6.393925   1.000000
   52       -6.298214   1.000000
   53       -6.264282   1.000000
   54       -6.242475   1.000000
   55       -6.051535   1.000000
   56       -6.043503   1.000000
   57       -6.026196   1.000000
   58       -5.869331   1.000000
   59       -5.819948   1.000000
   60       -5.599453   1.000000
   61       -5.567404   1.000000
   62       -5.535432   1.000000
   63       -5.497132   1.000000
   64       -5.248972   1.000000
   65       -5.178951   1.000000
   66       -5.089447   1.000000
   67       -4.887404   1.000000
   68       -4.859568   1.000000
   69       -4.640070   1.000000
   70       -4.546522   1.000000
   71       -4.545352   1.000000
   72       -4.395356   1.000000
   73       -4.379363   1.000000
   74       -4.360209   1.000000
   75       -4.282499   1.000000
   76       -4.144158   1.000000
   77       -4.006123   1.000000
   78       -3.831315   0.999984
   79       -3.454992   0.933706
   80       -3.288115   0.627020
   81       -2.906165   0.008731
   82       -2.812376   0.001183
   83       -2.715855   0.000099
   84       -2.704295   0.000071
   85       -2.450312   0.000000
   86       -2.441279   0.000000
   87       -2.197433   0.000000
   88       -2.156463   0.000000
   89       -2.135236   0.000000
   90       -2.072516   0.000000
   91       -1.976237   0.000000
   92       -1.698624   0.000000
   93       -1.368090   0.000000
   94       -1.138745   0.000000
   95       -1.051618   0.000000
   96       -1.014310   0.000000
   97       -0.999294   0.000000
   98       -0.904681   0.000000
   99       -0.893698   0.000000
  100       -0.792442   0.000000
  101       -0.753857   0.000000
  102       -0.747247   0.000000
  103       -0.572856   0.000000
  104       -0.456456   0.000000
  105       -0.156519   0.000000
  106       -0.148555   0.000000
  107       -0.020192   0.000000
  108        0.064084   0.000000
  109        0.084684   0.000000
  110        0.093278   0.000000
  111        0.308693   0.000000
  112        0.734958   0.000000
  113        0.786553   0.000000
  114        0.860526   0.000000
  115        0.877313   0.000000
  116        0.988977   0.000000
  117        1.298773   0.000000
  118        1.787840   0.000000
  119        1.974731   0.000000
  120        2.291787   0.000000
 
  0.2500000E+00  0.1250000E+00  0.0000000E+00  0.3125000E-01
    1      -17.666867   1.000000
    2      -17.047850   1.000000
    3      -16.897801   1.000000
    4      -16.669341   1.000000
    5      -16.478465   1.000000
    6      -16.406584   1.000000
    7      -16.304863   1.000000
    8      -16.286589   1.000000
    9      -16.216540   1.000000
   10      -16.032953   1.000000
   11      -15.936162   1.000000
   12      -15.771025   1.000000
   13      -15.760460   1.000000
   14      -15.690630   1.000000
   15      -15.588599   1.000000
   16      -15.581442   1.000000
   17      -15.321078   1.000000
   18      -15.232674   1.000000
   19       -9.656593   1.000000
   20       -9.451747   1.000000
   21       -9.169022   1.000000
   22       -9.079931   1.000000
   23       -8.980629   1.000000
   24       -8.681432   1.000000
   25       -8.617715   1.000000
   26       -8.462788   1.000000
   27       -8.384214   1.000000
   28       -8.350704   1.000000
   29       -8.332228   1.000000
   30       -8.184071   1.000000
   31       -8.182097   1.000000
   32       -8.064279   1.000000
   33       -7.932341   1.000000
   34       -7.822720   1.000000
   35       -7.710583   1.000000
   36       -7.617591   1.000000
   37       -7.516889   1.000000
   38       -7.490458   1.000000
   39       -7.427917   1.000000
   40       -7.378592   1.000000
   41       -7.250484   1.000000
   42       -7.091101   1.000000
   43       -7.067458   1.000000
   44       -7.021594   1.000000
   45       -6.929644   1.000000
   46       -6.856894   1.000000
   47       -6.723801   1.000000