       N       E                     dE             d eps       ncg     rms          rms(c)
DAV:   1     0.112436271747E+04    0.11244E+04   -0.35861E+04  8160   0.577E+02
DAV:   2    -0.269728806932E+01   -0.11271E+04   -0.10856E+04 11120   0.173E+02
DAV:   3    -0.200027424750E+03   -0.19733E+03   -0.18943E+03 10960   0.820E+01
DAV:   4    -0.209074453895E+03   -0.90470E+01   -0.87594E+01 12000   0.258E+01
DAV:   5    -0.209405236164E+03   -0.33078E+00   -0.32986E+00 11680   0.371E+00    0.278E+01
DAV:   6    -0.241876778112E+03   -0.32472E+02   -0.11287E+02 12560   0.599E+01    0.609E+01
DAV:   7    -0.196046571504E+03    0.45830E+02   -0.17976E+02 13240   0.150E+02    0.197E+01
DAV:   8    -0.189231855791E+03    0.68147E+01   -0.18888E+01 12080   0.125E+01    0.121E+01
DAV:   9    -0.188026200835E+03    0.12057E+01   -0.28660E+00 13280   0.618E+00    0.871E+00
DAV:  10    -0.186930990259E+03    0.10952E+01   -0.15361E+00 13480   0.694E+00    0.203E+00
DAV:  11    -0.186915091287E+03    0.15899E-01   -0.37942E-01 13520   0.187E+00    0.268E+00
DAV:  12    -0.186841857918E+03    0.73233E-01   -0.21999E-01 13560   0.284E+00    0.112E+00
DAV:  13    -0.186837063887E+03    0.47940E-02   -0.28130E-02 13440   0.832E-01    0.989E-01
DAV:  14    -0.186828303737E+03    0.87601E-02   -0.19529E-02 13240   0.731E-01    0.210E-01
DAV:  15    -0.186827972949E+03    0.33079E-03   -0.36192E-03 12640   0.232E-01    0.259E-01
DAV:  16    -0.186827359642E+03    0.61331E-03   -0.25838E-03 12280   0.262E-01    0.187E-01
DAV:  17    -0.186827289413E+03    0.70228E-04   -0.13684E-03 10720   0.170E-01    0.124E-01
DAV:  18    -0.186827377966E+03   -0.88553E-04   -0.83582E-04 10040   0.819E-02
   1 F= -.18682738E+03 E0= -.18665478E+03  d E =-.186827E+03
       N       E                     dE             d eps       ncg     rms          rms(c)
DAV:   1    -0.187514038370E+03   -0.68675E+00   -0.27392E+02  8160   0.351E+01    0.467E+00
DAV:   2    -0.189594251791E+03   -0.20802E+01   -0.20321E+01 11960   0.157E+01    0.102E+01
DAV:   3    -0.189298315849E+03    0.29594E+00   -0.42510E+00 12440   0.123E+01    0.631E+00
DAV:   4    -0.188758049688E+03    0.54027E+00   -0.59671E-01 12600   0.419E+00    0.171E+00
DAV:   5    -0.188726429314E+03    0.31620E-01   -0.26133E-01 10600   0.137E+00    0.162E+00
DAV:   6    -0.188690995022E+03    0.35434E-01   -0.18410E-01 11760   0.149E+00    0.995E-01
DAV:   7    -0.188690287395E+03    0.70763E-03   -0.83807E-02 11280   0.147E+00    0.160E+00
DAV:   8    -0.188672061515E+03    0.18226E-01   -0.40281E-02 11920   0.107E+00    0.289E-01
DAV:   9    -0.188672915524E+03   -0.85401E-03   -0.56969E-03 11960   0.385E-01    0.472E-01
DAV:  10    -0.188671335021E+03    0.15805E-02   -0.44072E-03 12480   0.365E-01    0.152E-01
DAV:  11    -0.188671484444E+03   -0.14942E-03   -0.11976E-03 10600   0.124E-01    0.103E-01
DAV:  12    -0.188671477684E+03    0.67599E-05   -0.54955E-04 10040   0.703E-02
   2 F= -.18867148E+03 E0= -.18853024E+03  d E =-.184410E+01
       N       E                     dE             d eps       ncg     rms          rms(c)
DAV:   1    -0.190612177402E+03   -0.19407E+01   -0.31384E+01  9200   0.142E+01    0.444E+00
DAV:   2    -0.190540994865E+03    0.71183E-01   -0.27455E+00 12400   0.905E+00    0.722E+00
DAV:   3    -0.190109299062E+03    0.43170E+00   -0.14454E+00 12360   0.836E+00    0.437E+00
DAV:   4    -0.189877829140E+03    0.23147E+00   -0.68361E-01 12920   0.429E+00    0.242E+00
DAV:   5    -0.189787343448E+03    0.90486E-01   -0.27963E-01 11880   0.184E+00    0.719E-01
DAV:   6    -0.189776011609E+03    0.11332E-01   -0.32800E-02 10680   0.612E-01    0.224E-01
DAV:   7    -0.189777043370E+03   -0.10318E-02   -0.65123E-03 11400   0.364E-01    0.369E-01
DAV:   8    -0.189776169188E+03    0.87418E-03   -0.28049E-03 11320   0.325E-01    0.167E-01
DAV:   9    -0.189776429805E+03   -0.26062E-03   -0.94207E-04 10160   0.131E-01    0.121E-01
DAV:  10    -0.189776226318E+03    0.20349E-03   -0.50091E-04  9000   0.806E-02    0.385E-02
DAV:  11    -0.189776331572E+03   -0.10525E-03   -0.21532E-04  6480   0.902E-02    0.958E-02
DAV:  12    -0.189776264179E+03    0.67394E-04   -0.14402E-04  6080   0.788E-02
   3 F= -.18977626E+03 E0= -.18965702E+03  d E =-.110479E+01
       N       E                     dE             d eps       ncg     rms          rms(c)
DAV:   1    -0.191404594250E+03   -0.16283E+01   -0.79747E+01  8160   0.203E+01    0.462E+00
DAV:   2    -0.191127002193E+03    0.27759E+00   -0.53683E+00 13400   0.656E+00    0.358E+00
DAV:   3    -0.191366089234E+03   -0.23909E+00   -0.13670E+00 12360   0.835E+00    0.687E+00
DAV:   4    -0.190964787774E+03    0.40130E+00   -0.13829E+00 12240   0.818E+00    0.295E+00
DAV:   5    -0.190832003334E+03    0.13278E+00   -0.27597E-01 12440   0.227E+00    0.795E-01
DAV:   6    -0.190821454480E+03    0.10549E-01   -0.58197E-02 11040   0.914E-01    0.516E-01
DAV:   7    -0.190823840337E+03   -0.23859E-02   -0.25904E-02 11640   0.951E-01    0.813E-01
DAV:   8    -0.190817498493E+03    0.63418E-02   -0.10454E-02 11960   0.671E-01    0.156E-01
DAV:   9    -0.190817674722E+03   -0.17623E-03   -0.19653E-03 11040   0.144E-01    0.906E-02
DAV:  10    -0.190817970751E+03   -0.29603E-03   -0.10477E-03 10680   0.209E-01    0.189E-01
DAV:  11    -0.190817645436E+03    0.32531E-03   -0.54451E-04  8240   0.151E-01    0.220E-02
DAV:  12    -0.190817674094E+03   -0.28657E-04   -0.52707E-05  5840   0.260E-02
   4 F= -.19081767E+03 E0= -.19071846E+03  d E =-.104141E+01
       N       E                     dE             d eps       ncg     rms          rms(c)
DAV:   1    -0.192348661167E+03   -0.15310E+01   -0.18788E+02  8160   0.304E+01    0.597E+00
DAV:   2    -0.192117581049E+03    0.23108E+00   -0.10501E+01 11400   0.786E+00    0.392E+00
DAV:   3    -0.192434669221E+03   -0.31709E+00   -0.25948E+00 12640   0.994E+00    0.683E+00
DAV:   4    -0.191736833486E+03    0.69784E+00   -0.85013E-01 12280   0.793E+00    0.200E+00
DAV:   5    -0.191639194421E+03    0.97639E-01   -0.29288E-01 12360   0.235E+00    0.868E-01
DAV:   6    -0.191634513614E+03    0.46808E-02   -0.76395E-02 13000   0.119E+00    0.507E-01
DAV:   7    -0.191627799662E+03    0.67140E-02   -0.13737E-02 10760   0.471E-01    0.163E-01
DAV:   8    -0.191629874467E+03   -0.20748E-02   -0.60811E-03 12520   0.460E-01    0.454E-01
DAV:   9    -0.191627956641E+03    0.19178E-02   -0.44292E-03 11680   0.443E-01    0.819E-02
DAV:  10    -0.191627943496E+03    0.13145E-04   -0.21808E-04  6840   0.787E-02
   5 F= -.19162794E+03 E0= -.19154405E+03  d E =-.810269E+00
       N       E                     dE             d eps       ncg     rms          rms(c)
DAV:   1    -0.191745213969E+03   -0.11726E+00   -0.92302E+00  8160   0.649E+00    0.824E-01
DAV:   2    -0.191822254784E+03   -0.77041E-01   -0.40750E-01 12600   0.312E+00    0.227E+00
DAV:   3    -0.191766545875E+03    0.55709E-01   -0.11796E-01 12480   0.261E+00    0.523E-01
DAV:   4    -0.191763464122E+03    0.30818E-02   -0.95235E-03 11720   0.575E-01    0.385E-01
DAV:   5    -0.191763798246E+03   -0.33412E-03   -0.94094E-03 12000   0.676E-01    0.465E-01
DAV:   6    -0.191762268799E+03    0.15294E-02   -0.65052E-03 12560   0.493E-01    0.185E-01
DAV:   7    -0.191761509470E+03    0.75933E-03   -0.15303E-03 10600   0.172E-01    0.454E-02
DAV:   8    -0.191761655798E+03   -0.14633E-03   -0.43214E-04  8760   0.133E-01    0.117E-01
DAV:   9    -0.191761523155E+03    0.13264E-03   -0.24853E-04  7200   0.116E-01    0.181E-02
DAV:  10    -0.191761544846E+03   -0.21691E-04   -0.58361E-05  6200   0.239E-02
   6 F= -.19176154E+03 E0= -.19167863E+03  d E =-.133601E+00
       N       E                     dE             d eps       ncg     rms          rms(c)
DAV:   1    -0.191857060445E+03   -0.95537E-01   -0.53426E+00  8160   0.494E+00    0.543E-01
DAV:   2    -0.191879161145E+03   -0.22101E-01   -0.17526E-01 12680   0.172E+00    0.108E+00
DAV:   3    -0.191867241671E+03    0.11919E-01   -0.32569E-02 12360   0.145E+00    0.440E-01
DAV:   4    -0.191864335143E+03    0.29065E-02   -0.38815E-03 11560   0.407E-01    0.146E-01
DAV:   5    -0.191864561610E+03   -0.22647E-03   -0.25163E-03 11160   0.198E-01    0.167E-01
DAV:   6    -0.191864346943E+03    0.21467E-03   -0.19444E-03 11880   0.284E-01    0.189E-01
DAV:   7    -0.191863983904E+03    0.36304E-03   -0.65141E-04  8560   0.186E-01    0.313E-02
DAV:   8    -0.191863977620E+03    0.62840E-05   -0.77070E-05  6040   0.330E-02
   7 F= -.19186398E+03 E0= -.19178408E+03  d E =-.102433E+00
       N       E                     dE             d eps       ncg     rms          rms(c)
DAV:   1    -0.191934248697E+03   -0.70265E-01   -0.28236E+00  8160   0.361E+00    0.381E-01
DAV:   2    -0.191942726669E+03   -0.84780E-02   -0.92889E-02 12520   0.106E+00    0.553E-01
DAV:   3    -0.191940763730E+03    0.19629E-02   -0.12355E-02 12560   0.907E-01    0.388E-01
DAV:   4    -0.191938556068E+03    0.22077E-02   -0.25648E-03 11720   0.390E-01    0.106E-01
DAV:   5    -0.191939077728E+03   -0.52166E-03   -0.20331E-03 11840   0.259E-01    0.239E-01
DAV:   6    -0.191938509548E+03    0.56818E-03   -0.14284E-03 10400   0.285E-01    0.904E-02
DAV:   7    -0.191938409542E+03    0.10001E-03   -0.17106E-04  6320   0.861E-02    0.208E-02
DAV:   8    -0.191938404146E+03    0.53957E-05   -0.66689E-05  7520   0.296E-02
   8 F= -.19193840E+03 E0= -.19186041E+03  d E =-.744265E-01
       N       E                     dE             d eps       ncg     rms          rms(c)
DAV:   1    -0.192130623823E+03   -0.19221E+00   -0.90570E+01  8160   0.208E+01    0.211E+00
DAV:   2    -0.192346309239E+03   -0.21569E+00   -0.30738E+00 11480   0.499E+00    0.176E+00
DAV:   3    -0.192388860162E+03   -0.42551E-01   -0.30428E-01 12720   0.434E+00    0.258E+00
DAV:   4    -0.192289553133E+03    0.99307E-01   -0.11697E-01 12320   0.287E+00    0.588E-01
DAV:   5    -0.192289448843E+03    0.10429E-03   -0.47284E-02 11200   0.750E-01    0.511E-01
DAV:   6    -0.192284224987E+03    0.52239E-02   -0.15246E-02 12160   0.715E-01    0.355E-01
DAV:   7    -0.192283270022E+03    0.95496E-03   -0.38441E-03 12200   0.492E-01    0.175E-01
DAV:   8    -0.192282644443E+03    0.62558E-03   -0.15071E-03 11640   0.182E-01    0.485E-02
DAV:   9    -0.192282684022E+03   -0.39579E-04   -0.50832E-04  9640   0.871E-02
   9 F= -.19228268E+03 E0= -.19220919E+03  d E =-.344280E+00
       N       E                     dE             d eps       ncg     rms          rms(c)
DAV:   1    -0.192320870920E+03   -0.38226E-01   -0.30629E+00  8160   0.369E+00    0.531E-01
DAV:   2    -0.192331592476E+03   -0.10722E-01   -0.17544E-01 11760   0.133E+00    0.519E-01
DAV:   3    -0.192332332624E+03   -0.74015E-03   -0.18994E-02 12360   0.110E+00    0.580E-01
DAV:   4    -0.192327473625E+03    0.48590E-02   -0.90953E-03 12840   0.759E-01    0.224E-01
DAV:   5    -0.192326947707E+03    0.52592E-03   -0.41549E-03 11560   0.271E-01    0.134E-01
DAV:   6    -0.192327159624E+03   -0.21192E-03   -0.16609E-03 12920   0.326E-01    0.201E-01
DAV:   7    -0.192326694822E+03    0.46480E-03   -0.60552E-04  9280   0.218E-01    0.361E-02
DAV:   8    -0.192326678555E+03    0.16266E-04   -0.53892E-05  6280   0.348E-02
  10 F= -.19232668E+03 E0= -.19225286E+03  d E =-.439945E-01
       N       E                     dE             d eps       ncg     rms          rms(c)
DAV:   1    -0.192346429645E+03   -0.19735E-01   -0.25100E+01  8160   0.106E+01    0.110E+00
DAV:   2    -0.192407905567E+03   -0.61476E-01   -0.89083E-01 11960   0.243E+00    0.781E-01
DAV:   3    -0.192420737178E+03   -0.12832E-01   -0.72413E-02 12400   0.210E+00    0.136E+00
DAV:   4    -0.192396753731E+03    0.23983E-01   -0.37429E-02 12280   0.166E+00    0.351E-01
DAV:   5    -0.192396565044E+03    0.18869E-03   -0.10853E-02 11520   0.440E-01    0.317E-01
DAV:   6    -0.192395480940E+03    0.10841E-02   -0.61671E-03 12080   0.554E-01    0.312E-01
DAV:   7    -0.192394406412E+03    0.10745E-02   -0.19090E-03 11960   0.363E-01    0.634E-02
DAV:   8    -0.192394329583E+03    0.76829E-04   -0.36694E-04  8840   0.670E-02
  11 F= -.19239433E+03 E0= -.19232041E+03  d E =-.676510E-01
       N       E                     dE             d eps       ncg     rms          rms(c)
DAV:   1    -0.192394908993E+03   -0.50258E-03   -0.20854E+00  8160   0.311E+00    0.328E-01
DAV:   2    -0.192397234135E+03   -0.23251E-02   -0.49768E-02 12400   0.688E-01    0.299E-01
DAV:   3    -0.192397752352E+03   -0.51822E-03   -0.67148E-03 11760   0.678E-01    0.396E-01
DAV:   4    -0.192395773728E+03    0.19786E-02   -0.35130E-03 12320   0.494E-01    0.150E-01
DAV:   5    -0.192395850385E+03   -0.76657E-04   -0.16191E-03 11560   0.298E-01    0.197E-01
DAV:   6    -0.192395489804E+03    0.36058E-03   -0.11592E-03 10880   0.290E-01    0.976E-02
DAV:   7    -0.192395353319E+03    0.13648E-03   -0.23141E-04  8040   0.997E-02    0.208E-02
DAV:   8    -0.192395348892E+03    0.44271E-05   -0.46122E-05  7560   0.261E-02
  12 F= -.19239535E+03 E0= -.19232145E+03  d E =-.101931E-02
       N       E                     dE             d eps       ncg     rms          rms(c)
DAV:   1    -0.192405913589E+03   -0.10560E-01   -0.42762E+00  8160   0.431E+00    0.488E-01
DAV:   2    -0.192418577742E+03   -0.12664E-01   -0.17254E-01 11600   0.112E+00    0.434E-01
DAV:   3    -0.192420808268E+03   -0.22305E-02   -0.18740E-02 12520   0.109E+00    0.644E-01
DAV:   4    -0.192415264574E+03    0.55437E-02   -0.71295E-03 11680   0.712E-01    0.134E-01
DAV:   5    -0.192415689011E+03   -0.42444E-03   -0.22654E-03 12520   0.299E-01    0.230E-01
DAV:   6    -0.192415278863E+03    0.41015E-03   -0.18594E-03 12040   0.367E-01    0.149E-01
DAV:   7    -0.192414993496E+03    0.28537E-03   -0.45009E-04  9000   0.160E-01    0.276E-02
DAV:   8    -0.192414988442E+03    0.50548E-05   -0.81499E-05  6720   0.343E-02
  13 F= -.19241499E+03 E0= -.19234084E+03  d E =-.196395E-01
       N       E                     dE             d eps       ncg     rms          rms(c)
DAV:   1    -0.192418377230E+03   -0.33837E-02   -0.29588E-01  8160   0.114E+00    0.166E-01
DAV:   2    -0.192420879623E+03   -0.25024E-02   -0.21552E-02 12000   0.618E-01    0.321E-01
DAV:   3    -0.192419730251E+03    0.11494E-02   -0.29705E-03 12080   0.444E-01    0.110E-01
DAV:   4    -0.192419516160E+03    0.21409E-03   -0.31331E-04  7480   0.128E-01    0.506E-02
DAV:   5    -0.192419529682E+03   -0.13521E-04   -0.44078E-04  9880   0.642E-02
  14 F= -.19241953E+03 E0= -.19234582E+03  d E =-.454124E-02
       N       E                     dE             d eps       ncg     rms          rms(c)
DAV:   1    -0.192421844713E+03   -0.23286E-02   -0.10618E-01  8160   0.701E-01    0.965E-02
DAV:   2    -0.192422039543E+03   -0.19483E-03   -0.40992E-03 11440   0.209E-01    0.105E-01
DAV:   3    -0.192422087449E+03   -0.47906E-04   -0.71847E-04 12000   0.231E-01
  15 F= -.19242209E+03 E0= -.19234847E+03  d E =-.255777E-02
       N       E                     dE             d eps       ncg     rms          rms(c)
DAV:   1    -0.192424975428E+03   -0.29359E-02   -0.25397E-01  8160   0.108E+00    0.152E-01
DAV:   2    -0.192425751003E+03   -0.77557E-03   -0.12591E-02 12320   0.363E-01    0.154E-01
DAV:   3    -0.192425911655E+03   -0.16065E-03   -0.16018E-03 11640   0.350E-01    0.208E-01
DAV:   4    -0.192425370231E+03    0.54142E-03   -0.71416E-04 10640   0.237E-01    0.495E-02
DAV:   5    -0.192425386971E+03   -0.16740E-04   -0.22841E-04  7120   0.820E-02
  16 F= -.19242539E+03 E0= -.19235203E+03  d E =-.329952E-02
       N       E                     dE             d eps       ncg     rms          rms(c)
DAV:   1    -0.192426522102E+03   -0.11519E-02   -0.24851E-02  8320   0.343E-01    0.100E-01
DAV:   2    -0.192427460906E+03   -0.93880E-03   -0.34168E-03 11680   0.430E-01    0.289E-01
DAV:   3    -0.192426400708E+03    0.10602E-02   -0.14376E-03 10920   0.332E-01    0.399E-02
DAV:   4    -0.192426402160E+03   -0.14516E-05   -0.96071E-05  5720   0.748E-02
  17 F= -.19242640E+03 E0= -.19235326E+03  d E =-.101519E-02
       N       E                     dE             d eps       ncg     rms          rms(c)
DAV:   1    -0.192429318697E+03   -0.29180E-02   -0.29112E-01  8160   0.115E+00    0.167E-01
DAV:   2    -0.192430860853E+03   -0.15422E-02   -0.14527E-02 11480   0.528E-01    0.307E-01
DAV:   3    -0.192429833934E+03    0.10269E-02   -0.25909E-03 12160   0.429E-01    0.119E-01
DAV:   4    -0.192429663740E+03    0.17019E-03   -0.51283E-04  8840   0.165E-01    0.863E-02
DAV:   5    -0.192429676600E+03   -0.12860E-04   -0.42704E-04  9440   0.176E-01
  18 F= -.19242968E+03 E0= -.19235745E+03  d E =-.327444E-02
       N       E                     dE             d eps       ncg     rms          rms(c)
DAV:   1    -0.192431210577E+03   -0.15468E-02   -0.10734E-01  8160   0.698E-01    0.903E-02
DAV:   2    -0.192431686565E+03   -0.47599E-03   -0.57725E-03 10480   0.234E-01    0.102E-01
DAV:   3    -0.192431658564E+03    0.28000E-04   -0.71642E-04 11560   0.201E-01
  19 F= -.19243166E+03 E0= -.19235956E+03  d E =-.198196E-02
       N       E                     dE             d eps       ncg     rms          rms(c)
DAV:   1    -0.192432091657E+03   -0.40509E-03   -0.97494E-03  8600   0.231E-01    0.517E-02
DAV:   2    -0.192432197797E+03   -0.10614E-03   -0.71381E-04 11400   0.144E-01    0.952E-02
DAV:   3    -0.192432080018E+03    0.11778E-03   -0.24057E-04  8400   0.135E-01    0.408E-02
DAV:   4    -0.192432071223E+03    0.87949E-05   -0.65166E-05  6240   0.577E-02
  20 F= -.19243207E+03 E0= -.19236008E+03  d E =-.412659E-03
       N       E                     dE             d eps       ncg     rms          rms(c)
DAV:   1    -0.192433806631E+03   -0.17266E-02   -0.18826E-01  8160   0.918E-01    0.117E-01
DAV:   2    -0.192434750168E+03   -0.94354E-03   -0.99307E-03 11840   0.348E-01    0.183E-01
DAV:   3    -0.192434517798E+03    0.23237E-03   -0.12473E-03 12160   0.309E-01    0.127E-01
DAV:   4    -0.192434310904E+03    0.20689E-03   -0.24692E-04  7880   0.134E-01    0.321E-02
DAV:   5    -0.192434326776E+03   -0.15872E-04   -0.13201E-04  6560   0.574E-02
  21 F= -.19243433E+03 E0= -.19236244E+03  d E =-.225555E-02
       N       E                     dE             d eps       ncg     rms          rms(c)
DAV:   1    -0.192435554096E+03   -0.12432E-02   -0.11346E-01  8160   0.712E-01    0.844E-02
DAV:   2    -0.192435967779E+03   -0.41368E-03   -0.59086E-03 10560   0.203E-01    0.445E-02
DAV:   3    -0.192435971702E+03   -0.39231E-05   -0.19329E-04  8680   0.844E-02
  22 F= -.19243597E+03 E0= -.19236438E+03  d E =-.164493E-02
       N       E                     dE             d eps       ncg     rms          rms(c)
DAV:   1    -0.192436996266E+03   -0.10285E-02   -0.64713E-02  8160   0.547E-01    0.976E-02
DAV:   2    -0.192437781830E+03   -0.78556E-03   -0.37595E-03 11560   0.373E-01    0.247E-01
DAV:   3    -0.192436995364E+03    0.78647E-03   -0.12116E-03 11240   0.292E-01    0.455E-02
DAV:   4    -0.192436976476E+03    0.18888E-04   -0.93189E-05  5960   0.429E-02
  23 F= -.19243698E+03 E0= -.19236567E+03  d E =-.100477E-02
       N       E                     dE             d eps       ncg     rms          rms(c)
DAV:   1    -0.192437850731E+03   -0.85537E-03   -0.70509E-02  8160   0.563E-01    0.742E-02
DAV:   2    -0.192438218977E+03   -0.36825E-03   -0.36973E-03 10840   0.215E-01    0.117E-01
DAV:   3    -0.192438093813E+03    0.12516E-03   -0.53621E-04 10960   0.191E-01    0.708E-02
DAV:   4    -0.192438039499E+03    0.54314E-04   -0.82433E-05  6120   0.818E-02
  24 F= -.19243804E+03 E0= -.19236695E+03  d E =-.106302E-02
       N       E                     dE             d eps       ncg     rms          rms(c)
DAV:   1    -0.192438806335E+03   -0.71252E-03   -0.57256E-02  8160   0.511E-01    0.766E-02
DAV:   2    -0.192439125132E+03   -0.31880E-03   -0.29260E-03 11960   0.224E-01    0.138E-01
DAV:   3    -0.192438933451E+03    0.19168E-03   -0.52739E-04 10080   0.203E-01    0.660E-02
DAV:   4    -0.192438882674E+03    0.50777E-04   -0.88799E-05  6240   0.808E-02
  25 F= -.19243888E+03 E0= -.19236793E+03  d E =-.843175E-03
