<?xml version="1.0" encoding="ISO-8859-1"?>
<modeling>
 <generator>
  <i name="program" type="string">vasp </i>
  <i name="version" type="string">5.4.1  </i>
  <i name="subversion" type="string">05Feb16 (build Jul 05 2020 17:13:04) complex                          parallel </i>
  <i name="platform" type="string">IFC91_ompi </i>
  <i name="date" type="string">2024 04 25 </i>
  <i name="time" type="string">01:36:31 </i>
 </generator>
 <incar>
  <i type="int" name="ISTART">     0</i>
  <i type="string" name="PREC">normal</i>
  <i type="string" name="ALGO"> Normal</i>
  <i type="int" name="ISPIN">     1</i>
  <i type="int" name="ICHARG">     2</i>
  <i type="int" name="IBRION">     1</i>
  <i type="int" name="NSW">   100</i>
  <i type="int" name="ISIF">     3</i>
  <i type="int" name="ISYM">     0</i>
  <i name="SYMPREC">      0.00000001</i>
  <i name="POTIM">      0.50000000</i>
  <i type="logical" name="LREAL"> F  </i>
  <i type="logical" name="LPLANE"> F  </i>
  <i type="int" name="ISMEAR">     0</i>
  <i type="logical" name="LWAVE"> F  </i>
  <i type="logical" name="LCHARG"> F  </i>
  <v type="int" name="KPOINT_BSE">    -1     0     0     0</v>
 </incar>
 <kpoints>
  <generation param="Gamma">
   <v type="int" name="divisions">       8        8        1 </v>
   <v name="usershift">      0.00000000       0.00000000       0.00000000 </v>
   <v name="genvec1">      0.12500000       0.00000000       0.00000000 </v>
   <v name="genvec2">     -0.00000000       0.12500000       0.00000000 </v>
   <v name="genvec3">      0.00000000       0.00000000       1.00000000 </v>
   <v name="shift">      0.00000000       0.00000000       0.00000000 </v>
  </generation>
  <varray name="kpointlist" >
   <v>       0.00000000       0.00000000       0.00000000 </v>
   <v>       0.12500000       0.00000000       0.00000000 </v>
   <v>       0.25000000       0.00000000       0.00000000 </v>
   <v>       0.37500000       0.00000000       0.00000000 </v>
   <v>       0.50000000       0.00000000       0.00000000 </v>
   <v>       0.00000000       0.12500000       0.00000000 </v>
   <v>       0.12500000       0.12500000       0.00000000 </v>
   <v>       0.25000000       0.12500000       0.00000000 </v>
   <v>       0.37500000       0.12500000       0.00000000 </v>
   <v>       0.50000000       0.12500000       0.00000000 </v>
   <v>      -0.37500000       0.12500000       0.00000000 </v>
   <v>      -0.25000000       0.12500000       0.00000000 </v>
   <v>      -0.12500000       0.12500000       0.00000000 </v>
   <v>       0.00000000       0.25000000       0.00000000 </v>
   <v>       0.12500000       0.25000000       0.00000000 </v>
   <v>       0.25000000       0.25000000       0.00000000 </v>
   <v>       0.37500000       0.25000000       0.00000000 </v>
   <v>       0.50000000       0.25000000       0.00000000 </v>
   <v>      -0.37500000       0.25000000       0.00000000 </v>
   <v>      -0.25000000       0.25000000       0.00000000 </v>
   <v>      -0.12500000       0.25000000       0.00000000 </v>
   <v>      -0.00000000       0.37500000       0.00000000 </v>
   <v>       0.12500000       0.37500000       0.00000000 </v>
   <v>       0.25000000       0.37500000       0.00000000 </v>
   <v>       0.37500000       0.37500000       0.00000000 </v>
   <v>       0.50000000       0.37500000       0.00000000 </v>
   <v>      -0.37500000       0.37500000       0.00000000 </v>
   <v>      -0.25000000       0.37500000       0.00000000 </v>
   <v>      -0.12500000       0.37500000       0.00000000 </v>
   <v>       0.00000000       0.50000000       0.00000000 </v>
   <v>       0.12500000       0.50000000       0.00000000 </v>
   <v>       0.25000000       0.50000000       0.00000000 </v>
   <v>       0.37500000       0.50000000       0.00000000 </v>
   <v>       0.50000000       0.50000000       0.00000000 </v>
  </varray>
  <varray name="weights" >
   <v>       0.01562500 </v>
   <v>       0.03125000 </v>
   <v>       0.03125000 </v>
   <v>       0.03125000 </v>
   <v>       0.01562500 </v>
   <v>       0.03125000 </v>
   <v>       0.03125000 </v>
   <v>       0.03125000 </v>
   <v>       0.03125000 </v>
   <v>       0.03125000 </v>
   <v>       0.03125000 </v>
   <v>       0.03125000 </v>
   <v>       0.03125000 </v>
   <v>       0.03125000 </v>
   <v>       0.03125000 </v>
   <v>       0.03125000 </v>
   <v>       0.03125000 </v>
   <v>       0.03125000 </v>
   <v>       0.03125000 </v>
   <v>       0.03125000 </v>
   <v>       0.03125000 </v>
   <v>       0.03125000 </v>
   <v>       0.03125000 </v>
   <v>       0.03125000 </v>
   <v>       0.03125000 </v>
   <v>       0.03125000 </v>
   <v>       0.03125000 </v>
   <v>       0.03125000 </v>
   <v>       0.03125000 </v>
   <v>       0.01562500 </v>
   <v>       0.03125000 </v>
   <v>       0.03125000 </v>
   <v>       0.03125000 </v>
   <v>       0.01562500 </v>
  </varray>
 </kpoints>
 <parameters>
  <separator name="general" >
   <i type="string" name="SYSTEM">unknown system</i>
   <i type="logical" name="LCOMPAT"> F  </i>
  </separator>
  <separator name="electronic" >
   <i type="string" name="PREC">normal</i>
   <i name="ENMAX">    280.00000000</i>
   <i name="ENAUG">    373.43800000</i>
   <i name="EDIFF">      0.00010000</i>
   <i type="int" name="IALGO">    38</i>
   <i type="int" name="IWAVPR">    11</i>
   <i type="int" name="NBANDS">   120</i>
   <i name="NELECT">    159.00000000</i>
   <i type="int" name="TURBO">     0</i>
   <i type="int" name="IRESTART">     0</i>
   <i type="int" name="NREBOOT">     0</i>
   <i type="int" name="NMIN">     0</i>
   <i name="EREF">      0.00000000</i>
   <separator name="electronic smearing" >
    <i type="int" name="ISMEAR">     0</i>
    <i name="SIGMA">      0.20000000</i>
    <i name="KSPACING">      0.50000000</i>
    <i type="logical" name="KGAMMA"> T  </i>
   </separator>
   <separator name="electronic projectors" >
    <i type="logical" name="LREAL"> F  </i>
    <v name="ROPT">      0.00000000      0.00000000      0.00000000      0.00000000</v>
    <i type="int" name="LMAXPAW">  -100</i>
    <i type="int" name="LMAXMIX">     2</i>
    <i type="logical" name="NLSPLINE"> F  </i>
   </separator>
   <separator name="electronic startup" >
    <i type="int" name="ISTART">     0</i>
    <i type="int" name="ICHARG">     2</i>
    <i type="int" name="INIWAV">     1</i>
   </separator>
   <separator name="electronic spin" >
    <i type="int" name="ISPIN">     1</i>
    <i type="logical" name="LNONCOLLINEAR"> F  </i>
    <v name="MAGMOM">      1.00000000      1.00000000      1.00000000      1.00000000      1.00000000      1.00000000      1.00000000      1.00000000      1.00000000      1.00000000      1.00000000      1.00000000      1.00000000      1.00000000      1.00000000      1.00000000      1.00000000      1.00000000      1.00000000      1.00000000
      1.00000000      1.00000000      1.00000000      1.00000000      1.00000000      1.00000000      1.00000000</v>
    <i name="NUPDOWN">     -1.00000000</i>
    <i type="logical" name="LSORBIT"> F  </i>
    <v name="SAXIS">      0.00000000      0.00000000      1.00000000</v>
    <i type="logical" name="LSPIRAL"> F  </i>
    <v name="QSPIRAL">      0.00000000      0.00000000      0.00000000</v>
    <i type="logical" name="LZEROZ"> F  </i>
   </separator>
   <separator name="electronic exchange-correlation" >
    <i type="logical" name="LASPH"> F  </i>
    <i type="logical" name="LMETAGGA"> F  </i>
   </separator>
   <separator name="electronic convergence" >
    <i type="int" name="NELM">    60</i>
    <i type="int" name="NELMDL">    -5</i>
    <i type="int" name="NELMIN">     2</i>
    <i name="ENINI">    280.00000000</i>
    <separator name="electronic convergence detail" >
     <i type="logical" name="LDIAG"> T  </i>
     <i type="logical" name="LSUBROT"> F  </i>
     <i name="WEIMIN">      0.00100000</i>
     <i name="EBREAK">      0.00000021</i>
     <i name="DEPER">      0.30000000</i>
     <i type="int" name="NRMM">     4</i>
     <i name="TIME">      0.40000000</i>
    </separator>
   </separator>
   <separator name="electronic mixer" >
    <i name="AMIX">      0.40000000</i>
    <i name="BMIX">      1.00000000</i>
    <i name="AMIN">      0.10000000</i>
    <i name="AMIX_MAG">      1.60000000</i>
    <i name="BMIX_MAG">      1.00000000</i>
    <separator name="electronic mixer details" >
     <i type="int" name="IMIX">     4</i>
     <i type="logical" name="MIXFIRST"> F  </i>
     <i type="int" name="MAXMIX">   -45</i>
     <i name="WC">    100.00000000</i>
     <i type="int" name="INIMIX">     1</i>
     <i type="int" name="MIXPRE">     1</i>
     <i type="int" name="MREMOVE">     5</i>
    </separator>
   </separator>
   <separator name="electronic dipolcorrection" >
    <i type="logical" name="LDIPOL"> F  </i>
    <i type="logical" name="LMONO"> F  </i>
    <i type="int" name="IDIPOL">     0</i>
    <i name="EPSILON">      1.00000000</i>
    <v name="DIPOL">   -100.00000000   -100.00000000   -100.00000000</v>
    <i name="EFIELD">      0.00000000</i>
   </separator>
  </separator>
  <separator name="grids" >
   <i type="int" name="NGX">    42</i>
   <i type="int" name="NGY">    42</i>
   <i type="int" name="NGZ">   126</i>
   <i type="int" name="NGXF">    84</i>
   <i type="int" name="NGYF">    84</i>
   <i type="int" name="NGZF">   252</i>
   <i type="logical" name="ADDGRID"> F  </i>
  </separator>
  <separator name="ionic" >
   <i type="int" name="NSW">   100</i>
   <i type="int" name="IBRION">     1</i>
   <i type="int" name="ISIF">     3</i>
   <i name="PSTRESS">      0.00000000</i>
   <i name="EDIFFG">      0.00100000</i>
   <i type="int" name="NFREE">     0</i>
   <i name="POTIM">      0.50000000</i>
   <i name="SMASS">     -3.00000000</i>
   <i name="SCALEE">      1.00000000</i>
  </separator>
  <separator name="ionic md" >
   <i name="TEBEG">      0.00010000</i>
   <i name="TEEND">      0.00010000</i>
   <i type="int" name="NBLOCK">     1</i>
   <i type="int" name="KBLOCK">   100</i>
   <i type="int" name="NPACO">   256</i>
   <i name="APACO">     16.00000000</i>
  </separator>
  <separator name="symmetry" >
   <i type="int" name="ISYM">     0</i>
   <i name="SYMPREC">      0.00000001</i>
  </separator>
  <separator name="dos" >
   <i type="logical" name="LORBIT"> F  </i>
   <v name="RWIGS">     -1.00000000     -1.00000000     -1.00000000     -1.00000000</v>
   <i type="int" name="NEDOS">   301</i>
   <i name="EMIN">     10.00000000</i>
   <i name="EMAX">    -10.00000000</i>
   <i name="EFERMI">      0.00000000</i>
  </separator>
  <separator name="writing" >
   <i type="int" name="NWRITE">     2</i>
   <i type="logical" name="LWAVE"> F  </i>
   <i type="logical" name="LCHARG"> F  </i>
   <i type="logical" name="LPARD"> F  </i>
   <i type="logical" name="LVTOT"> F  </i>
   <i type="logical" name="LVHAR"> F  </i>
   <i type="logical" name="LELF"> F  </i>
   <i type="logical" name="LOPTICS"> F  </i>
   <v name="STM">      0.00000000      0.00000000      0.00000000      0.00000000      0.00000000      0.00000000      0.00000000</v>
  </separator>
  <separator name="performance" >
   <i type="int" name="NPAR">    40</i>
   <i type="int" name="NSIM">     4</i>
   <i type="int" name="NBLK">    -1</i>
   <i type="logical" name="LPLANE"> F  </i>
   <i type="logical" name="LSCALAPACK"> T  </i>
   <i type="logical" name="LSCAAWARE"> F  </i>
   <i type="logical" name="LSCALU"> F  </i>
   <i type="logical" name="LASYNC"> F  </i>
   <i type="logical" name="LORBITALREAL"> F  </i>
  </separator>
  <separator name="miscellaneous" >
   <i type="int" name="IDIOT">     3</i>
   <i type="logical" name="LMUSIC"> F  </i>
   <v name="POMASS">     50.94100000     95.94000000    183.85000000     32.06600000</v>
   <v name="DARWINR">      0.00000000      0.00000000      0.00000000      0.00000000</v>
   <v name="DARWINV">      1.00000000      1.00000000      1.00000000      1.00000000</v>
   <i type="logical" name="LCORR"> T  </i>
  </separator>
  <i type="logical" name="GGA_COMPAT"> T  </i>
  <i type="logical" name="LBERRY"> F  </i>
  <i type="int" name="ICORELEVEL">     0</i>
  <i type="logical" name="LDAU"> F  </i>
  <i type="int" name="I_CONSTRAINED_M">     0</i>
  <separator name="electronic exchange-correlation" >
   <i type="string" name="GGA">--</i>
   <i type="int" name="VOSKOWN">     0</i>
   <i type="logical" name="LHFCALC"> F  </i>
   <i type="string" name="PRECFOCK"></i>
   <i type="logical" name="LSYMGRAD"> F  </i>
   <i type="logical" name="LHFONE"> F  </i>
   <i type="logical" name="LRHFCALC"> F  </i>
   <i type="logical" name="LTHOMAS"> F  </i>
   <i type="logical" name="LMODELHF"> F  </i>
   <i name="ENCUT4O">     -1.00000000</i>
   <i type="int" name="EXXOEP">     0</i>
   <i type="int" name="FOURORBIT">     0</i>
   <i name="AEXX">      0.00000000</i>
   <i name="HFALPHA">      0.00000000</i>
   <i name="MCALPHA">      0.00000000</i>
   <i name="ALDAX">      1.00000000</i>
   <i name="AGGAX">      1.00000000</i>
   <i name="ALDAC">      1.00000000</i>
   <i name="AGGAC">      1.00000000</i>
   <i type="int" name="NKREDX">     1</i>
   <i type="int" name="NKREDY">     1</i>
   <i type="int" name="NKREDZ">     1</i>
   <i type="logical" name="SHIFTRED"> F  </i>
   <i type="logical" name="ODDONLY"> F  </i>
   <i type="logical" name="EVENONLY"> F  </i>
   <i type="int" name="LMAXFOCK">     0</i>
   <i type="int" name="NMAXFOCKAE">     0</i>
   <i type="logical" name="LFOCKAEDFT"> F  </i>
   <i name="HFSCREEN">      0.00000000</i>
   <i name="HFSCREENC">      0.00000000</i>
   <i type="int" name="NBANDSGWLOW">     0</i>
  </separator>
  <separator name="vdW DFT" >
   <i type="logical" name="LUSE_VDW"> F  </i>
   <i name="Zab_VDW">     -0.84910000</i>
   <i name="PARAM1">      0.12340000</i>
   <i name="PARAM2">      1.00000000</i>
   <i name="PARAM3">      0.00000000</i>
  </separator>
  <separator name="model GW" >
   <i type="int" name="MODEL_GW">     0</i>
   <i name="MODEL_EPS0">     58.26239943</i>
   <i name="MODEL_ALPHA">      1.00000000</i>
  </separator>
  <separator name="linear response parameters" >
   <i type="logical" name="LEPSILON"> F  </i>
   <i type="logical" name="LRPA"> F  </i>
   <i type="logical" name="LNABLA"> F  </i>
   <i type="logical" name="LVEL"> F  </i>
   <i type="int" name="KINTER">     0</i>
   <i name="CSHIFT">      0.10000000</i>
   <i name="OMEGAMAX">     -1.00000000</i>
   <i name="DEG_THRESHOLD">      0.00200000</i>
  </separator>
  <separator name="orbital magnetization" >
   <i type="logical" name="NUCIND"> F  </i>
   <v name="MAGPOS">      0.00000000      0.00000000      0.00000000</v>
   <i type="logical" name="LNICSALL"> T  </i>
   <i type="logical" name="ORBITALMAG"> F  </i>
   <i type="logical" name="LMAGBLOCH"> F  </i>
   <i type="logical" name="LCHIMAG"> F  </i>
   <i type="logical" name="LGAUGE"> T  </i>
   <i type="int" name="MAGATOM">     0</i>
   <v name="MAGDIPOL">      0.00000000      0.00000000      0.00000000</v>
   <v name="AVECCONST">      0.00000000      0.00000000      0.00000000</v>
  </separator>
  <separator name="response functions" >
   <i type="logical" name="LADDER"> F  </i>
   <i type="logical" name="LFXC"> F  </i>
   <i type="logical" name="LHARTREE"> T  </i>
   <i type="int" name="IBSE">     0</i>
   <v type="int" name="KPOINT">    -1     0     0     0</v>
   <i type="logical" name="LTCTE"> F  </i>
   <i type="logical" name="LTETE"> F  </i>
   <i type="logical" name="LTRIPLET"> F  </i>
   <i type="logical" name="LFXCEPS"> F  </i>
   <i type="logical" name="LFXHEG"> F  </i>
   <i type="int" name="NATURALO">     0</i>
   <i type="logical" name="L2ORDER"> F  </i>
   <i type="logical" name="LUSEW"> F  </i>
   <i name="ENCUTGW">     -2.00000000</i>
   <i name="ENCUTGWSOFT">     -2.00000000</i>
   <i name="ENCUTLF">     -1.00000000</i>
   <i type="int" name="LMAXMP2">    -1</i>
   <i name="SCISSOR">      0.00000000</i>
   <i type="int" name="NOMEGA">     0</i>
   <i type="int" name="NOMEGAR">     0</i>
   <i type="int" name="NBANDSGW">    -1</i>
   <i type="int" name="NBANDSO">    -1</i>
   <i type="int" name="NBANDSV">    -1</i>
   <i type="int" name="NELM">     1</i>
   <i type="int" name="NELMHF">     1</i>
   <i type="int" name="DIM">     3</i>
   <i type="int" name="ANTIRES">     0</i>
   <i name="OMEGAMAX">    -30.00000000</i>
   <i name="OMEGAMIN">    -30.00000000</i>
   <i name="OMEGATL">   -200.00000000</i>
   <i type="int" name="OMEGAGRID">     0</i>
   <i name="CSHIFT">     -0.10000000</i>
   <i type="logical" name="SELFENERGY"> F  </i>
   <i type="logical" name="LSPECTRAL"> F  </i>
   <i type="logical" name="LSPECTRALGW"> F  </i>
   <i type="logical" name="LSINGLES"> F  </i>
   <i type="logical" name="LFERMIGW"> F  </i>
   <i type="logical" name="ODDONLYGW"> F  </i>
   <i type="logical" name="EVENONLYGW"> F  </i>
   <i type="int" name="NKREDLFX">     1</i>
   <i type="int" name="NKREDLFY">     1</i>
   <i type="int" name="NKREDLFZ">     1</i>
   <i type="int" name="MAXMEM">  1800</i>
   <i type="int" name="TELESCOPE">     0</i>
   <i type="int" name="TAUPAR">     1</i>
   <i type="int" name="OMEGAPAR">    -1</i>
   <i name="LAMBDA">      1.00000000</i>
  </separator>
  <separator name="External order field" >
   <i name="OFIELD_KAPPA">      0.00000000</i>
   <v name="OFIELD_K">      0.00000000      0.00000000      0.00000000</v>
   <i name="OFIELD_Q6_NEAR">      0.00000000</i>
   <i name="OFIELD_Q6_FAR">      0.00000000</i>
   <i name="OFIELD_A">      0.00000000</i>
  </separator>
 </parameters>
 <atominfo>
  <atoms>      27 </atoms>
  <types>       4 </types>
  <array name="atoms" >
   <dimension dim="1">ion</dimension>
   <field type="string">element</field>
   <field type="int">atomtype</field>
   <set>
    <rc><c>V </c><c>   1</c></rc>
    <rc><c>V </c><c>   1</c></rc>
    <rc><c>V </c><c>   1</c></rc>
    <rc><c>Mo</c><c>   2</c></rc>
    <rc><c>Mo</c><c>   2</c></rc>
    <rc><c>Mo</c><c>   2</c></rc>
    <rc><c>W </c><c>   3</c></rc>
    <rc><c>W </c><c>   3</c></rc>
    <rc><c>W </c><c>   3</c></rc>
    <rc><c>S </c><c>   4</c></rc>
    <rc><c>S </c><c>   4</c></rc>
    <rc><c>S </c><c>   4</c></rc>
    <rc><c>S </c><c>   4</c></rc>
    <rc><c>S </c><c>   4</c></rc>
    <rc><c>S </c><c>   4</c></rc>
    <rc><c>S </c><c>   4</c></rc>
    <rc><c>S </c><c>   4</c></rc>
    <rc><c>S </c><c>   4</c></rc>
    <rc><c>S </c><c>   4</c></rc>
    <rc><c>S </c><c>   4</c></rc>
    <rc><c>S </c><c>   4</c></rc>
    <rc><c>S </c><c>   4</c></rc>
    <rc><c>S </c><c>   4</c></rc>
    <rc><c>S </c><c>   4</c></rc>
    <rc><c>S </c><c>   4</c></rc>
    <rc><c>S </c><c>   4</c></rc>
    <rc><c>S </c><c>   4</c></rc>
   </set>
  </array>
  <array name="atomtypes" >
   <dimension dim="1">type</dimension>
   <field type="int">atomspertype</field>
   <field type="string">element</field>
   <field>mass</field>
   <field>valence</field>
   <field type="string">pseudopotential</field>
   <set>
    <rc><c>   3</c><c>V </c><c>     50.94100000</c><c>      5.00000000</c><c> PAW_PBE V 08Apr2002                    </c></rc>
    <rc><c>   3</c><c>Mo</c><c>     95.94000000</c><c>      6.00000000</c><c> PAW_PBE Mo 08Apr2002                   </c></rc>
    <rc><c>   3</c><c>W </c><c>    183.85000000</c><c>      6.00000000</c><c> PAW_PBE W 08Apr2002                    </c></rc>
    <rc><c>  18</c><c>S </c><c>     32.06600000</c><c>      6.00000000</c><c>  PAW_PBE S 17Jan2003                   </c></rc>
   </set>
  </array>
 </atominfo>
 <structure name="initialpos" >
  <crystal>
   <varray name="basis" >
    <v>       8.66999996       5.03999989       0.00000000 </v>
    <v>      -8.66999982       5.04000013       0.00000000 </v>
    <v>       0.00000000       0.00000000      30.00000000 </v>
   </varray>
   <i name="volume">   2621.80797419 </i>
   <varray name="rec_basis" >
    <v>       0.05767013       0.09920635       0.00000000 </v>
    <v>      -0.05767013       0.09920635       0.00000000 </v>
    <v>       0.00000000       0.00000000       0.03333333 </v>
   </varray>
  </crystal>
  <varray name="positions" >
   <v>       0.33333334       0.00000000       0.00000000 </v>
   <v>       0.33333334       0.33333334       0.00000000 </v>
   <v>       0.33333334       0.66666669       0.00000000 </v>
   <v>       1.00000000       0.33333334       0.00000000 </v>
   <v>       0.00000000       0.00000000       0.00000000 </v>
   <v>       0.00000000       0.66666669       0.00000000 </v>
   <v>       0.66666669       0.00000000       0.00000000 </v>
   <v>       0.66666669       0.33333334       0.00000000 </v>
   <v>       0.66666669       0.66666669       0.00000000 </v>
   <v>       0.11068511       0.22244981       0.95539999 </v>
   <v>       0.22244981       0.11068511       0.04460000 </v>
   <v>       0.11068511       0.55578315       0.95539999 </v>
   <v>       0.22244981       0.44401845       0.04460000 </v>
   <v>       0.11068511       0.88911647       0.95539999 </v>
   <v>       0.22244981       0.77735180       0.04460000 </v>
   <v>       0.44401845       0.22244981       0.95539999 </v>
   <v>       0.55578315       0.11068511       0.04460000 </v>
   <v>       0.44401845       0.55578315       0.95539999 </v>
   <v>       0.55578315       0.44401845       0.04460000 </v>
   <v>       0.44401845       0.88911647       0.95539999 </v>
   <v>       0.55578315       0.77735180       0.04460000 </v>
   <v>       0.77735180       0.22244981       0.95539999 </v>
   <v>       0.88911647       0.11068511       0.04460000 </v>
   <v>       0.77735180       0.55578315       0.95539999 </v>
   <v>       0.88911647       0.44401845       0.04460000 </v>
   <v>       0.77735180       0.88911647       0.95539999 </v>
   <v>       0.88911647       0.77735180       0.04460000 </v>
  </varray>
 </structure>
 <calculation>
  <scstep>
   <time name="dav">   21.62   21.68</time>
   <time name="total">   21.67   21.73</time>
   <energy>
    <i name="alphaZ">     81.65567618 </i>
    <i name="ewald">  41891.19379416 </i>
    <i name="hartreedc"> -47723.83905759 </i>
    <i name="XCdc">   -242.92449861 </i>
    <i name="pawpsdc">   3467.42045192 </i>
    <i name="pawaedc">  -2871.19716117 </i>
    <i name="eentropy">     -0.53470694 </i>
    <i name="bandstr">   -238.85430474 </i>
    <i name="atom">   6761.44252427 </i>
    <i name="e_fr_energy">   1124.36271747 </i>
    <i name="e_wo_entrp">   1124.89742441 </i>
    <i name="e_0_energy">   1124.63007094 </i>
   </energy>
  </scstep>
  <scstep>
   <time name="dav">   27.89   27.96</time>
   <time name="total">   27.89   27.97</time>
   <energy>
    <i name="e_fr_energy">     -2.69728807 </i>
    <i name="e_wo_entrp">     -2.49462414 </i>
    <i name="e_0_energy">     -2.59595610 </i>
   </energy>
  </scstep>
  <scstep>
   <time name="dav">   27.52   27.59</time>
   <time name="total">   27.52   27.60</time>
   <energy>
    <i name="e_fr_energy">   -200.02742475 </i>
    <i name="e_wo_entrp">   -199.76786211 </i>
    <i name="e_0_energy">   -199.89764343 </i>
   </energy>
  </scstep>
  <scstep>
   <time name="dav">   29.67   29.74</time>
   <time name="total">   29.67   29.74</time>
   <energy>
    <i name="e_fr_energy">   -209.07445389 </i>
    <i name="e_wo_entrp">   -208.81456023 </i>
    <i name="e_0_energy">   -208.94450706 </i>
   </energy>
  </scstep>
  <scstep>
   <time name="dav">   28.93   29.00</time>
   <time name="total">   29.40   29.48</time>
   <energy>
    <i name="e_fr_energy">   -209.40523616 </i>
    <i name="e_wo_entrp">   -209.14839681 </i>
    <i name="e_0_energy">   -209.27681649 </i>
   </energy>
  </scstep>
  <scstep>
   <time name="dav">   30.72   30.79</time>
   <time name="total">   31.22   31.30</time>
   <energy>
    <i name="e_fr_energy">   -241.87677811 </i>
    <i name="e_wo_entrp">   -241.61495175 </i>
    <i name="e_0_energy">   -241.74586493 </i>
   </energy>
  </scstep>
  <scstep>
   <time name="dav">   32.17   32.24</time>
   <time name="total">   32.67   32.76</time>
   <energy>
    <i name="e_fr_energy">   -196.04657150 </i>
    <i name="e_wo_entrp">   -195.70643340 </i>
    <i name="e_0_energy">   -195.87650245 </i>
   </energy>
  </scstep>
  <scstep>
   <time name="dav">   29.80   29.87</time>
   <time name="total">   30.32   30.40</time>
   <energy>
    <i name="e_fr_energy">   -189.23185579 </i>
    <i name="e_wo_entrp">   -188.90118146 </i>
    <i name="e_0_energy">   -189.06651862 </i>
   </energy>
  </scstep>
  <scstep>
   <time name="dav">   32.29   32.36</time>
   <time name="total">   32.81   32.90</time>
   <energy>
    <i name="e_fr_energy">   -188.02620083 </i>
    <i name="e_wo_entrp">   -187.69478811 </i>
    <i name="e_0_energy">   -187.86049447 </i>
   </energy>
  </scstep>
  <scstep>
   <time name="dav">   32.70   32.78</time>
   <time name="total">   33.24   33.32</time>
   <energy>
    <i name="e_fr_energy">   -186.93099026 </i>
    <i name="e_wo_entrp">   -186.57669428 </i>
    <i name="e_0_energy">   -186.75384227 </i>
   </energy>
  </scstep>
  <scstep>
   <time name="dav">   32.80   32.88</time>
   <time name="total">   33.34   33.43</time>
   <energy>
    <i name="e_fr_energy">   -186.91509129 </i>
    <i name="e_wo_entrp">   -186.57515036 </i>
    <i name="e_0_energy">   -186.74512082 </i>
   </energy>
  </scstep>
  <scstep>
   <time name="dav">   32.88   32.96</time>
   <time name="total">   33.41   33.49</time>
   <energy>
    <i name="e_fr_energy">   -186.84185792 </i>
    <i name="e_wo_entrp">   -186.49423503 </i>
    <i name="e_0_energy">   -186.66804647 </i>
   </energy>
  </scstep>
  <scstep>
   <time name="dav">   32.62   32.69</time>
   <time name="total">   33.15   33.24</time>
   <energy>
    <i name="e_fr_energy">   -186.83706389 </i>
    <i name="e_wo_entrp">   -186.49057365 </i>
    <i name="e_0_energy">   -186.66381877 </i>
   </energy>
  </scstep>
  <scstep>
   <time name="dav">   32.24   32.31</time>
   <time name="total">   32.77   32.86</time>
   <energy>
    <i name="e_fr_energy">   -186.82830374 </i>
    <i name="e_wo_entrp">   -186.48289242 </i>
    <i name="e_0_energy">   -186.65559808 </i>
   </energy>
  </scstep>
  <scstep>
   <time name="dav">   30.87   30.94</time>
   <time name="total">   31.40   31.48</time>
   <energy>
    <i name="e_fr_energy">   -186.82797295 </i>
    <i name="e_wo_entrp">   -186.48260539 </i>
    <i name="e_0_energy">   -186.65528917 </i>
   </energy>
  </scstep>
  <scstep>
   <time name="dav">   30.23   30.30</time>
   <time name="total">   30.76   30.84</time>
   <energy>
    <i name="e_fr_energy">   -186.82735964 </i>
    <i name="e_wo_entrp">   -186.48197470 </i>
    <i name="e_0_energy">   -186.65466717 </i>
   </energy>
  </scstep>
  <scstep>
   <time name="dav">   26.93   27.00</time>
   <time name="total">   27.47   27.54</time>
   <energy>
    <i name="e_fr_energy">   -186.82728941 </i>
    <i name="e_wo_entrp">   -186.48192547 </i>
    <i name="e_0_energy">   -186.65460744 </i>
   </energy>
  </scstep>
  <scstep>
   <time name="dav">   25.43   25.49</time>
   <time name="total">   25.47   25.54</time>
   <energy>
    <i name="alphaZ">     81.65567618 </i>
    <i name="ewald">  41891.19379416 </i>
    <i name="hartreedc"> -47821.10349002 </i>
    <i name="XCdc">   -231.67471611 </i>
    <i name="pawpsdc">   4193.71245662 </i>
    <i name="pawaedc">  -3611.72071975 </i>
    <i name="eentropy">     -0.34520518 </i>
    <i name="bandstr">  -1449.98769813 </i>
    <i name="atom">   6761.44252427 </i>
    <i name="e_fr_energy">   -186.82737797 </i>
    <i name="e_wo_entrp">   -186.48217279 </i>
    <i name="e_0_energy">   -186.65477538 </i>
   </energy>
  </scstep>
  <structure>
   <crystal>
    <varray name="basis" >
     <v>       8.66999996       5.03999989       0.00000000 </v>
     <v>      -8.66999982       5.04000013       0.00000000 </v>
     <v>       0.00000000       0.00000000      30.00000000 </v>
    </varray>
    <i name="volume">   2621.80797419 </i>
    <varray name="rec_basis" >
     <v>       0.05767013       0.09920635       0.00000000 </v>
     <v>      -0.05767013       0.09920635       0.00000000 </v>
     <v>       0.00000000       0.00000000       0.03333333 </v>
    </varray>
   </crystal>
   <varray name="positions" >
    <v>       0.33333334       0.00000000       0.00000000 </v>
    <v>       0.33333334       0.33333334       0.00000000 </v>
    <v>       0.33333334       0.66666669       0.00000000 </v>
    <v>       1.00000000       0.33333334       0.00000000 </v>
    <v>       0.00000000       0.00000000       0.00000000 </v>
    <v>       0.00000000       0.66666669       0.00000000 </v>
    <v>       0.66666669       0.00000000       0.00000000 </v>
    <v>       0.66666669       0.33333334       0.00000000 </v>
    <v>       0.66666669       0.66666669       0.00000000 </v>
    <v>       0.11068511       0.22244981       0.95539999 </v>
    <v>       0.22244981       0.11068511       0.04460000 </v>
    <v>       0.11068511       0.55578315       0.95539999 </v>
    <v>       0.22244981       0.44401845       0.04460000 </v>
    <v>       0.11068511       0.88911647       0.95539999 </v>
    <v>       0.22244981       0.77735180       0.04460000 </v>
    <v>       0.44401845       0.22244981       0.95539999 </v>
    <v>       0.55578315       0.11068511       0.04460000 </v>
    <v>       0.44401845       0.55578315       0.95539999 </v>
    <v>       0.55578315       0.44401845       0.04460000 </v>
    <v>       0.44401845       0.88911647       0.95539999 </v>
    <v>       0.55578315       0.77735180       0.04460000 </v>
    <v>       0.77735180       0.22244981       0.95539999 </v>
    <v>       0.88911647       0.11068511       0.04460000 </v>
    <v>       0.77735180       0.55578315       0.95539999 </v>
    <v>       0.88911647       0.44401845       0.04460000 </v>
    <v>       0.77735180       0.88911647       0.95539999 </v>
    <v>       0.88911647       0.77735180       0.04460000 </v>
   </varray>
  </structure>
  <varray name="forces" >
   <v>      -0.21183657      -0.34914957      -0.00034809 </v>
   <v>      -0.21105183      -0.34779741      -0.00052846 </v>
   <v>      -0.21173130      -0.34821445      -0.00051859 </v>
   <v>       0.01746454       0.01953384       0.10707913 </v>
   <v>       0.01827896       0.01749906       0.10716735 </v>
   <v>       0.01675783       0.01777568       0.10726623 </v>
   <v>       0.22502960       0.37985822      -0.14999951 </v>
   <v>       0.22389758       0.38134237      -0.14999540 </v>
   <v>       0.22590587       0.38058966      -0.15015091 </v>
   <v>       0.52555713       0.69418299      -2.13631152 </v>
   <v>       0.31984543       0.65883737       1.43104282 </v>
   <v>       0.52429401       0.69409486      -2.13693572 </v>
   <v>       0.32095773       0.65880256       1.43156573 </v>
   <v>       0.52483170       0.69423961      -2.13646275 </v>
   <v>       0.32012390       0.65838837       1.43095210 </v>
   <v>      -0.23759854      -0.52414593      -1.37824934 </v>
   <v>      -0.47916672      -0.58221426       2.13464165 </v>
   <v>      -0.23710412      -0.52487753      -1.37827691 </v>
   <v>      -0.47819600      -0.58301835       2.13437082 </v>
   <v>      -0.23763988      -0.52491037      -1.37925381 </v>
   <v>      -0.47798137      -0.58314582       2.13496244 </v>
   <v>       0.02830094      -0.17328539      -2.92318551 </v>
   <v>      -0.18872176      -0.12269239       2.91584803 </v>
   <v>       0.02962226      -0.17331505      -2.92268191 </v>
   <v>      -0.19034751      -0.12296571       2.91578047 </v>
   <v>       0.02994027      -0.17268928      -2.92304575 </v>
   <v>      -0.18943216      -0.12272308       2.91526742 </v>
  </varray>
  <varray name="stress" >
   <v>       7.28963139       0.12320066      -1.62647918 </v>
   <v>       0.12320072       4.51128686      -0.10628415 </v>
   <v>      -1.62647911      -0.10628394      30.86261805 </v>
  </varray>
  <energy>
   <i name="e_fr_energy">   -186.82737797 </i>
   <i name="e_wo_entrp">   -186.65477538 </i>
   <i name="e_0_energy">     -0.34520518 </i>
  </energy>
  <time name="totalsc">  586.39  587.95</time>
 </calculation>
 <calculation>
  <scstep>
   <time name="dav">   21.57   21.63</time>
   <time name="total">   22.12   22.17</time>
   <energy>
    <i name="alphaZ">     78.91073969 </i>
    <i name="ewald">  39374.18404056 </i>
    <i name="hartreedc"> -45324.21954971 </i>
    <i name="XCdc">   -239.11336739 </i>
    <i name="pawpsdc">   4192.90599864 </i>
    <i name="pawaedc">  -3610.90478075 </i>
    <i name="eentropy">     -0.28377009 </i>
    <i name="bandstr">  -1420.43587359 </i>
    <i name="atom">   6761.44252427 </i>
    <i name="e_fr_energy">   -187.51403837 </i>
    <i name="e_wo_entrp">   -187.23026828 </i>
    <i name="e_0_energy">   -187.37215332 </i>
   </energy>
  </scstep>
  <scstep>
   <time name="dav">   29.54   29.61</time>
   <time name="total">   30.07   30.15</time>
   <energy>
    <i name="e_fr_energy">   -189.59425179 </i>
    <i name="e_wo_entrp">   -189.26178038 </i>
    <i name="e_0_energy">   -189.42801608 </i>
   </energy>
  </scstep>
  <scstep>
   <time name="dav">   30.40   30.47</time>
   <time name="total">   30.95   31.03</time>
   <energy>
    <i name="e_fr_energy">   -189.29831585 </i>
    <i name="e_wo_entrp">   -189.03014448 </i>
    <i name="e_0_energy">   -189.16423016 </i>
   </energy>
  </scstep>
  <scstep>
   <time name="dav">   30.78   30.85</time>
   <time name="total">   31.32   31.40</time>
   <energy>
    <i name="e_fr_energy">   -188.75804969 </i>
    <i name="e_wo_entrp">   -188.47252588 </i>
    <i name="e_0_energy">   -188.61528779 </i>
   </energy>
  </scstep>
  <scstep>
   <time name="dav">   26.63   26.70</time>
   <time name="total">   27.17   27.25</time>
   <energy>
    <i name="e_fr_energy">   -188.72642931 </i>
    <i name="e_wo_entrp">   -188.44440581 </i>
    <i name="e_0_energy">   -188.58541756 </i>
   </energy>
  </scstep>
  <scstep>
   <time name="dav">   29.07   29.14</time>
   <time name="total">   29.62   29.69</time>
   <energy>
    <i name="e_fr_energy">   -188.69099502 </i>
    <i name="e_wo_entrp">   -188.40595702 </i>
    <i name="e_0_energy">   -188.54847602 </i>
   </energy>
  </scstep>
  <scstep>
   <time name="dav">   28.02   28.09</time>
   <time name="total">   28.57   28.64</time>
   <energy>
    <i name="e_fr_energy">   -188.69028740 </i>
    <i name="e_wo_entrp">   -188.40550703 </i>
    <i name="e_0_energy">   -188.54789721 </i>
   </energy>
  </scstep>
  <scstep>
   <time name="dav">   29.37   29.44</time>
   <time name="total">   29.92   30.00</time>
   <energy>
    <i name="e_fr_energy">   -188.67206152 </i>
    <i name="e_wo_entrp">   -188.38861985 </i>
    <i name="e_0_energy">   -188.53034068 </i>
   </energy>
  </scstep>
  <scstep>
   <time name="dav">   29.44   29.52</time>
   <time name="total">   29.99   30.07</time>
   <energy>
    <i name="e_fr_energy">   -188.67291552 </i>
    <i name="e_wo_entrp">   -188.39008366 </i>
    <i name="e_0_energy">   -188.53149959 </i>
   </energy>
  </scstep>
  <scstep>
   <time name="dav">   30.56   30.63</time>
   <time name="total">   31.10   31.18</time>
   <energy>
    <i name="e_fr_energy">   -188.67133502 </i>
    <i name="e_wo_entrp">   -188.38874768 </i>
    <i name="e_0_energy">   -188.53004135 </i>
   </energy>
  </scstep>
  <scstep>
   <time name="dav">   26.62   26.68</time>
   <time name="total">   27.16   27.23</time>
   <energy>
    <i name="e_fr_energy">   -188.67148444 </i>
    <i name="e_wo_entrp">   -188.38901740 </i>
    <i name="e_0_energy">   -188.53025092 </i>
   </energy>
  </scstep>
  <scstep>
   <time name="dav">   25.52   25.58</time>
   <time name="total">   25.55   25.62</time>
   <energy>
    <i name="alphaZ">     78.91073969 </i>
    <i name="ewald">  39374.18404056 </i>
    <i name="hartreedc"> -45339.74899018 </i>
    <i name="XCdc">   -238.00001117 </i>
    <i name="pawpsdc">   3950.73876328 </i>
    <i name="pawaedc">  -3365.24579507 </i>
    <i name="eentropy">     -0.28247041 </i>
    <i name="bandstr">  -1410.67027866 </i>
    <i name="atom">   6761.44252427 </i>
    <i name="e_fr_energy">   -188.67147768 </i>
    <i name="e_wo_entrp">   -188.38900728 </i>
    <i name="e_0_energy">   -188.53024248 </i>
   </energy>
  </scstep>
  <structure>
   <crystal>
    <varray name="basis" >
     <v>       8.85660716       5.10960267       0.00000000 </v>
     <v>      -8.85297597       5.10335665       0.00000000 </v>
     <v>       0.00000000       0.00000000      30.00000000 </v>
    </varray>
    <i name="volume">   2713.00844187 </i>
    <varray name="rec_basis" >
     <v>       0.05643208       0.09789475       0.00000000 </v>
     <v>      -0.05650114       0.09793490       0.00000000 </v>
     <v>       0.00000000       0.00000000       0.03333333 </v>
    </varray>
   </crystal>
   <varray name="positions" >
    <v>       0.33107296      -0.00108166      -0.00000056 </v>
    <v>       0.33108161       0.33225597      -0.00000085 </v>
    <v>       0.33107773       0.66558921      -0.00000083 </v>
    <v>       1.00014208       0.33337824       0.00017219 </v>
    <v>       0.00013461       0.00003290       0.00017233 </v>
    <v>       0.00013170       0.66670514       0.00017249 </v>
    <v>       0.66911075       0.00119192      -0.00024121 </v>
    <v>       0.66911470       0.33453552      -0.00024121 </v>
    <v>       0.66911669       0.66785967      -0.00024146 </v>
    <v>       0.11546964       0.22430997       0.95196461 </v>
    <v>       0.22649285       0.11294843       0.04690124 </v>
    <v>       0.11546570       0.55764641       0.95196361 </v>
    <v>       0.22649578       0.44627851       0.04690208 </v>
    <v>       0.11546789       0.89097892       0.95196437 </v>
    <v>       0.22649148       0.77961219       0.04690110 </v>
    <v>       0.44084887       0.22060230       0.95318364 </v>
    <v>       0.55166357       0.10923176       0.04803269 </v>
    <v>       0.44084674       0.55393076       0.95318360 </v>
    <v>       0.55166242       0.44255856       0.04803226 </v>
    <v>       0.44084509       0.88726541       0.95318203 </v>
    <v>       0.55166241       0.77589069       0.04803321 </v>
    <v>       0.77660119       0.22154173       0.95069925 </v>
    <v>       0.88800421       0.11062296       0.04928894 </v>
    <v>       0.77660473       0.55487126       0.95070006 </v>
    <v>       0.88799838       0.44395952       0.04928883 </v>
    <v>       0.77660861       0.88820668       0.95069947 </v>
    <v>       0.88800209       0.77729148       0.04928801 </v>
   </varray>
  </structure>
  <varray name="forces" >
   <v>      -0.18116758      -0.31688441      -0.06689420 </v>
   <v>      -0.18637963      -0.31644093      -0.06673285 </v>
   <v>      -0.18363531      -0.32005349      -0.06640532 </v>
   <v>      -0.13577564      -0.23500279       0.01910021 </v>
   <v>      -0.13467384      -0.23231844       0.01958449 </v>
   <v>      -0.12861828      -0.23632119       0.01928542 </v>
   <v>       0.27660242       0.48496495       0.08495703 </v>
   <v>       0.27956384       0.48480624       0.08445295 </v>
   <v>       0.27563328       0.48190290       0.08539752 </v>
   <v>       0.03332497       0.08023713      -0.02257936 </v>
   <v>       0.00858299       0.04241735       0.02649666 </v>
   <v>       0.03635178       0.07859156      -0.02224296 </v>
   <v>       0.00785601       0.04057510       0.02505605 </v>
   <v>       0.03652870       0.07841066      -0.02295614 </v>
   <v>       0.00829877       0.04154178       0.02659853 </v>
   <v>       0.05708051       0.07270649       0.22081575 </v>
   <v>       0.05927411       0.06899959      -0.27848359 </v>
   <v>       0.05763010       0.07365435       0.21976547 </v>
   <v>       0.05653800       0.06954340      -0.27781486 </v>
   <v>       0.05907859       0.07474027       0.22187858 </v>
   <v>       0.05703312       0.07081401      -0.27998315 </v>
   <v>      -0.05962919      -0.08465338      -0.15285269 </v>
   <v>      -0.05998663      -0.11093903       0.16952625 </v>
   <v>      -0.06243155      -0.08359454      -0.15544910 </v>
   <v>      -0.05585832      -0.11005873       0.17099689 </v>
   <v>      -0.06399822      -0.08572722      -0.15292554 </v>
   <v>      -0.05722298      -0.11191164       0.17140793 </v>
  </varray>
  <varray name="stress" >
   <v>     -19.97400253      -0.06224791      -0.06707732 </v>
   <v>      -0.06224794     -19.60578409      -0.19228908 </v>
   <v>      -0.06707730      -0.19228894      -1.72029111 </v>
  </varray>
  <energy>
   <i name="e_fr_energy">   -188.67147768 </i>
   <i name="e_wo_entrp">   -188.53024248 </i>
   <i name="e_0_energy">     -0.28247041 </i>
  </energy>
  <time name="totalsc">  385.26  386.28</time>
 </calculation>
 <calculation>
  <scstep>
   <time name="dav">   23.74   23.80</time>
   <time name="total">   24.28   24.34</time>
   <energy>
    <i name="alphaZ">     82.34322708 </i>
    <i name="ewald">  41302.17100489 </i>
    <i name="hartreedc"> -47298.48863310 </i>
    <i name="XCdc">   -233.86697793 </i>
    <i name="pawpsdc">   3950.14017390 </i>
    <i name="pawaedc">  -3364.64086141 </i>
    <i name="eentropy">     -0.23711070 </i>
    <i name="bandstr">  -1389.47552441 </i>
    <i name="atom">   6761.44252427 </i>
    <i name="e_fr_energy">   -190.61217740 </i>
    <i name="e_wo_entrp">   -190.37506670 </i>
    <i name="e_0_energy">   -190.49362205 </i>
   </energy>
  </scstep>
  <scstep>
   <time name="dav">   30.43   30.50</time>
   <time name="total">   30.95   31.04</time>
   <energy>
    <i name="e_fr_energy">   -190.54099487 </i>
    <i name="e_wo_entrp">   -190.31368665 </i>
    <i name="e_0_energy">   -190.42734076 </i>
   </energy>
  </scstep>
  <scstep>
   <time name="dav">   30.25   30.32</time>
   <time name="total">   30.77   30.85</time>
   <energy>
    <i name="e_fr_energy">   -190.10929906 </i>
    <i name="e_wo_entrp">   -189.85752730 </i>
    <i name="e_0_energy">   -189.98341318 </i>
   </energy>
  </scstep>
  <scstep>
   <time name="dav">   31.47   31.55</time>
   <time name="total">   32.00   32.09</time>
   <energy>
    <i name="e_fr_energy">   -189.87782914 </i>
    <i name="e_wo_entrp">   -189.64573179 </i>
    <i name="e_0_energy">   -189.76178047 </i>
   </energy>
  </scstep>
  <scstep>
   <time name="dav">   29.28   29.35</time>
   <time name="total">   29.82   29.89</time>
   <energy>
    <i name="e_fr_energy">   -189.78734345 </i>
    <i name="e_wo_entrp">   -189.54860755 </i>
    <i name="e_0_energy">   -189.66797550 </i>
   </energy>
  </scstep>
  <scstep>
   <time name="dav">   26.81   26.88</time>
   <time name="total">   27.34   27.42</time>
   <energy>
    <i name="e_fr_energy">   -189.77601161 </i>
    <i name="e_wo_entrp">   -189.53798375 </i>
    <i name="e_0_energy">   -189.65699768 </i>
   </energy>
  </scstep>
  <scstep>
   <time name="dav">   28.26   28.33</time>
   <time name="total">   28.79   28.87</time>
   <energy>
    <i name="e_fr_energy">   -189.77704337 </i>
    <i name="e_wo_entrp">   -189.53881706 </i>
    <i name="e_0_energy">   -189.65793021 </i>
   </energy>
  </scstep>
  <scstep>
   <time name="dav">   28.14   28.20</time>
   <time name="total">   28.67   28.74</time>
   <energy>
    <i name="e_fr_energy">   -189.77616919 </i>
    <i name="e_wo_entrp">   -189.53793683 </i>
    <i name="e_0_energy">   -189.65705301 </i>
   </energy>
  </scstep>
  <scstep>
   <time name="dav">   25.71   25.77</time>
   <time name="total">   26.23   26.30</time>
   <energy>
    <i name="e_fr_energy">   -189.77642981 </i>
    <i name="e_wo_entrp">   -189.53797846 </i>
    <i name="e_0_energy">   -189.65720413 </i>
   </energy>
  </scstep>
  <scstep>
   <time name="dav">   23.39   23.44</time>
   <time name="total">   23.92   23.99</time>
   <energy>
    <i name="e_fr_energy">   -189.77622632 </i>
    <i name="e_wo_entrp">   -189.53773324 </i>
    <i name="e_0_energy">   -189.65697978 </i>
   </energy>
  </scstep>
  <scstep>
   <time name="dav">   18.34   18.39</time>
   <time name="total">   18.88   18.93</time>
   <energy>
    <i name="e_fr_energy">   -189.77633157 </i>
    <i name="e_wo_entrp">   -189.53783437 </i>
    <i name="e_0_energy">   -189.65708297 </i>
   </energy>
  </scstep>
  <scstep>
   <time name="dav">   17.50   17.55</time>
   <time name="total">   17.54   17.59</time>
   <energy>
    <i name="alphaZ">     82.34322708 </i>
    <i name="ewald">  41302.17100489 </i>
    <i name="hartreedc"> -47273.40390552 </i>
    <i name="XCdc">   -235.25685361 </i>
    <i name="pawpsdc">   4038.66533321 </i>
    <i name="pawaedc">  -3454.36344983 </i>
    <i name="eentropy">     -0.23848946 </i>
    <i name="bandstr">  -1411.13565521 </i>
    <i name="atom">   6761.44252427 </i>
    <i name="e_fr_energy">   -189.77626418 </i>
    <i name="e_wo_entrp">   -189.53777471 </i>
    <i name="e_0_energy">   -189.65701945 </i>
   </energy>
  </scstep>
  <structure>
   <crystal>
    <varray name="basis" >
     <v>       8.66797396       5.00238649       0.00000000 </v>
     <v>      -8.66509665       4.99744419       0.00000000 </v>
     <v>       0.00000000       0.00000000      30.00000000 </v>
    </varray>
    <i name="volume">   2599.91635657 </i>
    <varray name="rec_basis" >
     <v>       0.05766467       0.09998510       0.00000000 </v>
     <v>      -0.05772170       0.10001830       0.00000000 </v>
     <v>       0.00000000       0.00000000       0.03333333 </v>
    </varray>
   </crystal>
   <varray name="positions" >
    <v>       0.33037296      -0.00143464      -0.00003840 </v>
    <v>       0.33037735       0.33190873      -0.00003860 </v>
    <v>       0.33037009       0.66523333      -0.00003840 </v>
    <v>       0.99962159       0.33311784       0.00018300 </v>
    <v>      -0.00038037      -0.00022411       0.00018341 </v>
    <v>      -0.00038412       0.66643568       0.00018340 </v>
    <v>       0.67018141       0.00173276      -0.00019315 </v>
    <v>       0.67018794       0.33507325      -0.00019343 </v>
    <v>       0.67018133       0.66839635      -0.00019314 </v>
    <v>       0.11563487       0.22441138       0.95195184 </v>
    <v>       0.22657155       0.11301070       0.04691623 </v>
    <v>       0.11563109       0.55774218       0.95195102 </v>
    <v>       0.22657072       0.44633842       0.04691626 </v>
    <v>       0.11563315       0.89107422       0.95195138 </v>
    <v>       0.22656845       0.77967328       0.04691614 </v>
    <v>       0.44102433       0.22066841       0.95330856 </v>
    <v>       0.55183498       0.10928961       0.04787515 </v>
    <v>       0.44102431       0.55399792       0.95330793 </v>
    <v>       0.55183211       0.44261993       0.04787509 </v>
    <v>       0.44102585       0.88733299       0.95330755 </v>
    <v>       0.55183469       0.77595371       0.04787481 </v>
    <v>       0.77640344       0.22145821       0.95061278 </v>
    <v>       0.88776244       0.11049609       0.04938485 </v>
    <v>       0.77640605       0.55479218       0.95061212 </v>
    <v>       0.88776202       0.44383015       0.04938557 </v>
    <v>       0.77640488       0.88812556       0.95061296 </v>
    <v>       0.88776134       0.77716034       0.04938498 </v>
   </varray>
  </structure>
  <varray name="forces" >
   <v>      -0.17792344      -0.30842024      -0.07275588 </v>
   <v>      -0.17676142      -0.30937777      -0.07294859 </v>
   <v>      -0.17625507      -0.30939800      -0.07263174 </v>
   <v>      -0.18269674      -0.32095565      -0.00814625 </v>
   <v>      -0.18206863      -0.32013104      -0.00843773 </v>
   <v>      -0.18358653      -0.32231229      -0.00825576 </v>
   <v>       0.30474265       0.53323041       0.10365840 </v>
   <v>       0.30440055       0.53399252       0.10342864 </v>
   <v>       0.30659679       0.53287427       0.10356960 </v>
   <v>       0.06597447       0.12887978      -0.49978268 </v>
   <v>       0.04022493       0.09690031       0.48155088 </v>
   <v>       0.06655634       0.12994568      -0.49993670 </v>
   <v>       0.03860855       0.09806938       0.48203350 </v>
   <v>       0.06646227       0.12975799      -0.49891023 </v>
   <v>       0.03970865       0.09808441       0.48081520 </v>
   <v>      -0.00767169      -0.04076363      -0.21335290 </v>
   <v>      -0.01649627      -0.05440717       0.20391389 </v>
   <v>      -0.00959406      -0.03966996      -0.21357118 </v>
   <v>      -0.01586343      -0.05369295       0.20497025 </v>
   <v>      -0.00898626      -0.04097975      -0.21277067 </v>
   <v>      -0.01635333      -0.05467121       0.20392152 </v>
   <v>      -0.01617745      -0.00816657      -0.73639019 </v>
   <v>      -0.01019817      -0.02736237       0.74078624 </v>
   <v>      -0.01597862      -0.00818837      -0.73669710 </v>
   <v>      -0.01033997      -0.02764611       0.74131139 </v>
   <v>      -0.01568871      -0.00832734      -0.73589995 </v>
   <v>      -0.01063543      -0.02726433       0.74052802 </v>
  </varray>
  <varray name="stress" >
   <v>     -10.23485628      -0.02001649      -0.08658299 </v>
   <v>      -0.02001650      -9.91672468      -0.19640725 </v>
   <v>      -0.08658304      -0.19640706       6.53767716 </v>
  </varray>
  <energy>
   <i name="e_fr_energy">   -189.77626418 </i>
   <i name="e_wo_entrp">   -189.65701945 </i>
   <i name="e_0_energy">     -0.23848946 </i>
  </energy>
  <time name="totalsc">  361.26  362.22</time>
 </calculation>
 <calculation>
  <scstep>
   <time name="dav">   21.57   21.63</time>
   <time name="total">   22.09   22.14</time>
   <energy>
    <i name="alphaZ">     85.85323413 </i>
    <i name="ewald">  42850.04722690 </i>
    <i name="hartreedc"> -48866.10151420 </i>
    <i name="XCdc">   -232.94219411 </i>
    <i name="pawpsdc">   4038.66119221 </i>
    <i name="pawaedc">  -3454.35632970 </i>
    <i name="eentropy">     -0.19168212 </i>
    <i name="bandstr">  -1373.81705162 </i>
    <i name="atom">   6761.44252427 </i>
    <i name="e_fr_energy">   -191.40459425 </i>
    <i name="e_wo_entrp">   -191.21291212 </i>
    <i name="e_0_energy">   -191.30875319 </i>
   </energy>
  </scstep>
  <scstep>
   <time name="dav">   32.50   32.58</time>
   <time name="total">   33.02   33.10</time>
   <energy>
    <i name="e_fr_energy">   -191.12700219 </i>
    <i name="e_wo_entrp">   -190.93746360 </i>
    <i name="e_0_energy">   -191.03223290 </i>
   </energy>
  </scstep>
  <scstep>
   <time name="dav">   30.23   30.30</time>
   <time name="total">   30.74   30.82</time>
   <energy>
    <i name="e_fr_energy">   -191.36608923 </i>
    <i name="e_wo_entrp">   -191.14234955 </i>
    <i name="e_0_energy">   -191.25421939 </i>
   </energy>
  </scstep>
  <scstep>
   <time name="dav">   29.99   30.06</time>
   <time name="total">   30.50   30.58</time>
   <energy>
    <i name="e_fr_energy">   -190.96478777 </i>
    <i name="e_wo_entrp">   -190.78014984 </i>
    <i name="e_0_energy">   -190.87246881 </i>
   </energy>
  </scstep>
  <scstep>
   <time name="dav">   30.44   30.51</time>
   <time name="total">   30.95   31.03</time>
   <energy>
    <i name="e_fr_energy">   -190.83200333 </i>
    <i name="e_wo_entrp">   -190.63363919 </i>
    <i name="e_0_energy">   -190.73282126 </i>
   </energy>
  </scstep>
  <scstep>
   <time name="dav">   27.56   27.62</time>
   <time name="total">   28.07   28.15</time>
   <energy>
    <i name="e_fr_energy">   -190.82145448 </i>
    <i name="e_wo_entrp">   -190.62408866 </i>
    <i name="e_0_energy">   -190.72277157 </i>
   </energy>
  </scstep>
  <scstep>
   <time name="dav">   28.76   28.83</time>
   <time name="total">   29.28   29.35</time>
   <energy>
    <i name="e_fr_energy">   -190.82384034 </i>
    <i name="e_wo_entrp">   -190.62561576 </i>
    <i name="e_0_energy">   -190.72472805 </i>
   </energy>
  </scstep>
  <scstep>
   <time name="dav">   29.45   29.52</time>
   <time name="total">   29.97   30.05</time>
   <energy>
    <i name="e_fr_energy">   -190.81749849 </i>
    <i name="e_wo_entrp">   -190.61944062 </i>
    <i name="e_0_energy">   -190.71846956 </i>
   </energy>
  </scstep>
  <scstep>
   <time name="dav">   27.50   27.57</time>
   <time name="total">   28.02   28.09</time>
   <energy>
    <i name="e_fr_energy">   -190.81767472 </i>
    <i name="e_wo_entrp">   -190.61934318 </i>
    <i name="e_0_energy">   -190.71850895 </i>
   </energy>
  </scstep>
  <scstep>
   <time name="dav">   26.83   26.89</time>
   <time name="total">   27.34   27.42</time>
   <energy>
    <i name="e_fr_energy">   -190.81797075 </i>
    <i name="e_wo_entrp">   -190.61957333 </i>
    <i name="e_0_energy">   -190.71877204 </i>
   </energy>
  </scstep>
  <scstep>
   <time name="dav">   21.86   21.91</time>
   <time name="total">   22.37   22.43</time>
   <energy>
    <i name="e_fr_energy">   -190.81764544 </i>
    <i name="e_wo_entrp">   -190.61919775 </i>
    <i name="e_0_energy">   -190.71842159 </i>
   </energy>
  </scstep>
  <scstep>
   <time name="dav">   17.00   17.04</time>
   <time name="total">   17.03   17.08</time>
   <energy>
    <i name="alphaZ">     85.85323413 </i>
    <i name="ewald">  42850.04722690 </i>
    <i name="hartreedc"> -48837.66222253 </i>
    <i name="XCdc">   -234.28803839 </i>
    <i name="pawpsdc">   4064.36713828 </i>
    <i name="pawaedc">  -3480.24361906 </i>
    <i name="eentropy">     -0.19843282 </i>
    <i name="bandstr">  -1400.13548487 </i>
    <i name="atom">   6761.44252427 </i>
    <i name="e_fr_energy">   -190.81767409 </i>
    <i name="e_wo_entrp">   -190.61924127 </i>
    <i name="e_0_energy">   -190.71845768 </i>
   </energy>
  </scstep>
  <structure>
   <crystal>
    <varray name="basis" >
     <v>       8.48433246       4.90170558       0.00000000 </v>
     <v>      -8.48152748       4.89688245       0.00000000 </v>
     <v>       0.00000000       0.00000000      30.00000000 </v>
    </varray>
    <i name="volume">   2493.62187829 </i>
    <varray name="rec_basis" >
     <v>       0.05891289       0.10203866       0.00000000 </v>
     <v>      -0.05897092       0.10207240       0.00000000 </v>
     <v>       0.00000000       0.00000000       0.03333333 </v>
    </varray>
   </crystal>
   <varray name="positions" >
    <v>       0.32782184      -0.00270824      -0.00019418 </v>
    <v>       0.32783015       0.33061216      -0.00019509 </v>
    <v>       0.32783037       0.66394707      -0.00019424 </v>
    <v>       0.99666485       0.33161838       0.00014282 </v>
    <v>      -0.00333502      -0.00172465       0.00014196 </v>
    <v>      -0.00336433       0.66494250       0.00014274 </v>
    <v>       0.67478852       0.00405421       0.00003765 </v>
    <v>       0.67479612       0.33740783       0.00003713 </v>
    <v>       0.67480380       0.67071156       0.00003702 </v>
    <v>       0.11685090       0.22505571       0.95050806 </v>
    <v>       0.22750718       0.11356382       0.04830329 </v>
    <v>       0.11685919       0.55840144       0.95050651 </v>
    <v>       0.22751411       0.44691357       0.04830596 </v>
    <v>       0.11685932       0.89173302       0.95051048 </v>
    <v>       0.22751447       0.78024121       0.04830096 </v>
    <v>       0.44036228       0.22024929       0.95249514 </v>
    <v>       0.55101457       0.10880788       0.04871025 </v>
    <v>       0.44035895       0.55359657       0.95249476 </v>
    <v>       0.55102378       0.44213593       0.04871272 </v>
    <v>       0.44034725       0.88691642       0.95249493 </v>
    <v>       0.55101137       0.77546112       0.04871122 </v>
    <v>       0.77654875       0.22159474       0.94858776 </v>
    <v>       0.88783601       0.11049923       0.05140848 </v>
    <v>       0.77655357       0.55492079       0.94858842 </v>
    <v>       0.88782419       0.44383529       0.05140948 </v>
    <v>       0.77656028       0.88825457       0.94858944 </v>
    <v>       0.88783200       0.77717301       0.05140624 </v>
   </varray>
  </structure>
  <varray name="forces" >
   <v>      -0.19277701      -0.33916815      -0.04125494 </v>
   <v>      -0.19439841      -0.33722285      -0.04208340 </v>
   <v>      -0.19548483      -0.33812602      -0.04185076 </v>
   <v>      -0.21559505      -0.36946586      -0.01831916 </v>
   <v>      -0.21118743      -0.37133169      -0.01816119 </v>
   <v>      -0.21334018      -0.37266251      -0.01784703 </v>
   <v>       0.32695474       0.56836008       0.04467746 </v>
   <v>       0.32794111       0.57183518       0.04487079 </v>
   <v>       0.33047190       0.56889667       0.04404654 </v>
   <v>      -0.00143043      -0.00337215      -0.35289913 </v>
   <v>      -0.02533990      -0.02024193       0.37336958 </v>
   <v>      -0.00186124      -0.00445916      -0.35240700 </v>
   <v>      -0.02290170      -0.02132653       0.37138743 </v>
   <v>      -0.00098724      -0.00545045      -0.35489551 </v>
   <v>      -0.02399824      -0.02213346       0.37238594 </v>
   <v>       0.03692748       0.04834206      -0.10377328 </v>
   <v>       0.00830949       0.01413399       0.05076580 </v>
   <v>       0.03831705       0.04708541      -0.10227581 </v>
   <v>       0.00653499       0.01289710       0.05143983 </v>
   <v>       0.03907173       0.04826583      -0.10371480 </v>
   <v>       0.00776904       0.01421454       0.04991923 </v>
   <v>       0.01408056       0.02154238      -0.55415786 </v>
   <v>       0.04515661       0.08154868       0.60267465 </v>
   <v>       0.01337715       0.02212435      -0.55742983 </v>
   <v>       0.04587869       0.08261237       0.60400815 </v>
   <v>       0.01240965       0.02134780      -0.55457486 </v>
   <v>       0.04610147       0.08175434       0.60609917 </v>
  </varray>
  <varray name="stress" >
   <v>      -5.93723102       0.18182355      -0.04690314 </v>
   <v>       0.18182348      -5.75511946       0.04845605 </v>
   <v>      -0.04690304       0.04845605       4.69122792 </v>
  </varray>
  <energy>
   <i name="e_fr_energy">   -190.81767409 </i>
   <i name="e_wo_entrp">   -190.71845768 </i>
   <i name="e_0_energy">     -0.19843282 </i>
  </energy>
  <time name="totalsc">  371.17  372.15</time>
 </calculation>
 <calculation>
  <scstep>
   <time name="dav">   21.59   21.64</time>
   <time name="total">   22.10   22.15</time>
   <energy>
    <i name="alphaZ">     90.33866185 </i>
    <i name="ewald">  44731.32486768 </i>
    <i name="hartreedc"> -50775.91597623 </i>
    <i name="XCdc">   -231.79270408 </i>
    <i name="pawpsdc">   4064.25674242 </i>
    <i name="pawaedc">  -3480.12912807 </i>
    <i name="eentropy">     -0.14803253 </i>
    <i name="bandstr">  -1351.72561646 </i>
    <i name="atom">   6761.44252427 </i>
    <i name="e_fr_energy">   -192.34866117 </i>
    <i name="e_wo_entrp">   -192.20062863 </i>
    <i name="e_0_energy">   -192.27464490 </i>
   </energy>
  </scstep>
  <scstep>
   <time name="dav">   28.33   28.40</time>
   <time name="total">   28.83   28.91</time>
   <energy>
    <i name="e_fr_energy">   -192.11758105 </i>
    <i name="e_wo_entrp">   -191.91997241 </i>
    <i name="e_0_energy">   -192.01877673 </i>
   </energy>
  </scstep>
  <scstep>
   <time name="dav">   30.85   30.92</time>
   <time name="total">   31.35   31.43</time>
   <energy>
    <i name="e_fr_energy">   -192.43466922 </i>
    <i name="e_wo_entrp">   -192.29897615 </i>
    <i name="e_0_energy">   -192.36682268 </i>
   </energy>
  </scstep>
  <scstep>
   <time name="dav">   30.05   30.12</time>
   <time name="total">   30.55   30.64</time>
   <energy>
    <i name="e_fr_energy">   -191.73683349 </i>
    <i name="e_wo_entrp">   -191.56609548 </i>
    <i name="e_0_energy">   -191.65146448 </i>
   </energy>
  </scstep>
  <scstep>
   <time name="dav">   30.23   30.30</time>
   <time name="total">   30.73   30.82</time>
   <energy>
    <i name="e_fr_energy">   -191.63919442 </i>
    <i name="e_wo_entrp">   -191.47566748 </i>
    <i name="e_0_energy">   -191.55743095 </i>
   </energy>
  </scstep>
  <scstep>
   <time name="dav">   31.62   31.69</time>
   <time name="total">   32.12   32.21</time>
   <energy>
    <i name="e_fr_energy">   -191.63451361 </i>
    <i name="e_wo_entrp">   -191.46764592 </i>
    <i name="e_0_energy">   -191.55107977 </i>
   </energy>
  </scstep>
  <scstep>
   <time name="dav">   26.90   26.96</time>
   <time name="total">   27.41   27.48</time>
   <energy>
    <i name="e_fr_energy">   -191.62779966 </i>
    <i name="e_wo_entrp">   -191.46017934 </i>
    <i name="e_0_energy">   -191.54398950 </i>
   </energy>
  </scstep>
  <scstep>
   <time name="dav">   30.59   30.66</time>
   <time name="total">   31.09   31.17</time>
   <energy>
    <i name="e_fr_energy">   -191.62987447 </i>
    <i name="e_wo_entrp">   -191.46216434 </i>
    <i name="e_0_energy">   -191.54601940 </i>
   </energy>
  </scstep>
  <scstep>
   <time name="dav">   28.85   28.92</time>
   <time name="total">   29.36   29.44</time>
   <energy>
    <i name="e_fr_energy">   -191.62795664 </i>
    <i name="e_wo_entrp">   -191.46044363 </i>
    <i name="e_0_energy">   -191.54420014 </i>
   </energy>
  </scstep>
  <scstep>
   <time name="dav">   19.03   19.08</time>
   <time name="total">   19.07   19.12</time>
   <energy>
    <i name="alphaZ">     90.33866185 </i>
    <i name="ewald">  44731.32486768 </i>
    <i name="hartreedc"> -50740.33408796 </i>
    <i name="XCdc">   -233.34590546 </i>
    <i name="pawpsdc">   4087.97892739 </i>
    <i name="pawaedc">  -3503.94935429 </i>
    <i name="eentropy">     -0.16778637 </i>
    <i name="bandstr">  -1384.91579061 </i>
    <i name="atom">   6761.44252427 </i>
    <i name="e_fr_energy">   -191.62794350 </i>
    <i name="e_wo_entrp">   -191.46015713 </i>
    <i name="e_0_energy">   -191.54405031 </i>
   </energy>
  </scstep>
  <structure>
   <crystal>
    <varray name="basis" >
     <v>       8.27142469       4.79150468       0.00000000 </v>
     <v>      -8.25721095       4.76691954       0.00000000 </v>
     <v>       0.00000000       0.00000000      30.00000000 </v>
    </varray>
    <i name="volume">   2369.81042842 </i>
    <varray name="rec_basis" >
     <v>       0.06034558       0.10453002       0.00000000 </v>
     <v>      -0.06065681       0.10470995       0.00000000 </v>
     <v>       0.00000000       0.00000000       0.03333333 </v>
    </varray>
   </crystal>
   <varray name="positions" >
    <v>       0.32231254      -0.00548722      -0.00038474 </v>
    <v>       0.32233794       0.32784628      -0.00038901 </v>
    <v>       0.32232903       0.66119219      -0.00038718 </v>
    <v>       0.99029657       0.32844445       0.00004655 </v>
    <v>      -0.00970031      -0.00494990       0.00004531 </v>
    <v>      -0.00977004       0.66173246       0.00004777 </v>
    <v>       0.68432222       0.00883623       0.00027013 </v>
    <v>       0.68437130       0.34223108       0.00027044 </v>
    <v>       0.68437915       0.67547827       0.00026670 </v>
    <v>       0.11729127       0.22527198       0.94851374 </v>
    <v>       0.22755371       0.11373708       0.05033705 </v>
    <v>       0.11729147       0.55862219       0.94851333 </v>
    <v>       0.22757193       0.44707411       0.05033497 </v>
    <v>       0.11728547       0.89193791       0.94851089 </v>
    <v>       0.22755624       0.78039487       0.05033002 </v>
    <v>       0.44058567       0.22025137       0.95157536 </v>
    <v>       0.55061281       0.10859486       0.04948763 </v>
    <v>       0.44057364       0.55358496       0.95158096 </v>
    <v>       0.55060585       0.44191597       0.04949343 </v>
    <v>       0.44056910       0.88690430       0.95157518 </v>
    <v>       0.55060473       0.77524147       0.04948716 </v>
    <v>       0.77713881       0.22189344       0.94565017 </v>
    <v>       0.88926814       0.11122117       0.05450627 </v>
    <v>       0.77714761       0.55522152       0.94564150 </v>
    <v>       0.88926084       0.44456769       0.05451129 </v>
    <v>       0.77714912       0.88855518       0.94565123 </v>
    <v>       0.88926964       0.77790055       0.05451375 </v>
   </varray>
  </structure>
  <varray name="forces" >
   <v>      -0.25101172      -0.43696815       0.02528014 </v>
   <v>      -0.25741078      -0.44117014       0.02516370 </v>
   <v>      -0.25077699      -0.44335821       0.02598299 </v>
   <v>      -0.05123805      -0.08798891       0.15657291 </v>
   <v>      -0.05780675      -0.08876616       0.15740127 </v>
   <v>      -0.05299726      -0.08966858       0.15753233 </v>
   <v>       0.22114074       0.37403603      -0.11557636 </v>
   <v>       0.21795274       0.37150358      -0.11830863 </v>
   <v>       0.21795196       0.37183638      -0.11555290 </v>
   <v>      -0.11073694      -0.19185063      -0.10191486 </v>
   <v>      -0.07562817      -0.13039778       0.05148162 </v>
   <v>      -0.10952306      -0.19099030      -0.10194809 </v>
   <v>      -0.07601032      -0.12945490       0.04929806 </v>
   <v>      -0.11018836      -0.19369822      -0.10514413 </v>
   <v>      -0.07381584      -0.13142434       0.05146890 </v>
   <v>       0.09822269       0.17199427       0.22391688 </v>
   <v>       0.08443107       0.15095795      -0.24126735 </v>
   <v>       0.09773895       0.17190796       0.22423294 </v>
   <v>       0.08460564       0.15107757      -0.24109680 </v>
   <v>       0.09859477       0.17052441       0.22433822 </v>
   <v>       0.08516488       0.14952914      -0.24406460 </v>
   <v>      -0.00058047      -0.00116196      -0.24348112 </v>
   <v>       0.09039178       0.15898622       0.24719486 </v>
   <v>      -0.00051934      -0.00148308      -0.24708829 </v>
   <v>       0.09151199       0.16015114       0.25081218 </v>
   <v>      -0.00053321      -0.00216583      -0.24465038 </v>
   <v>       0.09107006       0.15804256       0.24941651 </v>
  </varray>
  <varray name="stress" >
   <v>      -0.34539636       0.51720032       0.40013502 </v>
   <v>       0.51720046       0.29834496       0.71044207 </v>
   <v>       0.40013496       0.71044198      -0.38744624 </v>
  </varray>
  <energy>
   <i name="e_fr_energy">   -191.62794350 </i>
   <i name="e_wo_entrp">   -191.54405031 </i>
   <i name="e_0_energy">     -0.16778637 </i>
  </energy>
  <time name="totalsc">  325.04  325.90</time>
 </calculation>
 <calculation>
  <scstep>
   <time name="dav">   21.57   21.62</time>
   <time name="total">   22.08   22.13</time>
   <energy>
    <i name="alphaZ">     90.36960874 </i>
    <i name="ewald">  44726.08793038 </i>
    <i name="hartreedc"> -50736.03888553 </i>
    <i name="XCdc">   -233.40678623 </i>
    <i name="pawpsdc">   4087.94095238 </i>
    <i name="pawaedc">  -3503.90871603 </i>
    <i name="eentropy">     -0.15888353 </i>
    <i name="bandstr">  -1384.07295843 </i>
    <i name="atom">   6761.44252427 </i>
    <i name="e_fr_energy">   -191.74521397 </i>
    <i name="e_wo_entrp">   -191.58633044 </i>
    <i name="e_0_energy">   -191.66577220 </i>
   </energy>
  </scstep>
  <scstep>
   <time name="dav">   30.78   30.85</time>
   <time name="total">   31.28   31.36</time>
   <energy>
    <i name="e_fr_energy">   -191.82225478 </i>
    <i name="e_wo_entrp">   -191.62921853 </i>
    <i name="e_0_energy">   -191.72573666 </i>
   </energy>
  </scstep>
  <scstep>
   <time name="dav">   30.46   30.54</time>
   <time name="total">   30.97   31.05</time>
   <energy>
    <i name="e_fr_energy">   -191.76654587 </i>
    <i name="e_wo_entrp">   -191.60626053 </i>
    <i name="e_0_energy">   -191.68640320 </i>
   </energy>
  </scstep>
  <scstep>
   <time name="dav">   28.95   29.02</time>
   <time name="total">   29.45   29.53</time>
   <energy>
    <i name="e_fr_energy">   -191.76346412 </i>
    <i name="e_wo_entrp">   -191.59846956 </i>
    <i name="e_0_energy">   -191.68096684 </i>
   </energy>
  </scstep>
  <scstep>
   <time name="dav">   29.56   29.63</time>
   <time name="total">   30.07   30.14</time>
   <energy>
    <i name="e_fr_energy">   -191.76379825 </i>
    <i name="e_wo_entrp">   -191.59730666 </i>
    <i name="e_0_energy">   -191.68055245 </i>
   </energy>
  </scstep>
  <scstep>
   <time name="dav">   30.71   30.78</time>
   <time name="total">   31.21   31.29</time>
   <energy>
    <i name="e_fr_energy">   -191.76226880 </i>
    <i name="e_wo_entrp">   -191.59606212 </i>
    <i name="e_0_energy">   -191.67916546 </i>
   </energy>
  </scstep>
  <scstep>
   <time name="dav">   26.62   26.68</time>
   <time name="total">   27.12   27.20</time>
   <energy>
    <i name="e_fr_energy">   -191.76150947 </i>
    <i name="e_wo_entrp">   -191.59570214 </i>
    <i name="e_0_energy">   -191.67860581 </i>
   </energy>
  </scstep>
  <scstep>
   <time name="dav">   22.95   23.01</time>
   <time name="total">   23.45   23.52</time>
   <energy>
    <i name="e_fr_energy">   -191.76165580 </i>
    <i name="e_wo_entrp">   -191.59586942 </i>
    <i name="e_0_energy">   -191.67876261 </i>
   </energy>
  </scstep>
  <scstep>
   <time name="dav">   19.79   19.84</time>
   <time name="total">   20.30   20.35</time>
   <energy>
    <i name="e_fr_energy">   -191.76152315 </i>
    <i name="e_wo_entrp">   -191.59575898 </i>
    <i name="e_0_energy">   -191.67864107 </i>
   </energy>
  </scstep>
  <scstep>
   <time name="dav">   17.73   17.77</time>
   <time name="total">   17.77   17.82</time>
   <energy>
    <i name="alphaZ">     90.36960874 </i>
    <i name="ewald">  44726.08793038 </i>
    <i name="hartreedc"> -50737.13700273 </i>
    <i name="XCdc">   -233.38704406 </i>
    <i name="pawpsdc">   4086.46522973 </i>
    <i name="pawaedc">  -3502.39818759 </i>
    <i name="eentropy">     -0.16582991 </i>
    <i name="bandstr">  -1383.03877368 </i>
    <i name="atom">   6761.44252427 </i>
    <i name="e_fr_energy">   -191.76154485 </i>
    <i name="e_wo_entrp">   -191.59571494 </i>
    <i name="e_0_energy">   -191.67862989 </i>
   </energy>
  </scstep>
  <structure>
   <crystal>
    <varray name="basis" >
     <v>       8.26952789       4.80634264       0.00000000 </v>
     <v>      -8.24203239       4.75874784       0.00000000 </v>
     <v>       0.00000000       0.00000000      30.00000000 </v>
    </varray>
    <i name="volume">   2368.99889148 </i>
    <varray name="rec_basis" >
     <v>       0.06026277       0.10437361       0.00000000 </v>
     <v>      -0.06086549       0.10472180       0.00000000 </v>
     <v>       0.00000000       0.00000000       0.03333333 </v>
    </varray>
   </crystal>
   <varray name="positions" >
    <v>       0.31930514      -0.00699678      -0.00034507 </v>
    <v>       0.31929040       0.32633417      -0.00034955 </v>
    <v>       0.31928985       0.65964941      -0.00034638 </v>
    <v>       0.98965051       0.32812335       0.00030050 </v>
    <v>      -0.01036968      -0.00525588       0.00030060 </v>
    <v>      -0.01043018       0.66140782       0.00030330 </v>
    <v>       0.68695008       0.01012734       0.00008398 </v>
    <v>       0.68697710       0.34351901       0.00007985 </v>
    <v>       0.68698674       0.67676749       0.00008057 </v>
    <v>       0.11599169       0.22462200       0.94833117 </v>
    <v>       0.22666823       0.11329691       0.05043763 </v>
    <v>       0.11599984       0.55797312       0.94833072 </v>
    <v>       0.22669025       0.44663988       0.05043199 </v>
    <v>       0.11597803       0.89127687       0.94832305 </v>
    <v>       0.22667086       0.77994400       0.05043055 </v>
    <v>       0.44175109       0.22083806       0.95193083 </v>
    <v>       0.55162587       0.10911336       0.04910327 </v>
    <v>       0.44173712       0.55417260       0.95193698 </v>
    <v>       0.55161997       0.44243450       0.04910937 </v>
    <v>       0.44172803       0.88748228       0.95193133 </v>
    <v>       0.55161262       0.77575041       0.04909825 </v>
    <v>       0.77713638       0.22189195       0.94523001 </v>
    <v>       0.89035612       0.11177137       0.05493344 </v>
    <v>       0.77714376       0.55521818       0.94521542 </v>
    <v>       0.89035804       0.44512061       0.05494436 </v>
    <v>       0.77714176       0.88854840       0.94522916 </v>
    <v>       0.89035483       0.77844401       0.05494458 </v>
   </varray>
  </structure>
  <varray name="forces" >
   <v>      -0.27659290      -0.48162454      -0.05281840 </v>
   <v>      -0.27516489      -0.48065989      -0.05101257 </v>
   <v>      -0.27727037      -0.48064391      -0.05190572 </v>
   <v>      -0.04994516      -0.08663016       0.03141774 </v>
   <v>      -0.04977615      -0.08470025       0.03100235 </v>
   <v>      -0.04879194      -0.08319917       0.03090647 </v>
   <v>       0.24054456       0.41486894      -0.03912289 </v>
   <v>       0.24051140       0.41369146      -0.03718746 </v>
   <v>       0.24037528       0.41280964      -0.03838988 </v>
   <v>      -0.07066635      -0.12253204      -0.05046158 </v>
   <v>      -0.04176555      -0.07229971       0.10430840 </v>
   <v>      -0.07096393      -0.12399278      -0.05128630 </v>
   <v>      -0.04188440      -0.07463486       0.10815096 </v>
   <v>      -0.06940612      -0.12087219      -0.04693387 </v>
   <v>      -0.04481178      -0.07191513       0.10669650 </v>
   <v>       0.06732435       0.11681963       0.28668320 </v>
   <v>       0.05210067       0.09340328      -0.29461622 </v>
   <v>       0.06970576       0.11793271       0.28381963 </v>
   <v>       0.05253299       0.09367682      -0.29428413 </v>
   <v>       0.06671522       0.11852334       0.28542702 </v>
   <v>       0.05332478       0.09478462      -0.29324962 </v>
   <v>       0.03473838       0.05673966      -0.18642360 </v>
   <v>       0.04329280       0.07988136       0.19870195 </v>
   <v>       0.03361681       0.05675647      -0.18682503 </v>
   <v>       0.04469379       0.07850669       0.19659281 </v>
   <v>       0.03369027       0.05611423      -0.18676547 </v>
   <v>       0.04387249       0.07919579       0.19757572 </v>
  </varray>
  <varray name="stress" >
   <v>       0.06998618      -0.02213490       0.09475164 </v>
   <v>      -0.02213484       0.04122347       0.19575715 </v>
   <v>       0.09475198       0.19575709      -1.19924516 </v>
  </varray>
  <energy>
   <i name="e_fr_energy">   -191.76154485 </i>
   <i name="e_wo_entrp">   -191.67862989 </i>
   <i name="e_0_energy">     -0.16582991 </i>
  </energy>
  <time name="totalsc">  305.91  306.72</time>
 </calculation>
 <calculation>
  <scstep>
   <time name="dav">   21.57   21.62</time>
   <time name="total">   22.07   22.13</time>
   <energy>
    <i name="alphaZ">     90.32879964 </i>
    <i name="ewald">  44710.45215152 </i>
    <i name="hartreedc"> -50720.83467656 </i>
    <i name="XCdc">   -233.40941664 </i>
    <i name="pawpsdc">   4086.44191409 </i>
    <i name="pawaedc">  -3502.37448246 </i>
    <i name="eentropy">     -0.15759394 </i>
    <i name="bandstr">  -1383.74628038 </i>
    <i name="atom">   6761.44252427 </i>
    <i name="e_fr_energy">   -191.85706045 </i>
    <i name="e_wo_entrp">   -191.69946651 </i>
    <i name="e_0_energy">   -191.77826348 </i>
   </energy>
  </scstep>
  <scstep>
   <time name="dav">   30.94   31.01</time>
   <time name="total">   31.44   31.53</time>
   <energy>
    <i name="e_fr_energy">   -191.87916115 </i>
    <i name="e_wo_entrp">   -191.70570416 </i>
    <i name="e_0_energy">   -191.79243265 </i>
   </energy>
  </scstep>
  <scstep>
   <time name="dav">   30.22   30.29</time>
   <time name="total">   30.73   30.81</time>
   <energy>
    <i name="e_fr_energy">   -191.86724167 </i>
    <i name="e_wo_entrp">   -191.71173206 </i>
    <i name="e_0_energy">   -191.78948686 </i>
   </energy>
  </scstep>
  <scstep>
   <time name="dav">   28.64   28.71</time>
   <time name="total">   29.14   29.22</time>
   <energy>
    <i name="e_fr_energy">   -191.86433514 </i>
    <i name="e_wo_entrp">   -191.70445861 </i>
    <i name="e_0_energy">   -191.78439688 </i>
   </energy>
  </scstep>
  <scstep>
   <time name="dav">   27.81   27.88</time>
   <time name="total">   28.32   28.39</time>
   <energy>
    <i name="e_fr_energy">   -191.86456161 </i>
    <i name="e_wo_entrp">   -191.70443621 </i>
    <i name="e_0_energy">   -191.78449891 </i>
   </energy>
  </scstep>
  <scstep>
   <time name="dav">   29.29   29.37</time>
   <time name="total">   29.80   29.88</time>
   <energy>
    <i name="e_fr_energy">   -191.86434694 </i>
    <i name="e_wo_entrp">   -191.70449396 </i>
    <i name="e_0_energy">   -191.78442045 </i>
   </energy>
  </scstep>
  <scstep>
   <time name="dav">   22.49   22.54</time>
   <time name="total">   22.99   23.06</time>
   <energy>
    <i name="e_fr_energy">   -191.86398390 </i>
    <i name="e_wo_entrp">   -191.70419352 </i>
    <i name="e_0_energy">   -191.78408871 </i>
   </energy>
  </scstep>
  <scstep>
   <time name="dav">   17.41   17.45</time>
   <time name="total">   17.45   17.50</time>
   <energy>
    <i name="alphaZ">     90.32879964 </i>
    <i name="ewald">  44710.45215152 </i>
    <i name="hartreedc"> -50721.69133168 </i>
    <i name="XCdc">   -233.37504156 </i>
    <i name="pawpsdc">   4088.82305711 </i>
    <i name="pawaedc">  -3504.78151211 </i>
    <i name="eentropy">     -0.15978626 </i>
    <i name="bandstr">  -1382.90283856 </i>
    <i name="atom">   6761.44252427 </i>
    <i name="e_fr_energy">   -191.86397762 </i>
    <i name="e_wo_entrp">   -191.70419136 </i>
    <i name="e_0_energy">   -191.78408449 </i>
   </energy>
  </scstep>
  <structure>
   <crystal>
    <varray name="basis" >
     <v>       8.27142768       4.80661142       0.00000000 </v>
     <v>      -8.24461488       4.76019946       0.00000000 </v>
     <v>       0.00000000       0.00000000      30.00000000 </v>
    </varray>
    <i name="volume">   2370.06916726 </i>
    <varray name="rec_basis" >
     <v>       0.06025393       0.10435917       0.00000000 </v>
     <v>      -0.06084141       0.10469856       0.00000000 </v>
     <v>       0.00000000       0.00000000       0.03333333 </v>
    </varray>
   </crystal>
   <varray name="positions" >
    <v>       0.31667757      -0.00831574      -0.00041508 </v>
    <v>       0.31667066       0.32501582      -0.00041711 </v>
    <v>       0.31666499       0.65833649      -0.00041517 </v>
    <v>       0.98921573       0.32790567       0.00034063 </v>
    <v>      -0.01079568      -0.00546566       0.00034016 </v>
    <v>      -0.01084726       0.66120200       0.00034271 </v>
    <v>       0.68918561       0.01124147       0.00003171 </v>
    <v>       0.68920760       0.34462799       0.00003022 </v>
    <v>       0.68921310       0.67787346       0.00002930 </v>
    <v>       0.11531399       0.22428290       0.94828126 </v>
    <v>       0.22627010       0.11309689       0.05056072 </v>
    <v>       0.11531520       0.55762848       0.94827969 </v>
    <v>       0.22628186       0.44643024       0.05056029 </v>
    <v>       0.11531051       0.89094181       0.94827796 </v>
    <v>       0.22626695       0.77975327       0.05055687 </v>
    <v>       0.44239435       0.22116087       0.95232035 </v>
    <v>       0.55213952       0.10937687       0.04870405 </v>
    <v>       0.44239093       0.55449430       0.95232261 </v>
    <v>       0.55213587       0.44269817       0.04871057 </v>
    <v>       0.44237713       0.88781396       0.95231916 </v>
    <v>       0.55213515       0.77601694       0.04870091 </v>
    <v>       0.77745450       0.22204363       0.94500697 </v>
    <v>       0.89077516       0.11199120       0.05517198 </v>
    <v>       0.77745920       0.55537273       0.94499196 </v>
    <v>       0.89077462       0.44533110       0.05517998 </v>
    <v>       0.77745471       0.88870009       0.94500569 </v>
    <v>       0.89077240       0.77865952       0.05518152 </v>
   </varray>
  </structure>
  <varray name="forces" >
   <v>      -0.27878228      -0.48535907       0.00106108 </v>
[...]
      <set comment="kpoint 31">
       <r>  -17.4893    1.0000 </r>
       <r>  -17.3314    1.0000 </r>
       <r>  -16.8896    1.0000 </r>
       <r>  -16.6217    1.0000 </r>
       <r>  -16.5716    1.0000 </r>
       <r>  -16.4530    1.0000 </r>
       <r>  -16.2158    1.0000 </r>
       <r>  -16.1898    1.0000 </r>
       <r>  -16.1833    1.0000 </r>
       <r>  -16.1778    1.0000 </r>
       <r>  -15.8954    1.0000 </r>
       <r>  -15.7953    1.0000 </r>
       <r>  -15.6827    1.0000 </r>
       <r>  -15.6473    1.0000 </r>
       <r>  -15.5105    1.0000 </r>
       <r>  -15.4861    1.0000 </r>
       <r>  -15.4540    1.0000 </r>
       <r>  -15.2668    1.0000 </r>
       <r>   -9.7956    1.0000 </r>
       <r>   -9.4700    1.0000 </r>
       <r>   -9.3574    1.0000 </r>
       <r>   -8.9964    1.0000 </r>
       <r>   -8.7843    1.0000 </r>
       <r>   -8.7100    1.0000 </r>
       <r>   -8.6740    1.0000 </r>
       <r>   -8.5774    1.0000 </r>
       <r>   -8.4625    1.0000 </r>
       <r>   -8.3557    1.0000 </r>
       <r>   -8.1785    1.0000 </r>
       <r>   -8.1598    1.0000 </r>
       <r>   -8.0899    1.0000 </r>
       <r>   -8.0680    1.0000 </r>
       <r>   -7.9741    1.0000 </r>
       <r>   -7.9158    1.0000 </r>
       <r>   -7.7043    1.0000 </r>
       <r>   -7.6937    1.0000 </r>
       <r>   -7.6446    1.0000 </r>
       <r>   -7.5199    1.0000 </r>
       <r>   -7.4690    1.0000 </r>
       <r>   -7.2905    1.0000 </r>
       <r>   -7.0924    1.0000 </r>
       <r>   -7.0476    1.0000 </r>
       <r>   -6.9843    1.0000 </r>
       <r>   -6.8465    1.0000 </r>
       <r>   -6.7544    1.0000 </r>
       <r>   -6.7501    1.0000 </r>
       <r>   -6.7025    1.0000 </r>
       <r>   -6.5655    1.0000 </r>
       <r>   -6.5546    1.0000 </r>
       <r>   -6.5539    1.0000 </r>
       <r>   -6.3626    1.0000 </r>
       <r>   -6.3564    1.0000 </r>
       <r>   -6.2813    1.0000 </r>
       <r>   -6.1687    1.0000 </r>
       <r>   -6.0743    1.0000 </r>
       <r>   -6.0515    1.0000 </r>
       <r>   -5.9793    1.0000 </r>
       <r>   -5.9202    1.0000 </r>
       <r>   -5.8814    1.0000 </r>
       <r>   -5.7189    1.0000 </r>
       <r>   -5.7035    1.0000 </r>
       <r>   -5.5292    1.0000 </r>
       <r>   -5.5157    1.0000 </r>
       <r>   -5.4703    1.0000 </r>
       <r>   -5.2063    1.0000 </r>
       <r>   -5.0699    1.0000 </r>
       <r>   -5.0640    1.0000 </r>
       <r>   -4.8965    1.0000 </r>
       <r>   -4.7719    1.0000 </r>
       <r>   -4.6807    1.0000 </r>
       <r>   -4.6507    1.0000 </r>
       <r>   -4.4840    1.0000 </r>
       <r>   -4.2803    1.0000 </r>
       <r>   -4.1677    1.0000 </r>
       <r>   -4.0573    1.0000 </r>
       <r>   -4.0368    1.0000 </r>
       <r>   -3.8930    1.0000 </r>
       <r>   -3.8092    1.0000 </r>
       <r>   -3.4393    0.9182 </r>
       <r>   -3.4383    0.9171 </r>
       <r>   -3.0087    0.0493 </r>
       <r>   -2.9434    0.0173 </r>
       <r>   -2.6613    0.0000 </r>
       <r>   -2.6005    0.0000 </r>
       <r>   -2.5617    0.0000 </r>
       <r>   -2.4859    0.0000 </r>
       <r>   -2.2090    0.0000 </r>
       <r>   -2.1673    0.0000 </r>
       <r>   -2.0428    0.0000 </r>
       <r>   -1.9258    0.0000 </r>
       <r>   -1.9149    0.0000 </r>
       <r>   -1.5775    0.0000 </r>
       <r>   -1.2212    0.0000 </r>
       <r>   -1.2203    0.0000 </r>
       <r>   -1.1980    0.0000 </r>
       <r>   -1.0243    0.0000 </r>
       <r>   -1.0128    0.0000 </r>
       <r>   -1.0036    0.0000 </r>
       <r>   -0.8090    0.0000 </r>
       <r>   -0.8053    0.0000 </r>
       <r>   -0.7898    0.0000 </r>
       <r>   -0.7197    0.0000 </r>
       <r>   -0.7011    0.0000 </r>
       <r>   -0.6113    0.0000 </r>
       <r>   -0.5502    0.0000 </r>
       <r>   -0.3959    0.0000 </r>
       <r>   -0.2232    0.0000 </r>
       <r>   -0.1116    0.0000 </r>
       <r>    0.0509    0.0000 </r>
       <r>    0.2543    0.0000 </r>
       <r>    0.3702    0.0000 </r>
       <r>    0.4222    0.0000 </r>
       <r>    0.5635    0.0000 </r>
       <r>    1.0397    0.0000 </r>
       <r>    1.0601    0.0000 </r>
       <r>    1.0780    0.0000 </r>
       <r>    1.8456    0.0000 </r>
       <r>    2.1649    0.0000 </r>
       <r>    2.3127    0.0000 </r>
       <r>    2.4234    0.0000 </r>
      </set>
      <set comment="kpoint 32">
       <r>  -17.5113    1.0000 </r>
       <r>  -17.2662    1.0000 </r>
       <r>  -16.9862    1.0000 </r>
       <r>  -16.6159    1.0000 </r>
       <r>  -16.5698    1.0000 </r>
       <r>  -16.2949    1.0000 </r>
       <r>  -16.2465    1.0000 </r>
       <r>  -16.2165    1.0000 </r>
       <r>  -16.1893    1.0000 </r>
       <r>  -16.1889    1.0000 </r>
       <r>  -15.9717    1.0000 </r>
       <r>  -15.7966    1.0000 </r>
       <r>  -15.6813    1.0000 </r>
       <r>  -15.6097    1.0000 </r>
       <r>  -15.5152    1.0000 </r>
       <r>  -15.4798    1.0000 </r>
       <r>  -15.4543    1.0000 </r>
       <r>  -15.2669    1.0000 </r>
       <r>   -9.7521    1.0000 </r>
       <r>   -9.5485    1.0000 </r>
       <r>   -9.4188    1.0000 </r>
       <r>   -8.9388    1.0000 </r>
       <r>   -8.7646    1.0000 </r>
       <r>   -8.6783    1.0000 </r>
       <r>   -8.6068    1.0000 </r>
       <r>   -8.4336    1.0000 </r>
       <r>   -8.3911    1.0000 </r>
       <r>   -8.3283    1.0000 </r>
       <r>   -8.3081    1.0000 </r>
       <r>   -8.2266    1.0000 </r>
       <r>   -8.1978    1.0000 </r>
       <r>   -8.1138    1.0000 </r>
       <r>   -8.0176    1.0000 </r>
       <r>   -7.9807    1.0000 </r>
       <r>   -7.6948    1.0000 </r>
       <r>   -7.6745    1.0000 </r>
       <r>   -7.5826    1.0000 </r>
       <r>   -7.5193    1.0000 </r>
       <r>   -7.4799    1.0000 </r>
       <r>   -7.1860    1.0000 </r>
       <r>   -7.1509    1.0000 </r>
       <r>   -7.0554    1.0000 </r>
       <r>   -6.9789    1.0000 </r>
       <r>   -6.8522    1.0000 </r>
       <r>   -6.8138    1.0000 </r>
       <r>   -6.7370    1.0000 </r>
       <r>   -6.6621    1.0000 </r>
       <r>   -6.5474    1.0000 </r>
       <r>   -6.5437    1.0000 </r>
       <r>   -6.5182    1.0000 </r>
       <r>   -6.4497    1.0000 </r>
       <r>   -6.3679    1.0000 </r>
       <r>   -6.2988    1.0000 </r>
       <r>   -6.2027    1.0000 </r>
       <r>   -6.0007    1.0000 </r>
       <r>   -5.9990    1.0000 </r>
       <r>   -5.9808    1.0000 </r>
       <r>   -5.9278    1.0000 </r>
       <r>   -5.7918    1.0000 </r>
       <r>   -5.7234    1.0000 </r>
       <r>   -5.6629    1.0000 </r>
       <r>   -5.6543    1.0000 </r>
       <r>   -5.5036    1.0000 </r>
       <r>   -5.4427    1.0000 </r>
       <r>   -5.2047    1.0000 </r>
       <r>   -5.0681    1.0000 </r>
       <r>   -4.9921    1.0000 </r>
       <r>   -4.8511    1.0000 </r>
       <r>   -4.8192    1.0000 </r>
       <r>   -4.7853    1.0000 </r>
       <r>   -4.7663    1.0000 </r>
       <r>   -4.4619    1.0000 </r>
       <r>   -4.2639    1.0000 </r>
       <r>   -4.1526    1.0000 </r>
       <r>   -4.0453    1.0000 </r>
       <r>   -4.0274    1.0000 </r>
       <r>   -3.9061    1.0000 </r>
       <r>   -3.7761    0.9999 </r>
       <r>   -3.4349    0.9133 </r>
       <r>   -3.4327    0.9109 </r>
       <r>   -3.0149    0.0539 </r>
       <r>   -2.9199    0.0113 </r>
       <r>   -2.6661    0.0000 </r>
       <r>   -2.5799    0.0000 </r>
       <r>   -2.5516    0.0000 </r>
       <r>   -2.5095    0.0000 </r>
       <r>   -2.2399    0.0000 </r>
       <r>   -2.1807    0.0000 </r>
       <r>   -2.0395    0.0000 </r>
       <r>   -1.9397    0.0000 </r>
       <r>   -1.9200    0.0000 </r>
       <r>   -1.5668    0.0000 </r>
       <r>   -1.2500    0.0000 </r>
       <r>   -1.2472    0.0000 </r>
       <r>   -1.2054    0.0000 </r>
       <r>   -0.9852    0.0000 </r>
       <r>   -0.9600    0.0000 </r>
       <r>   -0.9277    0.0000 </r>
       <r>   -0.8838    0.0000 </r>
       <r>   -0.7941    0.0000 </r>
       <r>   -0.7782    0.0000 </r>
       <r>   -0.6943    0.0000 </r>
       <r>   -0.6864    0.0000 </r>
       <r>   -0.6538    0.0000 </r>
       <r>   -0.5651    0.0000 </r>
       <r>   -0.4189    0.0000 </r>
       <r>   -0.2129    0.0000 </r>
       <r>   -0.1108    0.0000 </r>
       <r>    0.1621    0.0000 </r>
       <r>    0.2544    0.0000 </r>
       <r>    0.3150    0.0000 </r>
       <r>    0.3608    0.0000 </r>
       <r>    0.5674    0.0000 </r>
       <r>    1.0257    0.0000 </r>
       <r>    1.0500    0.0000 </r>
       <r>    1.0810    0.0000 </r>
       <r>    1.8493    0.0000 </r>
       <r>    2.1325    0.0000 </r>
       <r>    2.2783    0.0000 </r>
       <r>    2.6073    0.0000 </r>
      </set>
      <set comment="kpoint 33">
       <r>  -17.4892    1.0000 </r>
       <r>  -17.3313    1.0000 </r>
       <r>  -16.8897    1.0000 </r>
       <r>  -16.6217    1.0000 </r>
       <r>  -16.5716    1.0000 </r>
       <r>  -16.4531    1.0000 </r>
       <r>  -16.2158    1.0000 </r>
       <r>  -16.1898    1.0000 </r>
       <r>  -16.1833    1.0000 </r>
       <r>  -16.1778    1.0000 </r>
       <r>  -15.8953    1.0000 </r>
       <r>  -15.7953    1.0000 </r>
       <r>  -15.6828    1.0000 </r>
       <r>  -15.6472    1.0000 </r>
       <r>  -15.5105    1.0000 </r>
       <r>  -15.4861    1.0000 </r>
       <r>  -15.4540    1.0000 </r>
       <r>  -15.2668    1.0000 </r>
       <r>   -9.7955    1.0000 </r>
       <r>   -9.4701    1.0000 </r>
       <r>   -9.3575    1.0000 </r>
       <r>   -8.9965    1.0000 </r>
       <r>   -8.7844    1.0000 </r>
       <r>   -8.7100    1.0000 </r>
       <r>   -8.6741    1.0000 </r>
       <r>   -8.5775    1.0000 </r>
       <r>   -8.4625    1.0000 </r>
       <r>   -8.3557    1.0000 </r>
       <r>   -8.1785    1.0000 </r>
       <r>   -8.1599    1.0000 </r>
       <r>   -8.0899    1.0000 </r>
       <r>   -8.0680    1.0000 </r>
       <r>   -7.9741    1.0000 </r>
       <r>   -7.9159    1.0000 </r>
       <r>   -7.7043    1.0000 </r>
       <r>   -7.6937    1.0000 </r>
       <r>   -7.6446    1.0000 </r>
       <r>   -7.5198    1.0000 </r>
       <r>   -7.4690    1.0000 </r>
       <r>   -7.2906    1.0000 </r>
       <r>   -7.0924    1.0000 </r>
       <r>   -7.0474    1.0000 </r>
       <r>   -6.9842    1.0000 </r>
       <r>   -6.8465    1.0000 </r>
       <r>   -6.7543    1.0000 </r>
       <r>   -6.7502    1.0000 </r>
       <r>   -6.7024    1.0000 </r>
       <r>   -6.5656    1.0000 </r>
       <r>   -6.5545    1.0000 </r>
       <r>   -6.5537    1.0000 </r>
       <r>   -6.3629    1.0000 </r>
       <r>   -6.3565    1.0000 </r>
       <r>   -6.2812    1.0000 </r>
       <r>   -6.1686    1.0000 </r>
       <r>   -6.0740    1.0000 </r>
       <r>   -6.0517    1.0000 </r>
       <r>   -5.9792    1.0000 </r>
       <r>   -5.9202    1.0000 </r>
       <r>   -5.8812    1.0000 </r>
       <r>   -5.7188    1.0000 </r>
       <r>   -5.7035    1.0000 </r>
       <r>   -5.5294    1.0000 </r>
       <r>   -5.5156    1.0000 </r>
       <r>   -5.4702    1.0000 </r>
       <r>   -5.2065    1.0000 </r>
       <r>   -5.0697    1.0000 </r>
       <r>   -5.0640    1.0000 </r>
       <r>   -4.8965    1.0000 </r>
       <r>   -4.7720    1.0000 </r>
       <r>   -4.6811    1.0000 </r>
       <r>   -4.6511    1.0000 </r>
       <r>   -4.4839    1.0000 </r>
       <r>   -4.2803    1.0000 </r>
       <r>   -4.1679    1.0000 </r>
       <r>   -4.0571    1.0000 </r>
       <r>   -4.0367    1.0000 </r>
       <r>   -3.8931    1.0000 </r>
       <r>   -3.8092    1.0000 </r>
       <r>   -3.4392    0.9181 </r>
       <r>   -3.4383    0.9171 </r>
       <r>   -3.0087    0.0493 </r>
       <r>   -2.9434    0.0173 </r>
       <r>   -2.6613    0.0000 </r>
       <r>   -2.6006    0.0000 </r>
       <r>   -2.5617    0.0000 </r>
       <r>   -2.4859    0.0000 </r>
       <r>   -2.2091    0.0000 </r>
       <r>   -2.1673    0.0000 </r>
       <r>   -2.0428    0.0000 </r>
       <r>   -1.9259    0.0000 </r>
       <r>   -1.9150    0.0000 </r>
       <r>   -1.5774    0.0000 </r>
       <r>   -1.2211    0.0000 </r>
       <r>   -1.2202    0.0000 </r>
       <r>   -1.1979    0.0000 </r>
       <r>   -1.0241    0.0000 </r>
       <r>   -1.0127    0.0000 </r>
       <r>   -1.0035    0.0000 </r>
       <r>   -0.8090    0.0000 </r>
       <r>   -0.8053    0.0000 </r>
       <r>   -0.7900    0.0000 </r>
       <r>   -0.7197    0.0000 </r>
       <r>   -0.7011    0.0000 </r>
       <r>   -0.6116    0.0000 </r>
       <r>   -0.5504    0.0000 </r>
       <r>   -0.3959    0.0000 </r>
       <r>   -0.2233    0.0000 </r>
       <r>   -0.1116    0.0000 </r>
       <r>    0.0508    0.0000 </r>
       <r>    0.2543    0.0000 </r>
       <r>    0.3701    0.0000 </r>
       <r>    0.4221    0.0000 </r>
       <r>    0.5634    0.0000 </r>
       <r>    1.0396    0.0000 </r>
       <r>    1.0601    0.0000 </r>
       <r>    1.0780    0.0000 </r>
       <r>    1.8456    0.0000 </r>
       <r>    2.1649    0.0000 </r>
       <r>    2.3127    0.0000 </r>
       <r>    2.4235    0.0000 </r>
      </set>
      <set comment="kpoint 34">
       <r>  -17.4255    1.0000 </r>
       <r>  -17.4252    1.0000 </r>
       <r>  -16.7134    1.0000 </r>
       <r>  -16.7130    1.0000 </r>
       <r>  -16.5657    1.0000 </r>
       <r>  -16.5655    1.0000 </r>
       <r>  -16.2150    1.0000 </r>
       <r>  -16.1908    1.0000 </r>
       <r>  -16.1719    1.0000 </r>
       <r>  -16.1715    1.0000 </r>
       <r>  -15.7940    1.0000 </r>
       <r>  -15.7539    1.0000 </r>
       <r>  -15.7537    1.0000 </r>
       <r>  -15.6843    1.0000 </r>
       <r>  -15.4991    1.0000 </r>
       <r>  -15.4988    1.0000 </r>
       <r>  -15.4537    1.0000 </r>
       <r>  -15.2667    1.0000 </r>
       <r>   -9.8253    1.0000 </r>
       <r>   -9.3984    1.0000 </r>
       <r>   -9.1899    1.0000 </r>
       <r>   -9.1896    1.0000 </r>
       <r>   -8.7668    1.0000 </r>
       <r>   -8.7665    1.0000 </r>
       <r>   -8.7468    1.0000 </r>
       <r>   -8.5562    1.0000 </r>
       <r>   -8.5560    1.0000 </r>
       <r>   -8.3735    1.0000 </r>
       <r>   -8.1553    1.0000 </r>
       <r>   -8.0808    1.0000 </r>
       <r>   -8.0774    1.0000 </r>
       <r>   -8.0773    1.0000 </r>
       <r>   -7.7866    1.0000 </r>
       <r>   -7.7863    1.0000 </r>
       <r>   -7.7255    1.0000 </r>
       <r>   -7.7079    1.0000 </r>
       <r>   -7.7077    1.0000 </r>
       <r>   -7.5201    1.0000 </r>
       <r>   -7.5198    1.0000 </r>
       <r>   -7.4286    1.0000 </r>
       <r>   -7.0386    1.0000 </r>
       <r>   -7.0093    1.0000 </r>
       <r>   -7.0091    1.0000 </r>
       <r>   -6.8536    1.0000 </r>
       <r>   -6.7460    1.0000 </r>
       <r>   -6.7456    1.0000 </r>
       <r>   -6.6407    1.0000 </r>
       <r>   -6.5705    1.0000 </r>
       <r>   -6.5704    1.0000 </r>
       <r>   -6.5635    1.0000 </r>
       <r>   -6.3607    1.0000 </r>
       <r>   -6.3106    1.0000 </r>
       <r>   -6.3103    1.0000 </r>
       <r>   -6.2614    1.0000 </r>
       <r>   -6.0798    1.0000 </r>
       <r>   -6.0795    1.0000 </r>
       <r>   -5.9818    1.0000 </r>
       <r>   -5.8632    1.0000 </r>
       <r>   -5.8630    1.0000 </r>
       <r>   -5.7293    1.0000 </r>
       <r>   -5.7291    1.0000 </r>
       <r>   -5.5623    1.0000 </r>
       <r>   -5.5621    1.0000 </r>
       <r>   -5.4485    1.0000 </r>
       <r>   -5.2044    1.0000 </r>
       <r>   -5.0633    1.0000 </r>
       <r>   -5.0007    1.0000 </r>
       <r>   -5.0006    1.0000 </r>
       <r>   -4.7530    1.0000 </r>
       <r>   -4.5592    1.0000 </r>
       <r>   -4.5591    1.0000 </r>
       <r>   -4.5101    1.0000 </r>
       <r>   -4.2543    1.0000 </r>
       <r>   -4.2543    1.0000 </r>
       <r>   -4.0553    1.0000 </r>
       <r>   -4.0549    1.0000 </r>
       <r>   -3.8607    1.0000 </r>
       <r>   -3.8603    1.0000 </r>
       <r>   -3.4439    0.9230 </r>
       <r>   -3.4435    0.9226 </r>
       <r>   -2.9849    0.0344 </r>
       <r>   -2.9843    0.0340 </r>
       <r>   -2.6385    0.0000 </r>
       <r>   -2.6379    0.0000 </r>
       <r>   -2.5674    0.0000 </r>
       <r>   -2.4664    0.0000 </r>
       <r>   -2.1655    0.0000 </r>
       <r>   -2.1651    0.0000 </r>
       <r>   -2.0463    0.0000 </r>
       <r>   -1.9131    0.0000 </r>
       <r>   -1.9129    0.0000 </r>
       <r>   -1.5877    0.0000 </r>
       <r>   -1.1839    0.0000 </r>
       <r>   -1.1750    0.0000 </r>
       <r>   -1.1747    0.0000 </r>
       <r>   -1.0869    0.0000 </r>
       <r>   -1.0865    0.0000 </r>
       <r>   -1.0334    0.0000 </r>
       <r>   -0.8224    0.0000 </r>
       <r>   -0.7906    0.0000 </r>
       <r>   -0.7903    0.0000 </r>
       <r>   -0.7102    0.0000 </r>
       <r>   -0.6665    0.0000 </r>
       <r>   -0.6662    0.0000 </r>
       <r>   -0.5401    0.0000 </r>
       <r>   -0.2900    0.0000 </r>
       <r>   -0.2898    0.0000 </r>
       <r>   -0.0689    0.0000 </r>
       <r>   -0.0687    0.0000 </r>
       <r>    0.2539    0.0000 </r>
       <r>    0.3794    0.0000 </r>
       <r>    0.5260    0.0000 </r>
       <r>    0.5260    0.0000 </r>
       <r>    1.0642    0.0000 </r>
       <r>    1.0642    0.0000 </r>
       <r>    1.0706    0.0000 </r>
       <r>    1.8414    0.0000 </r>
       <r>    2.2625    0.0000 </r>
       <r>    2.2626    0.0000 </r>
       <r>    2.4139    0.0000 </r>
      </set>
     </set>
    </set>
   </array>
  </eigenvalues>
  <separator name="orbital magnetization" >
   <v name="MAGDIPOLOUT">      0.00000000      0.00000000      0.00000000</v>
  </separator>
 </calculation>
 <structure name="finalpos" >
  <crystal>
   <varray name="basis" >
    <v>       8.30971330       4.82916247       0.00000000 </v>
    <v>      -8.28271674       4.78242824       0.00000000 </v>
    <v>       0.00000000       0.00000000      30.00000000 </v>
   </varray>
   <i name="volume">   2392.17577150 </i>
   <varray name="rec_basis" >
    <v>       0.05997588       0.10387259       0.00000000 </v>
    <v>      -0.06056197       0.10421115       0.00000000 </v>
    <v>       0.00000000       0.00000000       0.03333333 </v>
   </varray>
  </crystal>
  <varray name="positions" >
   <v>       0.29794257      -0.01772069       0.00143820 </v>
   <v>       0.29792822       0.31558495       0.00143740 </v>
   <v>       0.29796697       0.64894199       0.00143805 </v>
   <v>       0.99033640       0.32847788       0.00079089 </v>
   <v>      -0.00964156      -0.00486679       0.00079000 </v>
   <v>      -0.00967314       0.66180458       0.00079086 </v>
   <v>       0.70442084       0.01884394      -0.00214213 </v>
   <v>       0.70441605       0.35217720      -0.00214058 </v>
   <v>       0.70441766       0.68550712      -0.00214140 </v>
   <v>       0.11161284       0.22243698       0.94757831 </v>
   <v>       0.22286960       0.11140911       0.05304689 </v>
   <v>       0.11159970       0.55576383       0.94757312 </v>
   <v>       0.22286476       0.44472418       0.05304819 </v>
   <v>       0.11161031       0.88909630       0.94757420 </v>
   <v>       0.22286282       0.77808000       0.05304939 </v>
   <v>       0.44294399       0.22143966       0.95696196 </v>
   <v>       0.55395030       0.11027446       0.04373820 </v>
   <v>       0.44295198       0.55476655       0.95696053 </v>
   <v>       0.55394509       0.44361031       0.04373874 </v>
   <v>       0.44295564       0.88811649       0.95695962 </v>
   <v>       0.55396436       0.77695217       0.04374124 </v>
   <v>       0.78255969       0.22458144       0.94258420 </v>
   <v>       0.89277045       0.11302478       0.05600358 </v>
   <v>       0.78255796       0.55790740       0.94258389 </v>
   <v>       0.89275650       0.44635498       0.05600606 </v>
   <v>       0.78256202       0.89124185       0.94258382 </v>
   <v>       0.89276242       0.77968380       0.05600666 </v>
  </varray>
 </structure>
</modeling>
