unknown system                          
           1
     8.856607    5.109603    0.000000
    -8.852976    5.103357    0.000000
     0.000000    0.000000   30.000000
   V    Mo   W    S 
   3   3   3  18
Direct configuration=     1
   0.33333334  0.00000000  0.00000000
   0.33333334  0.33333334  0.00000000
   0.33333334  0.66666669  0.00000000
   1.00000000  0.33333334  0.00000000
   0.00000000  0.00000000  0.00000000
   0.00000000  0.66666669  0.00000000
   0.66666669  0.00000000  0.00000000
   0.66666669  0.33333334  0.00000000
   0.66666669  0.66666669  0.00000000
   0.11068511  0.22244981  0.95539999
   0.22244981  0.11068511  0.04460000
   0.11068511  0.55578315  0.95539999
   0.22244981  0.44401845  0.04460000
   0.11068511  0.88911647  0.95539999
   0.22244981  0.77735180  0.04460000
   0.44401845  0.22244981  0.95539999
   0.55578315  0.11068511  0.04460000
   0.44401845  0.55578315  0.95539999
   0.55578315  0.44401845  0.04460000
   0.44401845  0.88911647  0.95539999
   0.55578315  0.77735180  0.04460000
   0.77735180  0.22244981  0.95539999
   0.88911647  0.11068511  0.04460000
   0.77735180  0.55578315  0.95539999
   0.88911647  0.44401845  0.04460000
   0.77735180  0.88911647  0.95539999
   0.88911647  0.77735180  0.04460000
unknown system                          
           1
     8.667974    5.002386    0.000000
    -8.665097    4.997444    0.000000
     0.000000    0.000000   30.000000
   V    Mo   W    S 
   3   3   3  18
Direct configuration=     2
   0.33107296 -0.00108166 -0.00000056
   0.33108161  0.33225597 -0.00000085
   0.33107773  0.66558921 -0.00000083
   1.00014208  0.33337824  0.00017219
   0.00013461  0.00003290  0.00017233
   0.00013170  0.66670514  0.00017249
   0.66911075  0.00119192 -0.00024121
   0.66911470  0.33453552 -0.00024121
   0.66911669  0.66785967 -0.00024146
   0.11546964  0.22430997  0.95196461
   0.22649285  0.11294843  0.04690124
   0.11546570  0.55764641  0.95196361
   0.22649578  0.44627851  0.04690208
   0.11546789  0.89097892  0.95196437
   0.22649148  0.77961219  0.04690110
   0.44084887  0.22060230  0.95318364
   0.55166357  0.10923176  0.04803269
   0.44084674  0.55393076  0.95318360
   0.55166242  0.44255856  0.04803226
   0.44084509  0.88726541  0.95318203
   0.55166241  0.77589069  0.04803321
   0.77660119  0.22154173  0.95069925
   0.88800421  0.11062296  0.04928894
   0.77660473  0.55487126  0.95070006
   0.88799838  0.44395952  0.04928883
   0.77660861  0.88820668  0.95069947
   0.88800209  0.77729148  0.04928801
unknown system                          
           1
     8.484332    4.901706    0.000000
    -8.481527    4.896882    0.000000
     0.000000    0.000000   30.000000
   V    Mo   W    S 
   3   3   3  18
Direct configuration=     3
   0.33037296 -0.00143464 -0.00003840
   0.33037735  0.33190873 -0.00003860
   0.33037009  0.66523333 -0.00003840
   0.99962159  0.33311784  0.00018300
  -0.00038037 -0.00022411  0.00018341
  -0.00038412  0.66643568  0.00018340
   0.67018141  0.00173276 -0.00019315
   0.67018794  0.33507325 -0.00019343
   0.67018133  0.66839635 -0.00019314
   0.11563487  0.22441138  0.95195184
   0.22657155  0.11301070  0.04691623
   0.11563109  0.55774218  0.95195102
   0.22657072  0.44633842  0.04691626
   0.11563315  0.89107422  0.95195138
   0.22656845  0.77967328  0.04691614
   0.44102433  0.22066841  0.95330856
   0.55183498  0.10928961  0.04787515
   0.44102431  0.55399792  0.95330793
   0.55183211  0.44261993  0.04787509
   0.44102585  0.88733299  0.95330755
   0.55183469  0.77595371  0.04787481
   0.77640344  0.22145821  0.95061278
   0.88776244  0.11049609  0.04938485
   0.77640605  0.55479218  0.95061212
   0.88776202  0.44383015  0.04938557
   0.77640488  0.88812556  0.95061296
   0.88776134  0.77716034  0.04938498
unknown system                          
           1
     8.271425    4.791505    0.000000
    -8.257211    4.766920    0.000000
     0.000000    0.000000   30.000000
   V    Mo   W    S 
   3   3   3  18
Direct configuration=     4
   0.32782184 -0.00270824 -0.00019418
   0.32783015  0.33061216 -0.00019509
   0.32783037  0.66394707 -0.00019424
   0.99666485  0.33161838  0.00014282
  -0.00333502 -0.00172465  0.00014196
  -0.00336433  0.66494250  0.00014274
   0.67478852  0.00405421  0.00003765
   0.67479612  0.33740783  0.00003713
   0.67480380  0.67071156  0.00003702
   0.11685090  0.22505571  0.95050806
   0.22750718  0.11356382  0.04830329
   0.11685919  0.55840144  0.95050651
   0.22751411  0.44691357  0.04830596
   0.11685932  0.89173302  0.95051048
   0.22751447  0.78024121  0.04830096
   0.44036228  0.22024929  0.95249514
   0.55101457  0.10880788  0.04871025
   0.44035895  0.55359657  0.95249476
   0.55102378  0.44213593  0.04871272
   0.44034725  0.88691642  0.95249493
   0.55101137  0.77546112  0.04871122
   0.77654875  0.22159474  0.94858776
   0.88783601  0.11049923  0.05140848
   0.77655357  0.55492079  0.94858842
   0.88782419  0.44383529  0.05140948
   0.77656028  0.88825457  0.94858944
   0.88783200  0.77717301  0.05140624
unknown system                          
           1
     8.269528    4.806343    0.000000
    -8.242032    4.758748    0.000000
     0.000000    0.000000   30.000000
   V    Mo   W    S 
   3   3   3  18
Direct configuration=     5
   0.32231254 -0.00548722 -0.00038474
   0.32233794  0.32784628 -0.00038901
   0.32232903  0.66119219 -0.00038718
   0.99029657  0.32844445  0.00004655
  -0.00970031 -0.00494990  0.00004531
  -0.00977004  0.66173246  0.00004777
   0.68432222  0.00883623  0.00027013
   0.68437130  0.34223108  0.00027044
   0.68437915  0.67547827  0.00026670
   0.11729127  0.22527198  0.94851374
   0.22755371  0.11373708  0.05033705
   0.11729147  0.55862219  0.94851333
   0.22757193  0.44707411  0.05033497
   0.11728547  0.89193791  0.94851089
   0.22755624  0.78039487  0.05033002
   0.44058567  0.22025137  0.95157536
   0.55061281  0.10859486  0.04948763
   0.44057364  0.55358496  0.95158096
   0.55060585  0.44191597  0.04949343
   0.44056910  0.88690430  0.95157518
   0.55060473  0.77524147  0.04948716
   0.77713881  0.22189344  0.94565017
   0.88926814  0.11122117  0.05450627
   0.77714761  0.55522152  0.94564150
   0.88926084  0.44456769  0.05451129
   0.77714912  0.88855518  0.94565123
   0.88926964  0.77790055  0.05451375
unknown system                          
           1
     8.271428    4.806611    0.000000
    -8.244615    4.760199    0.000000
     0.000000    0.000000   30.000000
   V    Mo   W    S 
   3   3   3  18
Direct configuration=     6
   0.31930514 -0.00699678 -0.00034507
   0.31929040  0.32633417 -0.00034955
   0.31928985  0.65964941 -0.00034638
   0.98965051  0.32812335  0.00030050
  -0.01036968 -0.00525588  0.00030060
  -0.01043018  0.66140782  0.00030330
   0.68695008  0.01012734  0.00008398
   0.68697710  0.34351901  0.00007985
   0.68698674  0.67676749  0.00008057
   0.11599169  0.22462200  0.94833117
   0.22666823  0.11329691  0.05043763
   0.11599984  0.55797312  0.94833072
   0.22669025  0.44663988  0.05043199
   0.11597803  0.89127687  0.94832305
   0.22667086  0.77994400  0.05043055
   0.44175109  0.22083806  0.95193083
   0.55162587  0.10911336  0.04910327
   0.44173712  0.55417260  0.95193698
   0.55161997  0.44243450  0.04910937
   0.44172803  0.88748228  0.95193133
   0.55161262  0.77575041  0.04909825
   0.77713638  0.22189195  0.94523001
   0.89035612  0.11177137  0.05493344
   0.77714376  0.55521818  0.94521542
   0.89035804  0.44512061  0.05494436
   0.77714176  0.88854840  0.94522916
   0.89035483  0.77844401  0.05494458
unknown system                          
           1
     8.273840    4.811779    0.000000
    -8.243783    4.759747    0.000000
     0.000000    0.000000   30.000000
   V    Mo   W    S 
   3   3   3  18
Direct configuration=     7
   0.31667757 -0.00831574 -0.00041508
   0.31667066  0.32501582 -0.00041711
   0.31666499  0.65833649 -0.00041517
   0.98921573  0.32790567  0.00034063
  -0.01079568 -0.00546566  0.00034016
  -0.01084726  0.66120200  0.00034271
   0.68918561  0.01124147  0.00003171
   0.68920760  0.34462799  0.00003022
   0.68921310  0.67787346  0.00002930
   0.11531399  0.22428290  0.94828126
   0.22627010  0.11309689  0.05056072
   0.11531520  0.55762848  0.94827969
   0.22628186  0.44643024  0.05056029
   0.11531051  0.89094181  0.94827796
   0.22626695  0.77975327  0.05055687
   0.44239435  0.22116087  0.95232035
   0.55213952  0.10937687  0.04870405
   0.44239093  0.55449430  0.95232261
   0.55213587  0.44269817  0.04871057
   0.44237713  0.88781396  0.95231916
   0.55213515  0.77601694  0.04870091
   0.77745450  0.22204363  0.94500697
   0.89077516  0.11199120  0.05517198
   0.77745920  0.55537273  0.94499196
   0.89077462  0.44533110  0.05517998
   0.77745471  0.88870009  0.94500569
   0.89077240  0.77865952  0.05518152
unknown system                          
           1
     8.284130    4.833880    0.000000
    -8.240167    4.757762    0.000000
     0.000000    0.000000   30.000000
   V    Mo   W    S 
   3   3   3  18
Direct configuration=     8
   0.31473671 -0.00928995 -0.00041711
   0.31473296  0.32404402 -0.00041873
   0.31472510  0.65736348 -0.00041679
   0.98902306  0.32780808  0.00042407
  -0.01098691 -0.00555675  0.00042377
  -0.01103156  0.66111052  0.00042621
   0.69075805  0.01202552 -0.00003774
   0.69077562  0.34540808 -0.00003947
   0.69077995  0.67865464 -0.00004048
   0.11483095  0.22404139  0.94817475
   0.22608310  0.11300486  0.05066150
   0.11483139  0.55738552  0.94817295
   0.22609168  0.44633658  0.05066228
   0.11483131  0.89070257  0.94817231
   0.22607867  0.77966227  0.05065879
   0.44277694  0.22135294  0.95260207
   0.55242673  0.10952262  0.04841281
   0.44277591  0.55468504  0.95260370
   0.55242309  0.44284391  0.04841971
   0.44276209  0.88800627  0.95260059
   0.55242388  0.77616375  0.04840976
   0.77764022  0.22213420  0.94482252
   0.89114845  0.11218233  0.05535897
   0.77764452  0.55546310  0.94480795
   0.89114834  0.44552041  0.05536621
   0.77763853  0.88878940  0.94482145
   0.89114566  0.77884964  0.05536783
unknown system                          
           1
     8.299699    4.843181    0.000000
    -8.255494    4.766645    0.000000
     0.000000    0.000000   30.000000
   V    Mo   W    S 
   3   3   3  18
Direct configuration=     9
   0.30360312 -0.01486562 -0.00036685
   0.30365277  0.31845168 -0.00037173
   0.30367074  0.65184216 -0.00036732
   0.98855558  0.32756133  0.00079522
  -0.01139567 -0.00574963  0.00079505
  -0.01142978  0.66093013  0.00079700
   0.69937613  0.01633015 -0.00054375
   0.69938073  0.34968883 -0.00054455
   0.69937116  0.68294211 -0.00054458
   0.11210979  0.22268928  0.94762780
   0.22524340  0.11259855  0.05126542
   0.11205820  0.55598212  0.94761500
   0.22522272  0.44588978  0.05126909
   0.11210545  0.88935056  0.94762173
   0.22522225  0.77926790  0.05127428
   0.44468745  0.22231146  0.95445852
   0.55372335  0.11017677  0.04651176
   0.44469728  0.55562619  0.95445238
   0.55371272  0.44349564  0.04652101
   0.44469854  0.88899115  0.95445150
   0.55373425  0.77682700  0.04651598
   0.77896035  0.22278331  0.94396130
   0.89312185  0.11319677  0.05629675
   0.77895722  0.55610371  0.94394913
   0.89311538  0.44650692  0.05629812
   0.77894141  0.88943222  0.94396072
   0.89311804  0.77985398  0.05630092
unknown system                          
           1
     8.301151    4.842575    0.000000
    -8.258236    4.768271    0.000000
     0.000000    0.000000   30.000000
   V    Mo   W    S 
   3   3   3  18
Direct configuration=    10
   0.30301916 -0.01518844 -0.00009870
   0.30303162  0.31818001 -0.00010317
   0.30294991  0.65146470 -0.00010502
   0.98886978  0.32774340  0.00091661
  -0.01116327 -0.00562976  0.00091411
  -0.01114467  0.66105038  0.00091492
   0.70007831  0.01667620 -0.00073530
   0.70007526  0.35003279 -0.00073655
   0.70008732  0.68330577 -0.00073759
   0.11115242  0.22220743  0.94740210
   0.22502438  0.11249110  0.05141529
   0.11117334  0.55554472  0.94740986
   0.22502802  0.44582191  0.05140544
   0.11113635  0.88886475  0.94739455
   0.22502241  0.77913829  0.05141272
   0.44472808  0.22232987  0.95493987
   0.55358893  0.11010789  0.04600339
   0.44472010  0.55565965  0.95494317
   0.55358679  0.44343123  0.04601061
   0.44471539  0.88898027  0.95494039
   0.55357630  0.77674778  0.04600034
   0.77940993  0.22300662  0.94378985
   0.89357586  0.11341259  0.05637487
   0.77941718  0.55634087  0.94378264
   0.89357999  0.44674945  0.05637526
   0.77940799  0.88965954  0.94379335
   0.89356757  0.78008547  0.05637689
unknown system                          
           1
     8.304185    4.837686    0.000000
    -8.267018    4.773337    0.000000
     0.000000    0.000000   30.000000
   V    Mo   W    S 
   3   3   3  18
Direct configuration=    11
   0.29798947 -0.01771462  0.00008121
   0.29800606  0.31565464  0.00007768
   0.29794769  0.64895803  0.00008326
   0.98893830  0.32777504  0.00100442
  -0.01108427 -0.00558510  0.00100289
  -0.01105621  0.66110406  0.00100291
   0.70432619  0.01879075 -0.00112447
   0.70432477  0.35214266 -0.00112687
   0.70432791  0.68543695 -0.00112568
   0.10959499  0.22142824  0.94721963
   0.22447066  0.11221591  0.05183297
   0.10960277  0.55475841  0.94721809
   0.22447200  0.44555488  0.05182717
   0.10958317  0.88809142  0.94721311
   0.22446940  0.77886406  0.05183474
   0.44532904  0.22262611  0.95615132
   0.55386739  0.11024505  0.04475350
   0.44532300  0.55596705  0.95615365
   0.55387068  0.44357328  0.04476151
   0.44531838  0.88928032  0.95615281
   0.55385192  0.77689002  0.04474845
   0.78046014  0.22352818  0.94338829
   0.89445338  0.11386138  0.05669903
   0.78046873  0.55686071  0.94338246
   0.89445642  0.44719726  0.05669922
   0.78045496  0.89018006  0.94339022
   0.89444750  0.78052970  0.05669839
unknown system                          
           1
     8.311142    4.839043    0.000000
    -8.276292    4.778708    0.000000
     0.000000    0.000000   30.000000
   V    Mo   W    S 
   3   3   3  18
Direct configuration=    12
   0.29981210 -0.01679647  0.00015450
   0.29982871  0.31656389  0.00015217
   0.29979498  0.64988158  0.00015816
   0.98919934  0.32790533  0.00094785
  -0.01080995 -0.00545010  0.00094826
  -0.01079565  0.66123612  0.00094713
   0.70295650  0.01810834 -0.00109552
   0.70296209  0.35146236 -0.00109655
   0.70295902  0.68475635 -0.00109665
   0.10994352  0.22160013  0.94730653
   0.22447859  0.11221657  0.05182684
   0.10994254  0.55493103  0.94730199
   0.22447883  0.44555281  0.05182683
   0.10994006  0.88826793  0.94730236
   0.22447485  0.77886968  0.05183130
   0.44484879  0.22238660  0.95598802
   0.55359936  0.11010869  0.04491338
   0.44484414  0.55572802  0.95598969
   0.55360315  0.44343752  0.04492083
   0.44483983  0.88904186  0.95598888
   0.55358399  0.77675575  0.04490920
   0.78044589  0.22352063  0.94343599
   0.89413102  0.11369932  0.05652356
   0.78045394  0.55685452  0.94342969
   0.89413098  0.44703470  0.05652480
   0.78043976  0.89017613  0.94343600
   0.89412806  0.78036516  0.05652466
unknown system                          
           1
     8.308611    4.833347    0.000000
    -8.277433    4.779371    0.000000
     0.000000    0.000000   30.000000
   V    Mo   W    S 
   3   3   3  18
Direct configuration=    13
   0.29855075 -0.01742570  0.00048221
   0.29856445  0.31592175  0.00047924
   0.29854511  0.64925071  0.00048076
   0.98964358  0.32813257  0.00096086
  -0.01035516 -0.00522293  0.00096194
  -0.01034695  0.66146127  0.00095930
   0.70416502  0.01871426 -0.00141853
   0.70417089  0.35205917 -0.00141832
   0.70416651  0.68536689 -0.00141957
   0.10961603  0.22143542  0.94731203
   0.22416220  0.11205476  0.05211920
   0.10961222  0.55476689  0.94730884
   0.22415838  0.44538507  0.05212378
   0.10961548  0.88810470  0.94730974
   0.22415508  0.77872264  0.05212623
   0.44453492  0.22222906  0.95651133
   0.55346788  0.11003911  0.04433668
   0.44453141  0.55557089  0.95651147
   0.55347548  0.44337213  0.04434310
   0.44452841  0.88889119  0.95651145
   0.55345780  0.77669358  0.04433539
   0.78105272  0.22382137  0.94322256
   0.89421233  0.11374415  0.05647205
   0.78106086  0.55715771  0.94321964
   0.89421039  0.44707947  0.05647260
   0.78104849  0.89048201  0.94322216
   0.89421018  0.78040630  0.05647377
unknown system                          
           1
     8.310830    4.834941    0.000000
    -8.279381    4.780497    0.000000
     0.000000    0.000000   30.000000
   V    Mo   W    S 
   3   3   3  18
Direct configuration=    14
   0.29848415 -0.01746005  0.00057776
   0.29849547  0.31588666  0.00057515
   0.29848203  0.64921682  0.00057855
   0.98975228  0.32818648  0.00091911
  -0.01024993 -0.00517096  0.00091857
  -0.01024048  0.66151672  0.00091825
   0.70418524  0.01872314 -0.00146156
   0.70418693  0.35206586 -0.00146252
   0.70418707  0.68538171 -0.00146161
   0.10987777  0.22156633  0.94737989
   0.22403246  0.11199044  0.05225532
   0.10987456  0.55489809  0.94737602
   0.22402885  0.44532080  0.05225601
   0.10987958  0.88823647  0.94737697
   0.22402648  0.77865586  0.05225922
   0.44428520  0.22210401  0.95659204
   0.55352023  0.11006402  0.04421462
   0.44427939  0.55544322  0.95659244
   0.55352550  0.44339688  0.04422044
   0.44427863  0.88876965  0.95659189
   0.55351124  0.77672057  0.04421351
   0.78128176  0.22393660  0.94314214
   0.89398714  0.11363174  0.05638081
   0.78128974  0.55727155  0.94313945
   0.89398764  0.44696914  0.05638238
   0.78128151  0.89059955  0.94314248
   0.89398404  0.78029318  0.05638256
unknown system                          
           1
     8.313267    4.835592    0.000000
    -8.282476    4.782287    0.000000
     0.000000    0.000000   30.000000
   V    Mo   W    S 
   3   3   3  18
Direct configuration=    15
   0.29844629 -0.01747559  0.00066333
   0.29845418  0.31586186  0.00066088
   0.29845196  0.64920013  0.00066325
   0.98982669  0.32822244  0.00091452
  -0.01016704 -0.00512934  0.00091477
  -0.01016774  0.66155465  0.00091369
   0.70418424  0.01872397 -0.00154494
   0.70418818  0.35206609 -0.00154532
   0.70418499  0.68538064 -0.00154514
   0.10999923  0.22162744  0.94738317
   0.22397041  0.11195964  0.05232162
   0.10999277  0.55495747  0.94737898
   0.22396648  0.44528673  0.05232284
   0.11000084  0.88829645  0.94738012
   0.22396412  0.77862667  0.05232572
   0.44415648  0.22204068  0.95662255
   0.55353088  0.11006903  0.04417491
   0.44415331  0.55537721  0.95662234
   0.55353588  0.44340186  0.04418002
   0.44415200  0.88870878  0.95662179
   0.55352607  0.77672837  0.04417444
   0.78136545  0.22397876  0.94310277
   0.89392229  0.11359965  0.05636240
   0.78137224  0.55731311  0.94310046
   0.89392098  0.44693601  0.05636352
   0.78136396  0.89064080  0.94310279
   0.89391934  0.78026093  0.05636440
unknown system                          
           1
     8.310774    4.833931    0.000000
    -8.280175    4.780958    0.000000
     0.000000    0.000000   30.000000
   V    Mo   W    S 
   3   3   3  18
Direct configuration=    16
   0.29840260 -0.01756124  0.00079726
   0.29842759  0.31590422  0.00079505
   0.29822025  0.64908808  0.00079894
   0.98995528  0.32834188  0.00089905
  -0.01016817 -0.00513565  0.00089632
  -0.01002660  0.66157646  0.00089864
   0.70426255  0.01875736 -0.00163765
   0.70424614  0.35209364 -0.00163573
   0.70426070  0.68542723 -0.00163749
   0.11018498  0.22171790  0.94741080
   0.22382046  0.11187786  0.05243672
   0.11027881  0.55510059  0.94743089
   0.22383696  0.44528407  0.05242584
   0.11019789  0.88839723  0.94741036
   0.22383721  0.77850714  0.05242693
   0.44396260  0.22194015  0.95667625
   0.55360726  0.11010822  0.04408970
   0.44393436  0.55531204  0.95668531
   0.55361817  0.44344144  0.04409498
   0.44392910  0.88855797  0.95668612
   0.55354855  0.77673997  0.04407978
   0.78154449  0.22405989  0.94303349
   0.89373939  0.11350053  0.05628852
   0.78154781  0.55740928  0.94303153
   0.89375096  0.44685014  0.05629335
   0.78155738  0.89073856  0.94303389
   0.89373771  0.78017951  0.05629105
unknown system                          
           1
     8.307293    4.830710    0.000000
    -8.277740    4.779548    0.000000
     0.000000    0.000000   30.000000
   V    Mo   W    S 
   3   3   3  18
Direct configuration=    17
   0.29837104 -0.01755640  0.00082054
   0.29838554  0.31586442  0.00081760
   0.29827365  0.64911201  0.00082868
   0.98994249  0.32831551  0.00089065
  -0.01013145 -0.00511520  0.00089088
  -0.01004565  0.66158508  0.00088997
   0.70426499  0.01875549 -0.00166293
   0.70426015  0.35210013 -0.00166271
   0.70426427  0.68543297 -0.00166292
   0.11027271  0.22176112  0.94742891
   0.22377388  0.11185656  0.05246618
   0.11031540  0.55511889  0.94743110
   0.22378510  0.44524267  0.05246393
   0.11028008  0.88843897  0.94742656
   0.22378452  0.77849378  0.05246600
   0.44390268  0.22191164  0.95669821
   0.55362918  0.11011808  0.04406539
   0.44388330  0.55527725  0.95670342
   0.55363823  0.44345237  0.04407015
   0.44387952  0.88854105  0.95670367
   0.55358004  0.77675599  0.04405704
   0.78159850  0.22409194  0.94301475
   0.89370007  0.11348499  0.05627308
   0.78160208  0.55743214  0.94301314
   0.89370129  0.44682592  0.05627975
   0.78160557  0.89076229  0.94301301
   0.89369729  0.78015481  0.05627584
unknown system                          
           1
     8.307081    4.829904    0.000000
    -8.278120    4.779768    0.000000
     0.000000    0.000000   30.000000
   V    Mo   W    S 
   3   3   3  18
Direct configuration=    18
   0.29825635 -0.01761942  0.00095965
   0.29826627  0.31580888  0.00095788
   0.29814670  0.64904614  0.00095812
   0.99013508  0.32843553  0.00087331
  -0.00995068 -0.00502653  0.00087559
  -0.00985539  0.66165867  0.00087259
   0.70427292  0.01876139 -0.00176977
   0.70427460  0.35210692 -0.00176454
   0.70427230  0.68543702 -0.00176913
   0.11052516  0.22188935  0.94744678
   0.22361660  0.11178008  0.05258368
   0.11057336  0.55524859  0.94744943
   0.22361486  0.44514027  0.05259355
   0.11053196  0.88856220  0.94744445
   0.22361346  0.77842237  0.05259607
   0.44368636  0.22180439  0.95674322
   0.55364532  0.11012293  0.04400700
   0.44366364  0.55517388  0.95674981
   0.55365245  0.44346232  0.04401115
   0.44366074  0.88842429  0.95675000
   0.55359478  0.77676430  0.04399548
   0.78179417  0.22418507  0.94290726
   0.89354649  0.11341410  0.05623694
   0.78179679  0.55753474  0.94290631
   0.89354355  0.44674786  0.05624253
   0.78179427  0.89085763  0.94290281
   0.89354235  0.78007147  0.05623969
unknown system                          
           1
     8.308012    4.830142    0.000000
    -8.279312    4.780458    0.000000
     0.000000    0.000000   30.000000
   V    Mo   W    S 
   3   3   3  18
Direct configuration=    19
   0.29817865 -0.01762623  0.00103864
   0.29818040  0.31573496  0.00103676
   0.29818678  0.64906269  0.00104293
   0.99012763  0.32840796  0.00085622
  -0.00988677 -0.00499336  0.00085876
  -0.00986821  0.66167533  0.00085560
   0.70431840  0.01878422 -0.00182524
   0.70432165  0.35213005 -0.00182405
   0.70431705  0.68546062 -0.00182485
   0.11071817  0.22198726  0.94746217
   0.22351558  0.11173085  0.05267460
   0.11070372  0.55531418  0.94744432
   0.22349918  0.44504811  0.05269299
   0.11072091  0.88865494  0.94745872
   0.22349735  0.77839653  0.05269545
   0.44355048  0.22173844  0.95677350
   0.55367692  0.11013691  0.04396529
   0.44354346  0.55508910  0.95677258
   0.55368105  0.44347829  0.04396864
   0.44354210  0.88838776  0.95677218
   0.55365838  0.77679661  0.04395825
   0.78193575  0.22426375  0.94284788
   0.89341478  0.11335611  0.05619912
   0.78193777  0.55759860  0.94284719
   0.89340516  0.44667919  0.05620729
   0.78192799  0.89092426  0.94284269
   0.89341010  0.77999733  0.05620226
unknown system                          
           1
     8.309740    4.831926    0.000000
    -8.280364    4.781070    0.000000
     0.000000    0.000000   30.000000
   V    Mo   W    S 
   3   3   3  18
Direct configuration=    20
   0.29815279 -0.01762667  0.00105583
   0.29815128  0.31570849  0.00105350
   0.29820794  0.64907203  0.00106581
   0.99010762  0.32838373  0.00084968
  -0.00987732 -0.00498770  0.00085235
  -0.00989046  0.66167766  0.00084907
   0.70433546  0.01879176 -0.00183857
   0.70433847  0.35213819 -0.00183969
   0.70433399  0.68547058 -0.00183838
   0.11077973  0.22201782  0.94747368
   0.22348552  0.11171582  0.05269839
   0.11074071  0.55533266  0.94744790
   0.22346883  0.44502693  0.05271668
   0.11078074  0.88868511  0.94746957
   0.22346705  0.77838707  0.05271912
   0.44351282  0.22172030  0.95678724
   0.55369750  0.11014716  0.04394769
   0.44351187  0.55506409  0.95678346
   0.55370078  0.44348818  0.04395075
   0.44351099  0.88838087  0.95678283
   0.55368855  0.77681179  0.04394296
   0.78197355  0.22428688  0.94283918
   0.89337094  0.11333526  0.05618171
   0.78197533  0.55761370  0.94283851
   0.89335823  0.44665577  0.05619140
   0.78196543  0.89094267  0.94283417
   0.89336610  0.77997429  0.05618506
unknown system                          
           1
     8.309940    4.831859    0.000000
    -8.280721    4.781277    0.000000
     0.000000    0.000000   30.000000
   V    Mo   W    S 
   3   3   3  18
Direct configuration=    21
   0.29815169 -0.01762795  0.00116585
   0.29815324  0.31570867  0.00116504
   0.29812832  0.64903057  0.00115724
   0.99008661  0.32838156  0.00083612
  -0.00991000 -0.00500469  0.00083605
  -0.00991282  0.66165910  0.00083575
   0.70436940  0.01882256 -0.00192939
   0.70436377  0.35215131 -0.00192119
   0.70436765  0.68547430 -0.00192833
   0.11099014  0.22212671  0.94749681
   0.22329902  0.11162239  0.05280963
   0.11100593  0.55546583  0.94749951
   0.22329077  0.44494067  0.05281395
   0.11099410  0.88878808  0.94749430
   0.22328984  0.77829437  0.05281532
   0.44336003  0.22164515  0.95683793
   0.55380453  0.11020033  0.04387790
   0.44335969  0.55498294  0.95683696
   0.55380533  0.44354080  0.04387979
   0.44335943  0.88830916  0.95683652
   0.55380112  0.77686871  0.04388031
   0.78214320  0.22436668  0.94277506
   0.89321436  0.11325033  0.05612548
   0.78214326  0.55770333  0.94277427
   0.89320108  0.44657678  0.05612635
   0.78214600  0.89103364  0.94277429
   0.89320882  0.77990310  0.05612838
unknown system                          
           1
     8.308502    4.830039    0.000000
    -8.280139    4.780938    0.000000
     0.000000    0.000000   30.000000
   V    Mo   W    S 
   3   3   3  18
Direct configuration=    22
   0.29809315 -0.01766140  0.00124154
   0.29809573  0.31568234  0.00124054
   0.29806414  0.64899783  0.00123899
   0.99015773  0.32840612  0.00082372
  -0.00985085 -0.00497504  0.00082066
  -0.00984038  0.66170648  0.00082365
   0.70439135  0.01882826 -0.00198882
   0.70437272  0.35215531 -0.00198841
   0.70438785  0.68549117 -0.00198823
   0.11118487  0.22222365  0.94753361
   0.22314422  0.11154334  0.05288456
   0.11120725  0.55556670  0.94753711
   0.22314070  0.44487991  0.05288247
   0.11119029  0.88888651  0.94753135
   0.22314051  0.77820610  0.05288308
   0.44323042  0.22158028  0.95688473
   0.55387471  0.11023538  0.04382445
   0.44322850  0.55491954  0.95688416
   0.55387459  0.44357569  0.04382611
   0.44322827  0.88824168  0.95688381
   0.55387342  0.77690532  0.04382499
   0.78227394  0.22443756  0.94271711
   0.89306873  0.11317436  0.05607854
   0.78227261  0.55776355  0.94271636
   0.89306280  0.44650732  0.05608422
   0.78228353  0.89110228  0.94271760
   0.89306365  0.77983420  0.05608199
unknown system                          
           1
     8.308406    4.829034    0.000000
    -8.280864    4.781356    0.000000
     0.000000    0.000000   30.000000
   V    Mo   W    S 
   3   3   3  18
Direct configuration=    23
   0.29803832 -0.01768070  0.00131255
   0.29803444  0.31564376  0.00131128
   0.29805744  0.64899247  0.00131638
   0.99021295  0.32842149  0.00081227
  -0.00977297 -0.00493498  0.00081095
  -0.00978850  0.66174377  0.00081213
   0.70440479  0.01883266 -0.00204298
   0.70439932  0.35216834 -0.00204227
   0.70440195  0.68550160 -0.00204240
   0.11132022  0.22229154  0.94755121
   0.22305479  0.11149947  0.05292544
   0.11131112  0.55561887  0.94754413
   0.22304995  0.44482721  0.05292672
   0.11132273  0.88895216  0.94754790
   0.22304950  0.77816653  0.05292760
   0.44313839  0.22153527  0.95691201
   0.55389941  0.11024850  0.04379548
   0.44314191  0.55486883  0.95691043
   0.55389749  0.44358673  0.04379691
   0.44314257  0.88820501  0.95690990
   0.55390532  0.77692161  0.04379637
   0.78236433  0.22448452  0.94267663
   0.89297210  0.11312706  0.05605700
   0.78236296  0.55780767  0.94267615
   0.89295855  0.44645549  0.05606197
   0.78236940  0.89114524  0.94267567
   0.89296598  0.77978432  0.05606046
unknown system                          
           1
     8.309713    4.829162    0.000000
    -8.282717    4.782428    0.000000
     0.000000    0.000000   30.000000
   V    Mo   W    S 
   3   3   3  18
Direct configuration=    24
   0.29798915 -0.01770409  0.00137877
   0.29798394  0.31561676  0.00137810
   0.29800129  0.64896299  0.00137854
   0.99028835  0.32845828  0.00080020
  -0.00969805 -0.00489736  0.00080009
  -0.00971435  0.66178180  0.00080006
   0.70441465  0.01884023 -0.00209244
   0.70440693  0.35217243 -0.00209028
   0.70441122  0.68550414 -0.00209167
   0.11146659  0.22236415  0.94756349
   0.22295165  0.11144816  0.05299238
   0.11146666  0.55569688  0.94756110
   0.22294785  0.44477189  0.05299440
   0.11147046  0.88902637  0.94756057
   0.22294716  0.77811864  0.05299535
   0.44304093  0.22148665  0.95693642
   0.55392085  0.11025997  0.04376617
   0.44304504  0.55481910  0.95693575
   0.55391759  0.44359644  0.04376738
   0.44304619  0.88815773  0.95693531