   27   27  100    1
  0.9710400E+02  0.1002848E-08  0.1002848E-08  0.3000000E-08  0.5000000E-15
  1.000000000000000E-004
  CAR 
 unknown system                          
    159     34    120
 
  0.0000000E+00  0.0000000E+00  0.0000000E+00  0.1562500E-01
    1      -17.810130   1.000000
    2      -16.696613   1.000000
    3      -16.584808   1.000000
    4      -16.539991   1.000000
    5      -16.514319   1.000000
    6      -16.416783   1.000000
    7      -16.398723   1.000000
    8      -16.376212   1.000000
    9      -16.168151   1.000000
   10      -16.137190   1.000000
   11      -16.009177   1.000000
   12      -15.952212   1.000000
   13      -15.915548   1.000000
   14      -15.702578   1.000000
   15      -15.584694   1.000000
   16      -15.539279   1.000000
   17      -15.436639   1.000000
   18      -15.325450   1.000000
   19       -9.295521   1.000000
   20       -9.045567   1.000000
   21       -8.931542   1.000000
   22       -8.816660   1.000000
   23       -8.740343   1.000000
   24       -8.723833   1.000000
   25       -8.616563   1.000000
   26       -8.590629   1.000000
   27       -8.493038   1.000000
   28       -8.406445   1.000000
   29       -8.371196   1.000000
   30       -8.245189   1.000000
   31       -8.234766   1.000000
   32       -8.209727   1.000000
   33       -8.050248   1.000000
   34       -7.927323   1.000000
   35       -7.872874   1.000000
   36       -7.853606   1.000000
   37       -7.727408   1.000000
   38       -7.590939   1.000000
   39       -7.454361   1.000000
   40       -7.439992   1.000000
   41       -7.274278   1.000000
   42       -7.210734   1.000000
   43       -7.115411   1.000000
   44       -6.970350   1.000000
   45       -6.819589   1.000000
   46       -6.773734   1.000000
   47       -6.676294   1.000000
   48       -6.626725   1.000000
   49       -6.583113   1.000000
   50       -6.562416   1.000000
   51       -6.461196   1.000000
   52       -6.419955   1.000000
   53       -6.346912   1.000000
   54       -6.317677   1.000000
   55       -6.242975   1.000000
   56       -6.130839   1.000000
   57       -6.051603   1.000000
   58       -5.994323   1.000000
   59       -5.666244   1.000000
   60       -5.584047   1.000000
   61       -5.455964   1.000000
   62       -5.340739   1.000000
   63       -5.315449   1.000000
   64       -5.124230   1.000000
   65       -5.001251   1.000000
   66       -4.986384   1.000000
   67       -4.965889   1.000000
   68       -4.761634   1.000000
   69       -4.713566   1.000000
   70       -4.686317   1.000000
   71       -4.643714   1.000000
   72       -4.613765   1.000000
   73       -4.541652   1.000000
   74       -4.392417   1.000000
   75       -4.249389   1.000000
   76       -4.083080   1.000000
   77       -3.569822   0.997669
   78       -3.494148   0.989115
   79       -3.455127   0.978227
   80       -3.363664   0.914921
   81       -3.346279   0.894125
   82       -2.872676   0.017859
   83       -2.817420   0.006372
   84       -2.646840   0.000109
   85       -2.484047   0.000001
   86       -2.463652   0.000000
   87       -2.352536   0.000000
   88       -2.288761   0.000000
   89       -2.254969   0.000000
   90       -2.018984   0.000000
   91       -1.923274   0.000000
   92       -1.748464   0.000000
   93       -1.445827   0.000000
   94       -1.390523   0.000000
   95       -1.133694   0.000000
   96       -1.067644   0.000000
   97       -1.015161   0.000000
   98       -0.875956   0.000000
   99       -0.840215   0.000000
  100       -0.544880   0.000000
  101       -0.538943   0.000000
  102       -0.526853   0.000000
  103       -0.408679   0.000000
  104       -0.305262   0.000000
  105       -0.088029   0.000000
  106        0.019287   0.000000
  107        0.090284   0.000000
  108        0.098368   0.000000
  109        0.181650   0.000000
  110        0.214496   0.000000
  111        0.254201   0.000000
  112        0.479277   0.000000
  113        0.719552   0.000000
  114        0.777626   0.000000
  115        0.888853   0.000000
  116        0.938371   0.000000
  117        1.205557   0.000000
  118        1.651006   0.000000
  119        1.835254   0.000000
  120        2.157135   0.000000
 
  0.1250000E+00  0.2775558E-16  0.0000000E+00  0.3125000E-01
    1      -17.784731   1.000000
    2      -16.752063   1.000000
    3      -16.688859   1.000000
    4      -16.559401   1.000000
    5      -16.521293   1.000000
    6      -16.410754   1.000000
    7      -16.350800   1.000000
    8      -16.301657   1.000000
    9      -16.240428   1.000000
   10      -16.036632   1.000000
   11      -16.018050   1.000000
   12      -15.929659   1.000000
   13      -15.885807   1.000000
   14      -15.698946   1.000000
   15      -15.591959   1.000000
   16      -15.549371   1.000000
   17      -15.440877   1.000000
   18      -15.334779   1.000000
   19       -9.295275   1.000000
   20       -9.144216   1.000000
   21       -9.057605   1.000000
   22       -8.994106   1.000000
   23       -8.761655   1.000000
   24       -8.658054   1.000000
   25       -8.610612   1.000000
   26       -8.534165   1.000000
   27       -8.493818   1.000000
   28       -8.439302   1.000000
   29       -8.399779   1.000000
   30       -8.177186   1.000000
   31       -8.139145   1.000000
   32       -8.090173   1.000000
   33       -8.048495   1.000000
   34       -7.902104   1.000000
   35       -7.787153   1.000000
   36       -7.736429   1.000000
   37       -7.669043   1.000000
   38       -7.595278   1.000000
   39       -7.503157   1.000000
   40       -7.390153   1.000000
   41       -7.311699   1.000000
   42       -7.212913   1.000000
   43       -7.128437   1.000000
   44       -7.002482   1.000000
   45       -6.855325   1.000000
   46       -6.802952   1.000000
   47       -6.738225   1.000000
   48       -6.687521   1.000000
   49       -6.544303   1.000000
   50       -6.483124   1.000000
   51       -6.459574   1.000000
   52       -6.409093   1.000000
   53       -6.339671   1.000000
   54       -6.305431   1.000000
   55       -6.233043   1.000000
   56       -6.141817   1.000000
   57       -6.019883   1.000000
   58       -5.955974   1.000000
   59       -5.696600   1.000000
   60       -5.549385   1.000000
   61       -5.449073   1.000000
   62       -5.389418   1.000000
   63       -5.338624   1.000000
   64       -5.176776   1.000000
   65       -5.110357   1.000000
   66       -5.013794   1.000000
   67       -5.000748   1.000000
   68       -4.895298   1.000000
   69       -4.794148   1.000000
   70       -4.687723   1.000000
   71       -4.603512   1.000000
   72       -4.487975   1.000000
   73       -4.433983   1.000000
   74       -4.291711   1.000000
   75       -4.183104   1.000000
   76       -4.003614   1.000000
   77       -3.793913   0.999995
   78       -3.653914   0.999692
   79       -3.481312   0.986224
   80       -3.245158   0.703236
   81       -3.178159   0.523914
   82       -2.892709   0.025088
   83       -2.789546   0.003595
   84       -2.662844   0.000169
   85       -2.514424   0.000002
   86       -2.467976   0.000000
   87       -2.424064   0.000000
   88       -2.252892   0.000000
   89       -2.210320   0.000000
   90       -2.009956   0.000000
   91       -1.930444   0.000000
   92       -1.699212   0.000000
   93       -1.432770   0.000000
   94       -1.357132   0.000000
   95       -1.164578   0.000000
   96       -1.062537   0.000000
   97       -0.997445   0.000000
   98       -0.861938   0.000000
   99       -0.841390   0.000000
  100       -0.652408   0.000000
  101       -0.586356   0.000000
  102       -0.551347   0.000000
  103       -0.485126   0.000000
  104       -0.286031   0.000000
  105       -0.119110   0.000000
  106       -0.108325   0.000000
  107       -0.022957   0.000000
  108        0.056883   0.000000
  109        0.121712   0.000000
  110        0.219441   0.000000
  111        0.330463   0.000000
  112        0.558717   0.000000
  113        0.705188   0.000000
  114        0.790477   0.000000
  115        0.930350   0.000000
  116        1.042356   0.000000
  117        1.217610   0.000000
  118        1.694909   0.000000
  119        1.873930   0.000000
  120        2.192468   0.000000
 
  0.2500000E+00  0.5551115E-16  0.0000000E+00  0.3125000E-01
    1      -17.709898   1.000000
    2      -16.970247   1.000000
    3      -16.701442   1.000000
    4      -16.619240   1.000000
    5      -16.562947   1.000000
    6      -16.394199   1.000000
    7      -16.310809   1.000000
    8      -16.215755   1.000000
    9      -16.207672   1.000000
   10      -16.058003   1.000000
   11      -15.970596   1.000000
   12      -15.853747   1.000000
   13      -15.812591   1.000000
   14      -15.697687   1.000000
   15      -15.595954   1.000000
   16      -15.575588   1.000000
   17      -15.449959   1.000000
   18      -15.359386   1.000000
   19       -9.512112   1.000000
   20       -9.245092   1.000000
   21       -9.168781   1.000000
   22       -9.027497   1.000000
   23       -8.875974   1.000000
   24       -8.709644   1.000000
   25       -8.619260   1.000000
   26       -8.528211   1.000000
   27       -8.472503   1.000000
   28       -8.345583   1.000000
   29       -8.324966   1.000000
   30       -8.220143   1.000000
   31       -8.123887   1.000000
   32       -7.962073   1.000000
   33       -7.879325   1.000000
   34       -7.823799   1.000000
   35       -7.705672   1.000000
   36       -7.662887   1.000000
   37       -7.598405   1.000000
   38       -7.520504   1.000000
   39       -7.452609   1.000000
   40       -7.375572   1.000000
   41       -7.278097   1.000000
   42       -7.168734   1.000000
   43       -7.103603   1.000000
   44       -7.024493   1.000000
   45       -6.873838   1.000000
   46       -6.853159   1.000000
   47       -6.780623   1.000000
   48       -6.712879   1.000000
   49       -6.557597   1.000000
   50       -6.499739   1.000000
   51       -6.474783   1.000000
   52       -6.406157   1.000000
   53       -6.291044   1.000000
   54       -6.207553   1.000000
   55       -6.145082   1.000000
   56       -6.098165   1.000000
   57       -6.032747   1.000000
   58       -5.867526   1.000000
   59       -5.742615   1.000000
   60       -5.665544   1.000000
   61       -5.598782   1.000000
   62       -5.534493   1.000000
   63       -5.408211   1.000000
   64       -5.328860   1.000000
   65       -5.198293   1.000000
   66       -5.138536   1.000000
   67       -4.960110   1.000000
   68       -4.875981   1.000000
   69       -4.794561   1.000000
   70       -4.698411   1.000000
   71       -4.493357   1.000000
   72       -4.377151   1.000000
   73       -4.327203   1.000000
   74       -4.213344   1.000000
   75       -4.138316   1.000000
   76       -4.035867   1.000000
   77       -3.951376   1.000000
   78       -3.760622   0.999985
   79       -3.444511   0.974014
   80       -3.095586   0.300174
   81       -3.071498   0.243769
   82       -2.910913   0.033645
   83       -2.767657   0.002237
   84       -2.703898   0.000495
   85       -2.561760   0.000009
   86       -2.489171   0.000001
   87       -2.472999   0.000000
   88       -2.214872   0.000000
   89       -2.160074   0.000000
   90       -2.007526   0.000000
   91       -1.907445   0.000000
   92       -1.605495   0.000000
   93       -1.387104   0.000000
   94       -1.284807   0.000000
   95       -1.203688   0.000000
   96       -1.097057   0.000000
   97       -0.966052   0.000000
   98       -0.905105   0.000000
   99       -0.832803   0.000000
  100       -0.767411   0.000000
  101       -0.707382   0.000000
  102       -0.637332   0.000000
  103       -0.578580   0.000000
  104       -0.436294   0.000000
  105       -0.311941   0.000000
  106       -0.230545   0.000000
  107       -0.115667   0.000000
  108        0.014418   0.000000
  109        0.136293   0.000000
  110        0.157651   0.000000
  111        0.338947   0.000000
  112        0.515132   0.000000
  113        0.770592   0.000000
  114        0.873201   0.000000
  115        1.024738   0.000000
  116        1.162554   0.000000
  117        1.346093   0.000000
  118        1.817989   0.000000
  119        1.984989   0.000000
  120        2.297423   0.000000
 
  0.3750000E+00  0.0000000E+00  0.0000000E+00  0.3125000E-01
    1      -17.591768   1.000000
    2      -17.188826   1.000000
    3      -16.719110   1.000000
    4      -16.664123   1.000000
    5      -16.557255   1.000000
    6      -16.449098   1.000000
    7      -16.250871   1.000000
    8      -16.168539   1.000000
    9      -16.146350   1.000000
   10      -16.078497   1.000000
   11      -15.916496   1.000000
   12      -15.809942   1.000000
   13      -15.760435   1.000000
   14      -15.721371   1.000000
   15      -15.624515   1.000000
   16      -15.541380   1.000000
   17      -15.458899   1.000000
   18      -15.387067   1.000000
   19       -9.731568   1.000000
   20       -9.374136   1.000000
   21       -9.142960   1.000000
   22       -9.030659   1.000000
   23       -8.919529   1.000000
   24       -8.747775   1.000000
   25       -8.629797   1.000000
   26       -8.504523   1.000000
   27       -8.446383   1.000000
   28       -8.370702   1.000000
   29       -8.275809   1.000000
   30       -8.180738   1.000000
   31       -8.092450   1.000000
   32       -7.928535   1.000000
   33       -7.852740   1.000000
   34       -7.790074   1.000000
   35       -7.744808   1.000000
   36       -7.663486   1.000000
   37       -7.578079   1.000000
   38       -7.545144   1.000000
   39       -7.375060   1.000000
   40       -7.248609   1.000000
   41       -7.170559   1.000000
   42       -7.095912   1.000000
   43       -7.052494   1.000000
   44       -6.921719   1.000000
   45       -6.866803   1.000000
   46       -6.809974   1.000000
   47       -6.764017   1.000000
   48       -6.616418   1.000000
   49       -6.572666   1.000000
   50       -6.508109   1.000000
   51       -6.452630   1.000000
   52       -6.352715   1.000000
   53       -6.248468   1.000000
   54       -6.184582   1.000000
   55       -6.119208   1.000000
   56       -6.034027   1.000000
   57       -5.962850   1.000000
   58       -5.944716   1.000000
   59       -5.896853   1.000000
   60       -5.771848   1.000000
   61       -5.744439   1.000000
   62       -5.725533   1.000000
   63       -5.648663   1.000000
   64       -5.408870   1.000000
   65       -5.168781   1.000000
   66       -5.062036   1.000000
   67       -4.927621   1.000000
   68       -4.873540   1.000000
   69       -4.805354   1.000000
   70       -4.684423   1.000000
   71       -4.625170   1.000000
   72       -4.357089   1.000000
   73       -4.287994   1.000000
   74       -4.224856   1.000000
   75       -4.174758   1.000000
   76       -4.029304   1.000000
   77       -3.879168   1.000000
   78       -3.649584   0.999655
   79       -3.388312   0.938946
   80       -3.084483   0.273451
   81       -2.994777   0.108094
   82       -2.916631   0.036783
   83       -2.752255   0.001581
   84       -2.712165   0.000608
   85       -2.601739   0.000030
   86       -2.527060   0.000003
   87       -2.483046   0.000001
   88       -2.208739   0.000000
   89       -2.086750   0.000000
   90       -2.020115   0.000000
   91       -1.852092   0.000000
   92       -1.541426   0.000000
   93       -1.343172   0.000000
   94       -1.244080   0.000000
   95       -1.225904   0.000000
   96       -1.122010   0.000000
   97       -1.036521   0.000000
   98       -0.937088   0.000000
   99       -0.894356   0.000000
  100       -0.799084   0.000000
  101       -0.764360   0.000000
  102       -0.703962   0.000000
  103       -0.652215   0.000000
  104       -0.588062   0.000000
  105       -0.492221   0.000000
  106       -0.289988   0.000000
  107       -0.193255   0.000000
  108       -0.043614   0.000000
  109        0.053187   0.000000
  110        0.186545   0.000000
  111        0.336253   0.000000
  112        0.475448   0.000000
  113        0.828167   0.000000
  114        0.860009   0.000000
  115        1.119972   0.000000
  116        1.308613   0.000000
  117        1.478494   0.000000
  118        2.004232   0.000000
  119        2.158925   0.000000
  120        2.469747   0.000000
 
  0.5000000E+00  0.1110223E-15  0.0000000E+00  0.1562500E-01
    1      -17.484913   1.000000
    2      -17.330932   1.000000
    3      -16.727552   1.000000
    4      -16.680028   1.000000
    5      -16.539513   1.000000
    6      -16.481891   1.000000
    7      -16.226332   1.000000
    8      -16.157642   1.000000
    9      -16.126901   1.000000
   10      -16.080166   1.000000
   11      -15.847825   1.000000
   12      -15.840838   1.000000
   13      -15.760439   1.000000
   14      -15.698324   1.000000
   15      -15.668058   1.000000
   16      -15.498212   1.000000
   17      -15.473997   1.000000
   18      -15.397847   1.000000
   19       -9.811298   1.000000
   20       -9.420624   1.000000
   21       -9.138211   1.000000
   22       -9.065288   1.000000
   23       -8.842261   1.000000
   24       -8.759221   1.000000
   25       -8.667825   1.000000
   26       -8.544859   1.000000
   27       -8.447658   1.000000
   28       -8.366807   1.000000
   29       -8.200186   1.000000
   30       -8.160378   1.000000
   31       -8.053347   1.000000
   32       -7.965752   1.000000
   33       -7.861046   1.000000
   34       -7.805277   1.000000
   35       -7.762255   1.000000
   36       -7.690827   1.000000
   37       -7.616847   1.000000
   38       -7.517756   1.000000
   39       -7.388078   1.000000
   40       -7.276877   1.000000
   41       -7.058496   1.000000
   42       -7.008127   1.000000
   43       -6.923025   1.000000
   44       -6.889718   1.000000
   45       -6.852617   1.000000
   46       -6.772478   1.000000
   47       -6.664944   1.000000
   48       -6.612150   1.000000
   49       -6.551904   1.000000
   50       -6.518931   1.000000
   51       -6.469583   1.000000
   52       -6.403531   1.000000
   53       -6.278859   1.000000
   54       -6.215655   1.000000
   55       -6.098641   1.000000
   56       -6.036687   1.000000
   57       -6.004055   1.000000
   58       -5.962242   1.000000
   59       -5.864612   1.000000
   60       -5.795310   1.000000
   61       -5.779412   1.000000
   62       -5.710248   1.000000
   63       -5.668235   1.000000
   64       -5.449726   1.000000
   65       -5.365047   1.000000
   66       -5.006020   1.000000
   67       -4.995122   1.000000
   68       -4.905799   1.000000
   69       -4.815351   1.000000
   70       -4.655806   1.000000
   71       -4.588384   1.000000
   72       -4.338051   1.000000
   73       -4.327222   1.000000
   74       -4.248476   1.000000
   75       -4.187282   1.000000
   76       -3.983658   1.000000
   77       -3.796508   0.999995
   78       -3.633990   0.999487
   79       -3.334763   0.878463
   80       -3.131195   0.392769
   81       -2.959184   0.068322
   82       -2.914031   0.035328
   83       -2.736933   0.001107
   84       -2.705675   0.000517
   85       -2.627311   0.000063
   86       -2.539936   0.000004
   87       -2.487229   0.000001
   88       -2.205447   0.000000
   89       -2.054746   0.000000
   90       -2.024913   0.000000
   91       -1.822326   0.000000
   92       -1.519888   0.000000
   93       -1.335972   0.000000
   94       -1.263250   0.000000
   95       -1.227556   0.000000
   96       -1.122267   0.000000
   97       -1.058401   0.000000
   98       -0.967714   0.000000
   99       -0.898696   0.000000
  100       -0.851522   0.000000
  101       -0.755539   0.000000
  102       -0.718054   0.000000
  103       -0.667054   0.000000
  104       -0.654927   0.000000
  105       -0.564541   0.000000
  106       -0.300285   0.000000
  107       -0.229869   0.000000
  108       -0.077815   0.000000
  109        0.018119   0.000000
  110        0.203874   0.000000
  111        0.339417   0.000000
  112        0.457745   0.000000
  113        0.828162   0.000000
  114        0.870194   0.000000
  115        1.158727   0.000000
  116        1.363769   0.000000
  117        1.528167   0.000000
  118        2.234791   0.000000
  119        2.250830   0.000000
  120        2.375794   0.000000
 
  0.0000000E+00  0.1250000E+00  0.0000000E+00  0.3125000E-01
    1      -17.786051   1.000000
    2      -16.763928   1.000000
    3      -16.616126   1.000000
    4      -16.606894   1.000000
    5      -16.564218   1.000000
    6      -16.383178   1.000000
    7      -16.360729   1.000000
    8      -16.282685   1.000000
    9      -16.164240   1.000000
   10      -16.154335   1.000000
   11      -15.991191   1.000000
   12      -15.932680   1.000000
   13      -15.868475   1.000000
   14      -15.695166   1.000000
   15      -15.608792   1.000000
   16      -15.537647   1.000000
   17      -15.454107   1.000000
   18      -15.327026   1.000000
   19       -9.308662   1.000000
   20       -9.137393   1.000000
   21       -8.991690   1.000000
   22       -8.880551   1.000000
   23       -8.833568   1.000000
   24       -8.801205   1.000000
   25       -8.596321   1.000000
   26       -8.581586   1.000000
   27       -8.506294   1.000000
   28       -8.409800   1.000000
   29       -8.388812   1.000000
   30       -8.203269   1.000000
   31       -8.161708   1.000000
   32       -8.022419   1.000000
   33       -7.955516   1.000000
   34       -7.830699   1.000000
   35       -7.806452   1.000000
   36       -7.801915   1.000000
   37       -7.678581   1.000000
   38       -7.647077   1.000000
   39       -7.483459   1.000000
   40       -7.473879   1.000000
   41       -7.247606   1.000000
   42       -7.193278   1.000000
   43       -7.054047   1.000000
   44       -7.015205   1.000000
   45       -6.943028   1.000000
   46       -6.819858   1.000000
   47       -6.682812   1.000000
   48       -6.610950   1.000000
   49       -6.579623   1.000000
   50       -6.505684   1.000000
   51       -6.456519   1.000000
   52       -6.423066   1.000000
   53       -6.328774   1.000000
   54       -6.314230   1.000000
   55       -6.286228   1.000000
   56       -6.190537   1.000000
   57       -5.975093   1.000000
   58       -5.959207   1.000000
   59       -5.640238   1.000000
   60       -5.582589   1.000000
   61       -5.477018   1.000000
   62       -5.414488   1.000000
   63       -5.280801   1.000000
   64       -5.187061   1.000000
   65       -5.098014   1.000000
   66       -5.038318   1.000000
   67       -4.955874   1.000000
   68       -4.878066   1.000000
   69       -4.866894   1.000000
   70       -4.680674   1.000000
   71       -4.563053   1.000000
   72       -4.516150   1.000000
   73       -4.451118   1.000000
   74       -4.194788   1.000000
   75       -4.184163   1.000000
   76       -4.077417   1.000000
   77       -3.738908   0.999972
   78       -3.722789   0.999954
   79       -3.464757   0.981535
   80       -3.247642   0.709286
   81       -3.180327   0.530015
   82       -2.866643   0.016066
   83       -2.816752   0.006288
   84       -2.639274   0.000088
   85       -2.495705   0.000001
   86       -2.474325   0.000000
   87       -2.333544   0.000000
   88       -2.256059   0.000000
   89       -2.242387   0.000000
   90       -2.044815   0.000000
   91       -1.923406   0.000000
   92       -1.730781   0.000000
   93       -1.433430   0.000000
   94       -1.381537   0.000000
   95       -1.140655   0.000000
   96       -1.083290   0.000000
   97       -1.010626   0.000000
   98       -0.872178   0.000000
   99       -0.835362   0.000000
  100       -0.658697   0.000000
  101       -0.612913   0.000000
  102       -0.563224   0.000000
  103       -0.441052   0.000000
  104       -0.367041   0.000000
  105       -0.106765   0.000000
  106       -0.067508   0.000000
  107       -0.024801   0.000000
  108        0.056314   0.000000
  109        0.182623   0.000000
  110        0.291370   0.000000
  111        0.350218   0.000000
  112        0.446014   0.000000
  113        0.645793   0.000000
  114        0.733051   0.000000
  115        1.009314   0.000000
  116        1.075682   0.000000
  117        1.225144   0.000000
  118        1.693396   0.000000
  119        1.874883   0.000000
  120        2.191901   0.000000
 
  0.1250000E+00  0.1250000E+00  0.0000000E+00  0.3125000E-01
    1      -17.737289   1.000000
    2      -16.864198   1.000000
    3      -16.788398   1.000000
    4      -16.612629   1.000000
    5      -16.471663   1.000000
    6      -16.395743   1.000000
    7      -16.295778   1.000000
    8      -16.274617   1.000000
    9      -16.210178   1.000000
   10      -16.068955   1.000000
   11      -15.997474   1.000000
   12      -15.879550   1.000000
   13      -15.804531   1.000000
   14      -15.689284   1.000000
   15      -15.623851   1.000000
   16      -15.558482   1.000000
   17      -15.468802   1.000000
   18      -15.335637   1.000000
   19       -9.375872   1.000000
   20       -9.275292   1.000000
   21       -9.153465   1.000000
   22       -9.040427   1.000000
   23       -8.836648   1.000000
   24       -8.674496   1.000000
   25       -8.585626   1.000000
   26       -8.568949   1.000000
   27       -8.491724   1.000000
   28       -8.388302   1.000000
   29       -8.319068   1.000000
   30       -8.200266   1.000000
   31       -8.110945   1.000000
   32       -8.035114   1.000000
   33       -7.952300   1.000000
   34       -7.832959   1.000000
   35       -7.705227   1.000000
   36       -7.640654   1.000000
   37       -7.616611   1.000000
   38       -7.551283   1.000000
   39       -7.462166   1.000000
   40       -7.357671   1.000000
   41       -7.291706   1.000000
   42       -7.185167   1.000000
   43       -7.071486   1.000000
   44       -7.026303   1.000000
   45       -6.940380   1.000000
   46       -6.855222   1.000000
   47       -6.775629   1.000000
   48       -6.668719   1.000000
   49       -6.572319   1.000000
   50       -6.490762   1.000000
   51       -6.467328   1.000000
   52       -6.373627   1.000000
   53       -6.327949   1.000000
   54       -6.305043   1.000000
   55       -6.200318   1.000000
   56       -6.167110   1.000000
   57       -5.981814   1.000000
   58       -5.893043   1.000000
   59       -5.702635   1.000000
   60       -5.576997   1.000000
   61       -5.541369   1.000000
   62       -5.452775   1.000000
   63       -5.417015   1.000000
   64       -5.273080   1.000000
   65       -5.167394   1.000000
   66       -5.095277   1.000000
   67       -5.009224   1.000000
   68       -4.958277   1.000000
   69       -4.833295   1.000000
   70       -4.628311   1.000000
   71       -4.494279   1.000000
   72       -4.409560   1.000000
   73       -4.375420   1.000000
   74       -4.195676   1.000000
   75       -4.094567   1.000000
   76       -4.043732   1.000000
   77       -3.895580   1.000000
   78       -3.819592   0.999998
   79       -3.471454   0.983574
   80       -3.145372   0.431774
   81       -3.072461   0.245909
   82       -2.876832   0.019192
   83       -2.789906   0.003622
   84       -2.656627   0.000143
   85       -2.520971   0.000002
   86       -2.485041   0.000001
   87       -2.409659   0.000000
   88       -2.208564   0.000000
   89       -2.176668   0.000000
   90       -2.039087   0.000000
   91       -1.914275   0.000000
   92       -1.682211   0.000000
   93       -1.415542   0.000000
   94       -1.346036   0.000000
   95       -1.172947   0.000000
   96       -1.093424   0.000000
   97       -1.006031   0.000000
   98       -0.871333   0.000000
   99       -0.848024   0.000000
  100       -0.767196   0.000000
  101       -0.701897   0.000000
  102       -0.625217   0.000000
  103       -0.550826   0.000000
  104       -0.391347   0.000000
  105       -0.243764   0.000000
  106       -0.157264   0.000000
  107       -0.052224   0.000000
  108       -0.038171   0.000000
  109        0.129368   0.000000
  110        0.238115   0.000000
  111        0.383391   0.000000
  112        0.492796   0.000000
  113        0.694562   0.000000
  114        0.780317   0.000000
  115        1.070708   0.000000
  116        1.178317   0.000000
  117        1.288700   0.000000
  118        1.775741   0.000000
  119        1.950449   0.000000
  120        2.261502   0.000000
 
  0.2500000E+00  0.1250000E+00  0.0000000E+00  0.3125000E-01
    1      -17.641792   1.000000
    2      -17.061857   1.000000
    3      -16.879421   1.000000
    4      -16.595467   1.000000
    5      -16.469805   1.000000
    6      -16.382570   1.000000
    7      -16.297546   1.000000
    8      -16.212068   1.000000
    9      -16.181495   1.000000
   10      -16.028210   1.000000
   11      -16.003541   1.000000
   12      -15.828581   1.000000
   13      -15.723388   1.000000
   14      -15.694647   1.000000
   15      -15.645294   1.000000
   16      -15.575658   1.000000
   17      -15.471560   1.000000
   18      -15.353082   1.000000
   19       -9.606023   1.000000
   20       -9.391045   1.000000
   21       -9.276736   1.000000
   22       -9.025933   1.000000
   23       -8.839580   1.000000
   24       -8.630077   1.000000
   25       -8.578630   1.000000
   26       -8.484902   1.000000
   27       -8.441689   1.000000
   28       -8.371602   1.000000
   29       -8.286102   1.000000
   30       -8.219826   1.000000
   31       -8.099440   1.000000
   32       -8.030360   1.000000
   33       -7.953653   1.000000
   34       -7.913967   1.000000
   35       -7.733049   1.000000
   36       -7.554851   1.000000
   37       -7.526340   1.000000
   38       -7.422684   1.000000
   39       -7.398437   1.000000
   40       -7.325485   1.000000
   41       -7.210947   1.000000
   42       -7.085446   1.000000
   43       -7.070863   1.000000
   44       -6.963921   1.000000
   45       -6.906424   1.000000
   46       -6.849764   1.000000
   47       -6.738587   1.000000