       N       E                     dE             d eps       ncg     rms          rms(c)
DAV:   1     0.112626196583E+04    0.11263E+04   -0.35984E+04  8160   0.577E+02
DAV:   2    -0.869102940237E+00   -0.11271E+04   -0.10833E+04 11240   0.173E+02
DAV:   3    -0.199677710709E+03   -0.19881E+03   -0.19099E+03 10880   0.823E+01
DAV:   4    -0.209004418569E+03   -0.93267E+01   -0.90447E+01 12000   0.264E+01
DAV:   5    -0.209353621624E+03   -0.34920E+00   -0.34826E+00 11400   0.380E+00    0.277E+01
DAV:   6    -0.240929523525E+03   -0.31576E+02   -0.11687E+02 12560   0.599E+01    0.606E+01
DAV:   7    -0.196278722240E+03    0.44651E+02   -0.17755E+02 13200   0.151E+02    0.199E+01
DAV:   8    -0.189531616804E+03    0.67471E+01   -0.18722E+01 12120   0.128E+01    0.126E+01
DAV:   9    -0.188082800325E+03    0.14488E+01   -0.31495E+00 12720   0.622E+00    0.892E+00
DAV:  10    -0.186929298310E+03    0.11535E+01   -0.16063E+00 13440   0.743E+00    0.205E+00
DAV:  11    -0.187077584171E+03   -0.14829E+00   -0.65984E-01 13360   0.396E+00    0.460E+00
DAV:  12    -0.186925072304E+03    0.15251E+00   -0.64647E-01 12720   0.440E+00    0.283E+00
DAV:  13    -0.186855200614E+03    0.69872E-01   -0.18259E-01 13000   0.226E+00    0.145E+00
DAV:  14    -0.186843161644E+03    0.12039E-01   -0.90048E-02 12600   0.168E+00    0.134E+00
DAV:  15    -0.186829881665E+03    0.13280E-01   -0.35554E-02 13000   0.902E-01    0.484E-01
DAV:  16    -0.186827565430E+03    0.23162E-02   -0.74165E-03 12320   0.284E-01    0.280E-01
DAV:  17    -0.186826246171E+03    0.13193E-02   -0.48643E-03 12720   0.294E-01    0.208E-01
DAV:  18    -0.186825742756E+03    0.50341E-03   -0.17033E-03 12760   0.200E-01    0.706E-02
DAV:  19    -0.186826390795E+03   -0.64804E-03   -0.89151E-04 10520   0.981E-02    0.759E-02
DAV:  20    -0.186826863049E+03   -0.47225E-03   -0.28209E-04  7720   0.460E-02    0.681E-02
DAV:  21    -0.186827920610E+03   -0.10576E-02   -0.27382E-04  7520   0.537E-02    0.195E-02
DAV:  22    -0.186829005167E+03   -0.10846E-02   -0.10917E-04  8080   0.244E-02    0.208E-02
DAV:  23    -0.186829478453E+03   -0.47329E-03   -0.31986E-05  6160   0.174E-02    0.107E-02
DAV:  24    -0.186830126330E+03   -0.64788E-03   -0.39287E-05  7160   0.159E-02    0.655E-03
DAV:  25    -0.186830476088E+03   -0.34976E-03   -0.90948E-06  6360   0.101E-02    0.288E-03
DAV:  26    -0.186830720630E+03   -0.24454E-03   -0.75293E-06  6800   0.631E-03    0.184E-03
DAV:  27    -0.186830790049E+03   -0.69418E-04   -0.24955E-06  7480   0.416E-03
   1 F= -.18683079E+03 E0= -.18665787E+03  d E =-.186831E+03
       N       E                     dE             d eps       ncg     rms          rms(c)
DAV:   1    -0.187522404936E+03   -0.69168E+00   -0.27741E+02  8160   0.354E+01    0.466E+00
DAV:   2    -0.189505914671E+03   -0.19835E+01   -0.20310E+01 12240   0.154E+01    0.937E+00
DAV:   3    -0.189349689129E+03    0.15623E+00   -0.40685E+00 12560   0.122E+01    0.651E+00
DAV:   4    -0.188772443006E+03    0.57725E+00   -0.66754E-01 12800   0.449E+00    0.171E+00
DAV:   5    -0.188730405114E+03    0.42038E-01   -0.28277E-01 10480   0.157E+00    0.174E+00
DAV:   6    -0.188778678268E+03   -0.48273E-01   -0.33274E-01 13280   0.300E+00    0.316E+00
DAV:   7    -0.188711731490E+03    0.66947E-01   -0.19297E-01 12800   0.254E+00    0.137E+00
DAV:   8    -0.188688528152E+03    0.23203E-01   -0.43183E-02 11360   0.908E-01    0.443E-01
DAV:   9    -0.188689740779E+03   -0.12126E-02   -0.11953E-02 12480   0.560E-01    0.570E-01
DAV:  10    -0.188687575249E+03    0.21655E-02   -0.64138E-03 13040   0.415E-01    0.180E-01
DAV:  11    -0.188687074284E+03    0.50096E-03   -0.15760E-03 11520   0.125E-01    0.795E-02
DAV:  12    -0.188687159505E+03   -0.85222E-04   -0.52973E-04 10080   0.629E-02
   2 F= -.18868716E+03 E0= -.18854482E+03  d E =-.185637E+01
       N       E                     dE             d eps       ncg     rms          rms(c)
DAV:   1    -0.190627368372E+03   -0.19403E+01   -0.31767E+01  9240   0.143E+01    0.443E+00
DAV:   2    -0.190546028778E+03    0.81340E-01   -0.27595E+00 11640   0.910E+00    0.714E+00
DAV:   3    -0.190123092372E+03    0.42294E+00   -0.15129E+00 12440   0.840E+00    0.432E+00
DAV:   4    -0.189895379995E+03    0.22771E+00   -0.72115E-01 12720   0.437E+00    0.242E+00
DAV:   5    -0.189811800610E+03    0.83579E-01   -0.29892E-01 11880   0.202E+00    0.107E+00
DAV:   6    -0.189799808924E+03    0.11992E-01   -0.61374E-02 11920   0.132E+00    0.913E-01
DAV:   7    -0.189793637195E+03    0.61717E-02   -0.17596E-02 11640   0.731E-01    0.247E-01
DAV:   8    -0.189793304093E+03    0.33310E-03   -0.22227E-03 11720   0.161E-01    0.132E-01
DAV:   9    -0.189793832748E+03   -0.52866E-03   -0.11480E-03 10720   0.134E-01    0.178E-01
DAV:  10    -0.189793689560E+03    0.14319E-03   -0.12285E-03 10720   0.203E-01    0.174E-01
DAV:  11    -0.189793452532E+03    0.23703E-03   -0.49003E-04  9080   0.136E-01    0.303E-02
DAV:  12    -0.189793459765E+03   -0.72334E-05   -0.46689E-05  5960   0.280E-02
   3 F= -.18979346E+03 E0= -.18967181E+03  d E =-.110630E+01
       N       E                     dE             d eps       ncg     rms          rms(c)
DAV:   1    -0.191407763514E+03   -0.16143E+01   -0.83528E+01  8160   0.207E+01    0.459E+00
DAV:   2    -0.191159208373E+03    0.24856E+00   -0.53757E+00 12880   0.678E+00    0.378E+00
DAV:   3    -0.191375155909E+03   -0.21595E+00   -0.14894E+00 12240   0.850E+00    0.670E+00
DAV:   4    -0.190984077367E+03    0.39108E+00   -0.13500E+00 12240   0.811E+00    0.295E+00
DAV:   5    -0.190857446804E+03    0.12663E+00   -0.31894E-01 12200   0.253E+00    0.117E+00
DAV:   6    -0.190858547020E+03   -0.11002E-02   -0.12530E-01 12000   0.209E+00    0.166E+00
DAV:   7    -0.190838247274E+03    0.20300E-01   -0.66509E-02 11600   0.161E+00    0.557E-01
DAV:   8    -0.190834201961E+03    0.40453E-02   -0.78502E-03 11800   0.462E-01    0.253E-01
DAV:   9    -0.190834291837E+03   -0.89875E-04   -0.27642E-03 12600   0.327E-01    0.255E-01
DAV:  10    -0.190834032597E+03    0.25924E-03   -0.20487E-03 11080   0.228E-01    0.617E-02
DAV:  11    -0.190834030298E+03    0.22994E-05   -0.20721E-04  7040   0.586E-02
   4 F= -.19083403E+03 E0= -.19072619E+03  d E =-.104057E+01
       N       E                     dE             d eps       ncg     rms          rms(c)
DAV:   1    -0.192264607955E+03   -0.14306E+01   -0.19432E+02  8160   0.309E+01    0.584E+00
DAV:   2    -0.191972156174E+03    0.29245E+00   -0.10048E+01  9960   0.766E+00    0.325E+00
DAV:   3    -0.191845856426E+03    0.12630E+00   -0.15508E+00 10920   0.497E+00    0.360E+00
DAV:   4    -0.191864023078E+03   -0.18167E-01   -0.96115E-01 12160   0.703E+00    0.499E+00
DAV:   5    -0.191611648530E+03    0.25237E+00   -0.73335E-01 12320   0.572E+00    0.182E+00
DAV:   6    -0.191610268499E+03    0.13800E-02   -0.23134E-01 12240   0.296E+00    0.193E+00
DAV:   7    -0.191574819919E+03    0.35449E-01   -0.94084E-02 12280   0.205E+00    0.572E-01
DAV:   8    -0.191570982503E+03    0.38374E-02   -0.17162E-02 11560   0.706E-01    0.472E-01
DAV:   9    -0.191569516927E+03    0.14656E-02   -0.68375E-03 11920   0.503E-01    0.240E-01
DAV:  10    -0.191569355558E+03    0.16137E-03   -0.24613E-03 11600   0.227E-01    0.889E-02
DAV:  11    -0.191569308278E+03    0.47280E-04   -0.41071E-04  9680   0.833E-02
   5 F= -.19156931E+03 E0= -.19146134E+03  d E =-.735278E+00
       N       E                     dE             d eps       ncg     rms          rms(c)
DAV:   1    -0.191644726722E+03   -0.75371E-01   -0.54927E+00  8160   0.501E+00    0.769E-01
DAV:   2    -0.191722229763E+03   -0.77503E-01   -0.36113E-01 12480   0.328E+00    0.261E+00
DAV:   3    -0.191655778424E+03    0.66451E-01   -0.14296E-01 12480   0.253E+00    0.532E-01
DAV:   4    -0.191660507986E+03   -0.47296E-02   -0.29911E-02 10680   0.111E+00    0.912E-01
DAV:   5    -0.191651461431E+03    0.90466E-02   -0.16127E-02 10760   0.864E-01    0.229E-01
DAV:   6    -0.191651041497E+03    0.41993E-03   -0.45808E-03 11240   0.250E-01    0.127E-01
DAV:   7    -0.191650854855E+03    0.18664E-03   -0.14314E-03 11200   0.181E-01    0.142E-01
DAV:   8    -0.191650719641E+03    0.13521E-03   -0.65066E-04  8640   0.151E-01    0.676E-02
DAV:   9    -0.191650690662E+03    0.28979E-04   -0.11083E-04  6000   0.574E-02
   6 F= -.19165069E+03 E0= -.19154124E+03  d E =-.813824E-01
       N       E                     dE             d eps       ncg     rms          rms(c)
DAV:   1    -0.191728254163E+03   -0.77535E-01   -0.65104E+00  8160   0.538E+00    0.641E-01
DAV:   2    -0.191784168365E+03   -0.55914E-01   -0.24281E-01 13160   0.231E+00    0.225E+00
DAV:   3    -0.191736459415E+03    0.47709E-01   -0.11497E-01 12480   0.220E+00    0.534E-01
DAV:   4    -0.191738030236E+03   -0.15708E-02   -0.19296E-02 10480   0.869E-01    0.655E-01
DAV:   5    -0.191733205706E+03    0.48245E-02   -0.85950E-03 11080   0.668E-01    0.173E-01
DAV:   6    -0.191732983469E+03    0.22224E-03   -0.23707E-03 10560   0.190E-01    0.110E-01
DAV:   7    -0.191732856868E+03    0.12660E-03   -0.11303E-03 10920   0.153E-01    0.120E-01
DAV:   8    -0.191732785197E+03    0.71671E-04   -0.63680E-04  8520   0.147E-01
   7 F= -.19173279E+03 E0= -.19162282E+03  d E =-.820945E-01
       N       E                     dE             d eps       ncg     rms          rms(c)
DAV:   1    -0.191812287178E+03   -0.79430E-01   -0.68184E+00  8160   0.557E+00    0.761E-01
DAV:   2    -0.191903203873E+03   -0.90917E-01   -0.36030E-01 12200   0.328E+00    0.303E+00
DAV:   3    -0.191821202723E+03    0.82001E-01   -0.18034E-01 12440   0.274E+00    0.504E-01
DAV:   4    -0.191823692860E+03   -0.24901E-02   -0.21875E-02 10160   0.993E-01    0.726E-01
DAV:   5    -0.191817597757E+03    0.60951E-02   -0.11627E-02 11400   0.791E-01    0.228E-01
DAV:   6    -0.191817805938E+03   -0.20818E-03   -0.53353E-03 11440   0.354E-01    0.318E-01
DAV:   7    -0.191817788069E+03    0.17869E-04   -0.59924E-03 11440   0.453E-01    0.329E-01
DAV:   8    -0.191816712771E+03    0.10753E-02   -0.20443E-03 10160   0.247E-01    0.295E-02
DAV:   9    -0.191816737888E+03   -0.25117E-04   -0.11699E-04  6320   0.333E-02
   8 F= -.19181674E+03 E0= -.19170774E+03  d E =-.839527E-01
       N       E                     dE             d eps       ncg     rms          rms(c)
DAV:   1    -0.191921443700E+03   -0.10473E+00   -0.26235E+01  8160   0.109E+01    0.130E+00
DAV:   2    -0.192151909371E+03   -0.23047E+00   -0.11070E+00 11280   0.511E+00    0.466E+00
DAV:   3    -0.191966667379E+03    0.18524E+00   -0.47579E-01 12360   0.446E+00    0.884E-01
DAV:   4    -0.191957754963E+03    0.89124E-02   -0.33426E-02 12240   0.956E-01    0.626E-01
DAV:   5    -0.191956607574E+03    0.11474E-02   -0.22394E-02 11480   0.114E+00    0.689E-01
DAV:   6    -0.191953813543E+03    0.27940E-02   -0.20934E-02 12600   0.929E-01    0.519E-01
DAV:   7    -0.191954979395E+03   -0.11659E-02   -0.18251E-02 11880   0.808E-01    0.678E-01
DAV:   8    -0.191950670289E+03    0.43091E-02   -0.78462E-03 11880   0.529E-01    0.597E-02
DAV:   9    -0.191950698904E+03   -0.28615E-04   -0.48237E-04 10200   0.679E-02
   9 F= -.19195070E+03 E0= -.19184697E+03  d E =-.133961E+00
       N       E                     dE             d eps       ncg     rms          rms(c)
DAV:   1    -0.191965011777E+03   -0.14341E-01   -0.54782E-01  8160   0.169E+00    0.333E-01
DAV:   2    -0.191964880603E+03    0.13117E-03   -0.28455E-02 10440   0.668E-01    0.414E-01
DAV:   3    -0.191964553346E+03    0.32726E-03   -0.98262E-03 11520   0.721E-01    0.395E-01
DAV:   4    -0.191963158916E+03    0.13944E-02   -0.57400E-03 11320   0.489E-01    0.293E-01
DAV:   5    -0.191963012131E+03    0.14678E-03   -0.37831E-03 10640   0.440E-01    0.277E-01
DAV:   6    -0.191962109216E+03    0.90292E-03   -0.18034E-03 10760   0.283E-01    0.469E-02
DAV:   7    -0.191962209787E+03   -0.10057E-03   -0.41851E-04  8720   0.117E-01    0.118E-01
DAV:   8    -0.191962085058E+03    0.12473E-03   -0.25643E-04  7480   0.100E-01    0.234E-02
DAV:   9    -0.191962086848E+03   -0.17901E-05   -0.21244E-05  6280   0.215E-02
  10 F= -.19196209E+03 E0= -.19185849E+03  d E =-.113879E-01
       N       E                     dE             d eps       ncg     rms          rms(c)
DAV:   1    -0.191991070864E+03   -0.28986E-01   -0.18447E+00  8160   0.287E+00    0.323E-01
DAV:   2    -0.191999684526E+03   -0.86137E-02   -0.64888E-02 10680   0.990E-01    0.756E-01
DAV:   3    -0.191995019124E+03    0.46654E-02   -0.17199E-02 12600   0.912E-01    0.347E-01
DAV:   4    -0.191993995125E+03    0.10240E-02   -0.30971E-03 11400   0.326E-01    0.172E-01
DAV:   5    -0.191993942351E+03    0.52774E-04   -0.18062E-03 11400   0.311E-01    0.191E-01
DAV:   6    -0.191993807639E+03    0.13471E-03   -0.14828E-03 10600   0.249E-01    0.168E-01
DAV:   7    -0.191993791523E+03    0.16116E-04   -0.13734E-03  9640   0.229E-01    0.163E-01
DAV:   8    -0.191993529066E+03    0.26246E-03   -0.45776E-04  8320   0.133E-01    0.169E-02
DAV:   9    -0.191993539659E+03   -0.10593E-04   -0.40503E-05  6400   0.220E-02
  11 F= -.19199354E+03 E0= -.19189209E+03  d E =-.314528E-01
       N       E                     dE             d eps       ncg     rms          rms(c)
DAV:   1    -0.192014239736E+03   -0.20711E-01   -0.78290E-01  8160   0.190E+00    0.229E-01
DAV:   2    -0.192016651259E+03   -0.24115E-02   -0.27247E-02 11640   0.566E-01    0.393E-01
DAV:   3    -0.192015924407E+03    0.72685E-03   -0.64398E-03 12680   0.555E-01    0.293E-01
DAV:   4    -0.192015059978E+03    0.86443E-03   -0.18807E-03 11040   0.267E-01    0.113E-01
DAV:   5    -0.192015296606E+03   -0.23663E-03   -0.13269E-03 10440   0.227E-01    0.222E-01
DAV:   6    -0.192014946801E+03    0.34981E-03   -0.12070E-03  9160   0.209E-01    0.853E-02
DAV:   7    -0.192014932029E+03    0.14771E-04   -0.30217E-04  8520   0.125E-01
  12 F= -.19201493E+03 E0= -.19191508E+03  d E =-.213924E-01
       N       E                     dE             d eps       ncg     rms          rms(c)
DAV:   1    -0.192023874028E+03   -0.89272E-02   -0.13884E-01  8160   0.807E-01    0.926E-02
DAV:   2    -0.192024152819E+03   -0.27879E-03   -0.42953E-03 12040   0.184E-01    0.103E-01
DAV:   3    -0.192024280217E+03   -0.12740E-03   -0.90894E-04 10920   0.215E-01    0.162E-01
DAV:   4    -0.192024039410E+03    0.24081E-03   -0.46249E-04  8440   0.149E-01    0.523E-02
DAV:   5    -0.192024062921E+03   -0.23512E-04   -0.18025E-04  6480   0.893E-02
  13 F= -.19202406E+03 E0= -.19192482E+03  d E =-.913089E-02
       N       E                     dE             d eps       ncg     rms          rms(c)
DAV:   1    -0.192018990291E+03    0.50491E-02   -0.15388E-01  8160   0.884E-01    0.169E-01
DAV:   2    -0.192021299391E+03   -0.23091E-02   -0.10733E-02 11720   0.514E-01    0.556E-01
DAV:   3    -0.192018857506E+03    0.24419E-02   -0.69002E-03 11000   0.508E-01    0.172E-01
DAV:   4    -0.192018666129E+03    0.19138E-03   -0.10662E-03  9600   0.160E-01    0.113E-01
DAV:   5    -0.192018671185E+03   -0.50560E-05   -0.75620E-04  8800   0.190E-01
  14 F= -.19201867E+03 E0= -.19191855E+03  d E =0.539174E-02
       N       E                     dE             d eps       ncg     rms          rms(c)
DAV:   1    -0.192062421137E+03   -0.43755E-01   -0.28829E+00  8160   0.372E+00    0.486E-01
DAV:   2    -0.192068647856E+03   -0.62267E-02   -0.92372E-02 11840   0.102E+00    0.793E-01
DAV:   3    -0.192067460786E+03    0.11871E-02   -0.30487E-02 11800   0.113E+00    0.710E-01
DAV:   4    -0.192063448184E+03    0.40126E-02   -0.13253E-02 12080   0.688E-01    0.397E-01
DAV:   5    -0.192063230553E+03    0.21763E-03   -0.77838E-03  9960   0.595E-01    0.427E-01
DAV:   6    -0.192061565821E+03    0.16647E-02   -0.46018E-03 11480   0.420E-01    0.120E-01
DAV:   7    -0.192061432094E+03    0.13373E-03   -0.85463E-04 10240   0.156E-01    0.711E-02
DAV:   8    -0.192061373513E+03    0.58581E-04   -0.20284E-04  8720   0.112E-01
  15 F= -.19206137E+03 E0= -.19196487E+03  d E =-.427023E-01
       N       E                     dE             d eps       ncg     rms          rms(c)
DAV:   1    -0.192078223529E+03   -0.16791E-01   -0.42467E-01  8160   0.140E+00    0.163E-01
DAV:   2    -0.192078956750E+03   -0.73322E-03   -0.13301E-02 11880   0.317E-01    0.153E-01
DAV:   3    -0.192079745294E+03   -0.78854E-03   -0.33076E-03 11800   0.360E-01    0.346E-01
DAV:   4    -0.192078680015E+03    0.10653E-02   -0.21192E-03  9800   0.287E-01    0.772E-02
DAV:   5    -0.192078739849E+03   -0.59834E-04   -0.39023E-04  8360   0.134E-01
  16 F= -.19207874E+03 E0= -.19198308E+03  d E =-.173663E-01
       N       E                     dE             d eps       ncg     rms          rms(c)
DAV:   1    -0.192061465602E+03    0.17214E-01   -0.58566E-01  8160   0.176E+00    0.335E-01
DAV:   2    -0.192064957049E+03   -0.34914E-02   -0.34395E-02 11800   0.855E-01    0.707E-01
DAV:   3    -0.192061480648E+03    0.34764E-02   -0.16310E-02 11520   0.883E-01    0.420E-01
DAV:   4    -0.192060730145E+03    0.75050E-03   -0.64046E-03 10920   0.509E-01    0.354E-01
DAV:   5    -0.192059952595E+03    0.77755E-03   -0.44653E-03 11200   0.485E-01    0.255E-01
DAV:   6    -0.192059589084E+03    0.36351E-03   -0.22372E-03  9880   0.300E-01    0.183E-01
DAV:   7    -0.192059254352E+03    0.33473E-03   -0.84492E-04  9080   0.213E-01    0.562E-02
DAV:   8    -0.192059227958E+03    0.26394E-04   -0.12030E-04  6400   0.625E-02
  17 F= -.19205923E+03 E0= -.19196334E+03  d E =0.195119E-01
       N       E                     dE             d eps       ncg     rms          rms(c)
DAV:   1    -0.192000554167E+03    0.58700E-01   -0.51008E+00  8160   0.487E+00    0.575E-01
DAV:   2    -0.192011517378E+03   -0.10963E-01   -0.15420E-01 12200   0.124E+00    0.831E-01
DAV:   3    -0.192013178680E+03   -0.16613E-02   -0.42375E-02 11120   0.133E+00    0.924E-01
DAV:   4    -0.192006182283E+03    0.69964E-02   -0.18810E-02 12360   0.838E-01    0.477E-01
DAV:   5    -0.192005153740E+03    0.10285E-02   -0.97267E-03 10160   0.636E-01    0.419E-01
DAV:   6    -0.192004244470E+03    0.90927E-03   -0.51845E-03 12600   0.442E-01    0.239E-01
DAV:   7    -0.192003982563E+03    0.26191E-03   -0.26354E-03 10800   0.392E-01    0.195E-01
DAV:   8    -0.192003474475E+03    0.50809E-03   -0.78200E-04 10200   0.218E-01    0.293E-02
DAV:   9    -0.192003478838E+03   -0.43632E-05   -0.85459E-05  6360   0.350E-02
  18 F= -.19200348E+03 E0= -.19190330E+03  d E =0.557491E-01
       N       E                     dE             d eps       ncg     rms          rms(c)
DAV:   1    -0.191974234273E+03    0.29240E-01   -0.28328E+00  8160   0.363E+00    0.392E-01
DAV:   2    -0.191977202271E+03   -0.29680E-02   -0.66387E-02 12200   0.681E-01    0.273E-01
DAV:   3    -0.191979559410E+03   -0.23571E-02   -0.10566E-02 12360   0.642E-01    0.587E-01
DAV:   4    -0.191976489201E+03    0.30702E-02   -0.84499E-03 11120   0.609E-01    0.280E-01
DAV:   5    -0.191976489361E+03   -0.15998E-06   -0.39983E-03 11440   0.387E-01    0.304E-01
DAV:   6    -0.191976066634E+03    0.42273E-03   -0.33091E-03 10920   0.364E-01    0.207E-01
DAV:   7    -0.191975925687E+03    0.14095E-03   -0.16019E-03 10160   0.267E-01    0.173E-01
DAV:   8    -0.191975596182E+03    0.32950E-03   -0.54033E-04  8560   0.171E-01    0.220E-02
DAV:   9    -0.191975603254E+03   -0.70716E-05   -0.43196E-05  6480   0.266E-02
  19 F= -.19197560E+03 E0= -.19187255E+03  d E =0.278756E-01
       N       E                     dE             d eps       ncg     rms          rms(c)
DAV:   1    -0.191986021228E+03   -0.10425E-01   -0.68198E+00  8160   0.568E+00    0.762E-01
DAV:   2    -0.192000851506E+03   -0.14830E-01   -0.25493E-01 12040   0.164E+00    0.110E+00
DAV:   3    -0.192002723197E+03   -0.18717E-02   -0.78533E-02 12200   0.182E+00    0.119E+00
DAV:   4    -0.191989522646E+03    0.13201E-01   -0.32660E-02 12240   0.109E+00    0.551E-01
DAV:   5    -0.191991029921E+03   -0.15073E-02   -0.23557E-02 10080   0.898E-01    0.800E-01
DAV:   6    -0.191986339877E+03    0.46900E-02   -0.15809E-02 11640   0.712E-01    0.270E-01
DAV:   7    -0.191986076684E+03    0.26319E-03   -0.38284E-03 11200   0.400E-01    0.229E-01
DAV:   8    -0.191985431686E+03    0.64500E-03   -0.13178E-03 10760   0.278E-01    0.638E-02
DAV:   9    -0.191985368201E+03    0.63485E-04   -0.17735E-04  7560   0.691E-02
  20 F= -.19198537E+03 E0= -.19188054E+03  d E =-.976495E-02
       N       E                     dE             d eps       ncg     rms          rms(c)
DAV:   1    -0.191988044066E+03   -0.26124E-02   -0.36919E-01  8160   0.129E+00    0.152E-01
DAV:   2    -0.191989976959E+03   -0.19329E-02   -0.16138E-02 10400   0.513E-01    0.308E-01
DAV:   3    -0.191989171032E+03    0.80593E-03   -0.31066E-03 12320   0.416E-01    0.164E-01
DAV:   4    -0.191989055785E+03    0.11525E-03   -0.78932E-04  8480   0.201E-01    0.133E-01
DAV:   5    -0.191988903848E+03    0.15194E-03   -0.49492E-04  8560   0.167E-01    0.715E-02
DAV:   6    -0.191988911190E+03   -0.73422E-05   -0.29136E-04  8640   0.919E-02
  21 F= -.19198891E+03 E0= -.19188457E+03  d E =-.354299E-02
       N       E                     dE             d eps       ncg     rms          rms(c)
DAV:   1    -0.191994675942E+03   -0.57721E-02   -0.32795E-01  8160   0.124E+00    0.180E-01
DAV:   2    -0.191997569063E+03   -0.28931E-02   -0.15233E-02 11720   0.551E-01    0.572E-01
DAV:   3    -0.191995038203E+03    0.25309E-02   -0.76798E-03 11360   0.531E-01    0.187E-01
DAV:   4    -0.191995087581E+03   -0.49378E-04   -0.17515E-03  9960   0.235E-01    0.206E-01
DAV:   5    -0.191994763374E+03    0.32421E-03   -0.11932E-03  9920   0.232E-01    0.110E-01
DAV:   6    -0.191994635724E+03    0.12765E-03   -0.34982E-04  7640   0.104E-01    0.330E-02
DAV:   7    -0.191994643753E+03   -0.80288E-05   -0.12265E-04  6680   0.712E-02
  22 F= -.19199464E+03 E0= -.19189084E+03  d E =-.573256E-02
       N       E                     dE             d eps       ncg     rms          rms(c)
DAV:   1    -0.192000840696E+03   -0.62050E-02   -0.37349E-01  8160   0.131E+00    0.156E-01
DAV:   2    -0.192002691116E+03   -0.18504E-02   -0.13211E-02 11400   0.470E-01    0.378E-01
DAV:   3    -0.192001504041E+03    0.11871E-02   -0.38182E-03 11920   0.433E-01    0.156E-01
DAV:   4    -0.192001440933E+03    0.63107E-04   -0.91598E-04  9520   0.169E-01
  23 F= -.19200144E+03 E0= -.19189798E+03  d E =-.679718E-02
       N       E                     dE             d eps       ncg     rms          rms(c)
DAV:   1    -0.191999460988E+03    0.20431E-02   -0.28240E-02  8200   0.414E-01    0.109E-01
DAV:   2    -0.192002867947E+03   -0.34070E-02   -0.82796E-03 11800   0.545E-01    0.623E-01
DAV:   3    -0.191999380459E+03    0.34875E-02   -0.59734E-03 10280   0.473E-01    0.649E-02
DAV:   4    -0.191999459562E+03   -0.79103E-04   -0.30171E-04  7840   0.110E-01
  24 F= -.19199946E+03 E0= -.19189565E+03  d E =0.198137E-02
       N       E                     dE             d eps       ncg     rms          rms(c)
DAV:   1    -0.191996639724E+03    0.27407E-02   -0.24717E-01  8160   0.110E+00    0.217E-01
DAV:   2    -0.192000597493E+03   -0.39578E-02   -0.18441E-02 12040   0.736E-01    0.675E-01
DAV:   3    -0.191996348069E+03    0.42494E-02   -0.84373E-03 11280   0.635E-01    0.158E-01
DAV:   4    -0.191996782642E+03   -0.43457E-03   -0.26161E-03  9840   0.291E-01    0.305E-01
DAV:   5    -0.191996089968E+03    0.69267E-03   -0.23555E-03  9720   0.293E-01    0.128E-01
DAV:   6    -0.191995940737E+03    0.14923E-03   -0.52257E-04  8600   0.124E-01    0.549E-02
DAV:   7    -0.191995949899E+03   -0.91623E-05   -0.21767E-04  7760   0.109E-01
  25 F= -.19199595E+03 E0= -.19189243E+03  d E =0.350966E-02
       N       E                     dE             d eps       ncg     rms          rms(c)
DAV:   1    -0.191991828633E+03    0.41121E-02   -0.17626E-01  8160   0.922E-01    0.136E-01
DAV:   2    -0.191993167305E+03   -0.13387E-02   -0.75405E-03 12600   0.413E-01    0.375E-01
DAV:   3    -0.191991937865E+03    0.12294E-02   -0.32698E-03 10480   0.390E-01    0.131E-01
DAV:   4    -0.191992054162E+03   -0.11630E-03   -0.10903E-03  8320   0.189E-01    0.183E-01
DAV:   5    -0.191991785249E+03    0.26891E-03   -0.84238E-04  8240   0.188E-01    0.783E-02
DAV:   6    -0.191991764951E+03    0.20298E-04   -0.25370E-04  7040   0.958E-02
  26 F= -.19199176E+03 E0= -.19188792E+03  d E =0.418495E-02
       N       E                     dE             d eps       ncg     rms          rms(c)
DAV:   1    -0.192011950012E+03   -0.20165E-01   -0.18399E+00  8160   0.301E+00    0.549E-01
DAV:   2    -0.192032157811E+03   -0.20208E-01   -0.96760E-02 12320   0.172E+00    0.164E+00
DAV:   3    -0.192009264481E+03    0.22893E-01   -0.51613E-02 12320   0.159E+00    0.424E-01
DAV:   4    -0.192010980122E+03   -0.17156E-02   -0.15463E-02 12160   0.734E-01    0.721E-01
DAV:   5    -0.192007573226E+03    0.34069E-02   -0.16091E-02 10400   0.747E-01    0.410E-01
DAV:   6    -0.192006227632E+03    0.13456E-02   -0.52094E-03 11000   0.413E-01    0.205E-01
DAV:   7    -0.192005917692E+03    0.30994E-03   -0.17866E-03 10840   0.311E-01    0.113E-01
DAV:   8    -0.192005742649E+03    0.17504E-03   -0.32553E-04  8720   0.124E-01    0.270E-02
DAV:   9    -0.192005727936E+03    0.14713E-04   -0.54543E-05  6600   0.285E-02
  27 F= -.19200573E+03 E0= -.19190243E+03  d E =-.139630E-01
       N       E                     dE             d eps       ncg     rms          rms(c)
DAV:   1    -0.192008237213E+03   -0.24946E-02   -0.82799E-02  8160   0.669E-01    0.157E-01
DAV:   2    -0.192008555246E+03   -0.31803E-03   -0.57810E-03 11200   0.396E-01    0.284E-01
DAV:   3    -0.192007904671E+03    0.65058E-03   -0.24444E-03 11440   0.367E-01    0.154E-01
DAV:   4    -0.192007949297E+03   -0.44626E-04   -0.14647E-03  9880   0.242E-01    0.205E-01
DAV:   5    -0.192007665504E+03    0.28379E-03   -0.11838E-03  8960   0.229E-01    0.115E-01
DAV:   6    -0.192007683151E+03   -0.17646E-04   -0.66498E-04  7880   0.155E-01
  28 F= -.19200768E+03 E0= -.19190444E+03  d E =-.195521E-02
       N       E                     dE             d eps       ncg     rms          rms(c)
DAV:   1    -0.192015925167E+03   -0.82597E-02   -0.45098E-01  8160   0.145E+00    0.171E-01
DAV:   2    -0.192016708407E+03   -0.78324E-03   -0.11896E-02 11600   0.330E-01    0.236E-01
DAV:   3    -0.192016810979E+03   -0.10257E-03   -0.34023E-03 11840   0.393E-01    0.271E-01
DAV:   4    -0.192016256215E+03    0.55476E-03   -0.16307E-03  9600   0.241E-01    0.145E-01
DAV:   5    -0.192016229633E+03    0.26582E-04   -0.99097E-04  8560   0.199E-01
  29 F= -.19201623E+03 E0= -.19191369E+03  d E =-.854648E-02
       N       E                     dE             d eps       ncg     rms          rms(c)
DAV:   1    -0.192002876381E+03    0.13380E-01   -0.13135E+00  8160   0.247E+00    0.323E-01
DAV:   2    -0.192010380271E+03   -0.75039E-02   -0.46116E-02 13080   0.965E-01    0.931E-01
DAV:   3    -0.192003621085E+03    0.67592E-02   -0.21389E-02 11040   0.857E-01    0.316E-01
DAV:   4    -0.192003279236E+03    0.34185E-03   -0.43082E-03  9920   0.373E-01    0.281E-01
DAV:   5    -0.192003010127E+03    0.26911E-03   -0.30145E-03 10840   0.402E-01    0.256E-01
DAV:   6    -0.192002362883E+03    0.64724E-03   -0.15777E-03  9720   0.258E-01    0.855E-02
DAV:   7    -0.192002436993E+03   -0.74110E-04   -0.58474E-04  9560   0.182E-01
  30 F= -.19200244E+03 E0= -.19189927E+03  d E =0.137926E-01
       N       E                     dE             d eps       ncg     rms          rms(c)
DAV:   1    -0.191995933427E+03    0.64295E-02   -0.64553E-01  8160   0.173E+00    0.200E-01
DAV:   2    -0.191997337187E+03   -0.14038E-02   -0.15393E-02 12720   0.433E-01    0.376E-01
DAV:   3    -0.191996745730E+03    0.59146E-03   -0.60491E-03 11760   0.452E-01    0.282E-01
DAV:   4    -0.191996211052E+03    0.53468E-03   -0.21070E-03 10120   0.243E-01    0.134E-01
DAV:   5    -0.191996227448E+03   -0.16396E-04   -0.92206E-04  9360   0.221E-01
  31 F= -.19199623E+03 E0= -.19189329E+03  d E =0.620954E-02
       N       E                     dE             d eps       ncg     rms          rms(c)
DAV:   1    -0.191996206882E+03    0.41696E-05   -0.82605E-01  8160   0.196E+00    0.232E-01
DAV:   2    -0.191998509760E+03   -0.23029E-02   -0.21244E-02 13440   0.611E-01    0.460E-01
DAV:   3    -0.191997281539E+03    0.12282E-02   -0.74944E-03 12040   0.573E-01    0.294E-01
DAV:   4    -0.191997385647E+03   -0.10411E-03   -0.38666E-03 10400   0.372E-01    0.321E-01
DAV:   5    -0.191996497187E+03    0.88846E-03   -0.24939E-03  9840   0.339E-01    0.130E-01
DAV:   6    -0.191996690793E+03   -0.19361E-03   -0.10546E-03  9720   0.222E-01    0.176E-01
DAV:   7    -0.191996351917E+03    0.33888E-03   -0.56915E-04  8600   0.178E-01    0.290E-02
DAV:   8    -0.191996343028E+03    0.88892E-05   -0.53640E-05  6000   0.357E-02
  32 F= -.19199634E+03 E0= -.19189291E+03  d E =-.115580E-03
       N       E                     dE             d eps       ncg     rms          rms(c)
DAV:   1    -0.191998041173E+03   -0.16893E-02   -0.14802E-01  8160   0.827E-01    0.904E-02
DAV:   2    -0.191998250484E+03   -0.20931E-03   -0.37678E-03 12720   0.174E-01    0.952E-02
DAV:   3    -0.191998490346E+03   -0.23986E-03   -0.12052E-03 10400   0.208E-01    0.201E-01
DAV:   4    -0.191998149696E+03    0.34065E-03   -0.71381E-04  8160   0.156E-01    0.493E-02
DAV:   5    -0.191998190122E+03   -0.40426E-04   -0.17756E-04  6320   0.941E-02
  33 F= -.19199819E+03 E0= -.19189465E+03  d E =-.184709E-02
       N       E                     dE             d eps       ncg     rms          rms(c)
DAV:   1    -0.191999139931E+03   -0.99023E-03   -0.80292E-01  8160   0.192E+00    0.215E-01
DAV:   2    -0.192000674739E+03   -0.15348E-02   -0.16901E-02 13400   0.463E-01    0.361E-01
DAV:   3    -0.192000135246E+03    0.53949E-03   -0.56494E-03 11640   0.512E-01    0.303E-01
DAV:   4    -0.191999581716E+03    0.55353E-03   -0.25000E-03 10280   0.301E-01    0.196E-01
DAV:   5    -0.191999533413E+03    0.48303E-04   -0.20312E-03  9600   0.271E-01    0.210E-01
DAV:   6    -0.191999193455E+03    0.33996E-03   -0.10905E-03  8400   0.192E-01    0.815E-02
DAV:   7    -0.191999220732E+03   -0.27277E-04   -0.40589E-04  8760   0.154E-01
  34 F= -.19199922E+03 E0= -.19189589E+03  d E =-.103061E-02
       N       E                     dE             d eps       ncg     rms          rms(c)
DAV:   1    -0.192002859523E+03   -0.36661E-02   -0.26281E-01  8160   0.110E+00    0.119E-01
DAV:   2    -0.192003633588E+03   -0.77406E-03   -0.83868E-03 12280   0.292E-01    0.206E-01
DAV:   3    -0.192003524708E+03    0.10888E-03   -0.21348E-03 10640   0.294E-01    0.186E-01
DAV:   4    -0.192003305831E+03    0.21888E-03   -0.85722E-04  8360   0.169E-01    0.117E-01
DAV:   5    -0.192003215840E+03    0.89991E-04   -0.40091E-04  7720   0.127E-01
  35 F= -.19200322E+03 E0= -.19189969E+03  d E =-.399511E-02
       N       E                     dE             d eps       ncg     rms          rms(c)
DAV:   1    -0.192002527333E+03    0.77850E-03   -0.76104E-03  8360   0.205E-01    0.511E-02
DAV:   2    -0.192002952414E+03   -0.42508E-03   -0.11719E-03 11440   0.233E-01    0.205E-01
DAV:   3    -0.192002522533E+03    0.42988E-03   -0.83267E-04  8800   0.203E-01    0.627E-02
DAV:   4    -0.192002510126E+03    0.12408E-04   -0.12811E-04  6120   0.717E-02
  36 F= -.19200251E+03 E0= -.19189918E+03  d E =0.705714E-03
       N       E                     dE             d eps       ncg     rms          rms(c)
DAV:   1    -0.192002999195E+03   -0.47666E-03   -0.10629E-01  8160   0.711E-01    0.136E-01
DAV:   2    -0.192004218610E+03   -0.12194E-02   -0.66009E-03 11840   0.489E-01    0.345E-01
DAV:   3    -0.192002905751E+03    0.13129E-02   -0.27867E-03 11600   0.399E-01    0.117E-01
DAV:   4    -0.192003118575E+03   -0.21282E-03   -0.12881E-03  8640   0.215E-01    0.206E-01
DAV:   5    -0.192002766710E+03    0.35186E-03   -0.93406E-04  8280   0.187E-01    0.649E-02
DAV:   6    -0.192002745284E+03    0.21427E-04   -0.20334E-04  5680   0.866E-02
  37 F= -.19200275E+03 E0= -.19190010E+03  d E =-.235158E-03
       N       E                     dE             d eps       ncg     rms          rms(c)
DAV:   1    -0.192008598376E+03   -0.58317E-02   -0.34099E-01  8160   0.133E+00    0.257E-01
DAV:   2    -0.192009138840E+03   -0.54046E-03   -0.15016E-02 12280   0.571E-01    0.424E-01
DAV:   3    -0.192008013927E+03    0.11249E-02   -0.74311E-03 11480   0.633E-01    0.324E-01
DAV:   4    -0.192008095569E+03   -0.81642E-04   -0.55309E-03 10520   0.447E-01    0.372E-01
DAV:   5    -0.192007063494E+03    0.10321E-02   -0.39133E-03 10800   0.398E-01    0.184E-01
DAV:   6    -0.192006886329E+03    0.17716E-03   -0.14241E-03  9520   0.234E-01    0.154E-01
DAV:   7    -0.192006666200E+03    0.22013E-03   -0.55875E-04  8120   0.160E-01    0.482E-02
DAV:   8    -0.192006646613E+03    0.19587E-04   -0.69776E-05  6000   0.467E-02
  38 F= -.19200665E+03 E0= -.19190329E+03  d E =-.390133E-02
       N       E                     dE             d eps       ncg     rms          rms(c)
DAV:   1    -0.192009332717E+03   -0.26665E-02   -0.10180E-01  8160   0.684E-01    0.784E-02
DAV:   2    -0.192009576036E+03   -0.24332E-03   -0.29181E-03 11520   0.201E-01    0.123E-01
DAV:   3    -0.192009522081E+03    0.53954E-04   -0.69155E-04 10000   0.197E-01
  39 F= -.19200952E+03 E0= -.19190668E+03  d E =-.287547E-02
       N       E                     dE             d eps       ncg     rms          rms(c)
DAV:   1    -0.192007183940E+03    0.23921E-02   -0.92195E-02  8160   0.658E-01    0.934E-02
DAV:   2    -0.192008728373E+03   -0.15444E-02   -0.52327E-03 12360   0.382E-01    0.406E-01
DAV:   3    -0.192007240059E+03    0.14883E-02   -0.30861E-03 10120   0.336E-01    0.833E-02
DAV:   4    -0.192007286883E+03   -0.46823E-04   -0.37749E-04  8080   0.130E-01
  40 F= -.19200729E+03 E0= -.19190369E+03  d E =0.223520E-02
       N       E                     dE             d eps       ncg     rms          rms(c)
DAV:   1    -0.192012828337E+03   -0.55883E-02   -0.43353E-01  8160   0.141E+00    0.173E-01
DAV:   2    -0.192015569764E+03   -0.27414E-02   -0.14536E-02 13520   0.569E-01    0.502E-01
DAV:   3    -0.192013264542E+03    0.23052E-02   -0.52642E-03 11560   0.521E-01    0.146E-01
DAV:   4    -0.192013445099E+03   -0.18056E-03   -0.13500E-03  9880   0.211E-01    0.217E-01
DAV:   5    -0.192013071733E+03    0.37337E-03   -0.11444E-03  8360   0.211E-01    0.918E-02
DAV:   6    -0.192013093912E+03   -0.22178E-04   -0.43872E-04  8080   0.131E-01
  41 F= -.19201309E+03 E0= -.19191017E+03  d E =-.580703E-02
       N       E                     dE             d eps       ncg     rms          rms(c)
DAV:   1    -0.192013818532E+03   -0.74680E-03   -0.83638E-03  8160   0.234E-01    0.403E-02
DAV:   2    -0.192013930741E+03   -0.11221E-03   -0.48818E-04  9520   0.134E-01    0.970E-02
DAV:   3    -0.192013819946E+03    0.11079E-03   -0.27292E-04  8560   0.131E-01    0.418E-02
DAV:   4    -0.192013821298E+03   -0.13517E-05   -0.91316E-05  6040   0.555E-02
  42 F= -.19201382E+03 E0= -.19191062E+03  d E =-.727387E-03
       N       E                     dE             d eps       ncg     rms          rms(c)
DAV:   1    -0.192020096803E+03   -0.62769E-02   -0.38908E-01  8160   0.134E+00    0.148E-01
DAV:   2    -0.192020827881E+03   -0.73108E-03   -0.88646E-03 13000   0.315E-01    0.237E-01
DAV:   3    -0.192020648041E+03    0.17984E-03   -0.25832E-03 11320   0.341E-01    0.207E-01
DAV:   4    -0.192020421511E+03    0.22653E-03   -0.11339E-03  8760   0.204E-01    0.154E-01
DAV:   5    -0.192020285766E+03    0.13575E-03   -0.80860E-04  8360   0.180E-01    0.104E-01
DAV:   6    -0.192020278170E+03    0.75956E-05   -0.41155E-04  8000   0.129E-01
  43 F= -.19202028E+03 E0= -.19191728E+03  d E =-.645687E-02
       N       E                     dE             d eps       ncg     rms          rms(c)
DAV:   1    -0.192009909612E+03    0.10376E-01   -0.10156E+00  8160   0.217E+00    0.245E-01
DAV:   2    -0.192012147453E+03   -0.22378E-02   -0.25974E-02 13000   0.546E-01    0.400E-01
DAV:   3    -0.192011482800E+03    0.66465E-03   -0.70005E-03 12280   0.593E-01    0.338E-01
DAV:   4    -0.192010783180E+03    0.69962E-03   -0.32103E-03 10680   0.337E-01    0.224E-01
DAV:   5    -0.192010630233E+03    0.15295E-03   -0.23188E-03  9640   0.301E-01    0.212E-01
DAV:   6    -0.192010344033E+03    0.28620E-03   -0.13580E-03  9560   0.210E-01    0.110E-01
DAV:   7    -0.192010327487E+03    0.16546E-04   -0.55296E-04  9160   0.176E-01
  44 F= -.19201033E+03 E0= -.19190737E+03  d E =0.995068E-02
       N       E                     dE             d eps       ncg     rms          rms(c)
DAV:   1    -0.192003142872E+03    0.72012E-02   -0.10287E+00  8160   0.218E+00    0.238E-01
DAV:   2    -0.192004768530E+03   -0.16257E-02   -0.24400E-02 13120   0.522E-01    0.306E-01
DAV:   3    -0.192005127594E+03   -0.35906E-03   -0.63863E-03 12320   0.558E-01    0.389E-01
DAV:   4    -0.192004314020E+03    0.81357E-03   -0.42227E-03 10400   0.387E-01    0.266E-01
DAV:   5    -0.192003793348E+03    0.52067E-03   -0.21413E-03  9800   0.307E-01    0.148E-01
DAV:   6    -0.192003901439E+03   -0.10809E-03   -0.11280E-03 10080   0.208E-01    0.168E-01
DAV:   7    -0.192003659413E+03    0.24203E-03   -0.66730E-04  9280   0.188E-01    0.653E-02
DAV:   8    -0.192003598866E+03    0.60546E-04   -0.10215E-04  6480   0.649E-02
  45 F= -.19200360E+03 E0= -.19190038E+03  d E =0.672862E-02
       N       E                     dE             d eps       ncg     rms          rms(c)
DAV:   1    -0.192000542383E+03    0.31170E-02   -0.68001E-01  8160   0.177E+00    0.187E-01
DAV:   2    -0.192001416547E+03   -0.87416E-03   -0.14856E-02 12320   0.351E-01    0.205E-01
DAV:   3    -0.192002083212E+03   -0.66666E-03   -0.41276E-03 11480   0.422E-01    0.361E-01
DAV:   4    -0.192001058330E+03    0.10249E-02   -0.25567E-03  9720   0.307E-01    0.141E-01
DAV:   5    -0.192001108730E+03   -0.50400E-04   -0.11722E-03  8840   0.212E-01    0.168E-01
DAV:   6    -0.192000885425E+03    0.22330E-03   -0.67565E-04  8400   0.156E-01    0.498E-02
DAV:   7    -0.192000858525E+03    0.26900E-04   -0.10812E-04  6120   0.484E-02
  46 F= -.19200086E+03 E0= -.19189770E+03  d E =0.274034E-02
       N       E                     dE             d eps       ncg     rms          rms(c)
DAV:   1    -0.192001579570E+03   -0.69414E-03   -0.29757E-02  8160   0.374E-01    0.526E-02
DAV:   2    -0.192001829480E+03   -0.24991E-03   -0.12514E-03 12520   0.188E-01    0.141E-01
DAV:   3    -0.192001607135E+03    0.22234E-03   -0.44459E-04  8840   0.166E-01    0.446E-02
DAV:   4    -0.192001632204E+03   -0.25069E-04   -0.14146E-04  5960   0.769E-02
  47 F= -.19200163E+03 E0= -.19189833E+03  d E =-.773679E-03
       N       E                     dE             d eps       ncg     rms          rms(c)
DAV:   1    -0.192002465245E+03   -0.85811E-03   -0.16001E-01  8160   0.865E-01    0.957E-02
DAV:   2    -0.192003106320E+03   -0.64107E-03   -0.47362E-03 13240   0.283E-01    0.245E-01
DAV:   3    -0.192002664009E+03    0.44231E-03   -0.17067E-03 10000   0.251E-01    0.108E-01
DAV:   4    -0.192002685411E+03   -0.21401E-04   -0.52379E-04  8000   0.142E-01
  48 F= -.19200269E+03 E0= -.19189964E+03  d E =-.105321E-02
       N       E                     dE             d eps       ncg     rms          rms(c)
DAV:   1    -0.192002609891E+03    0.54118E-04   -0.38379E-04  8200   0.134E-01    0.525E-02
DAV:   2    -0.192003216238E+03   -0.60635E-03   -0.10941E-03 10240   0.256E-01    0.250E-01
DAV:   3    -0.192002573910E+03    0.64233E-03   -0.83840E-04  8960   0.221E-01    0.269E-02
DAV:   4    -0.192002603743E+03   -0.29833E-04   -0.70604E-05  5920   0.500E-02
  49 F= -.19200260E+03 E0= -.19189942E+03  d E =0.816675E-04
       N       E                     dE             d eps       ncg     rms          rms(c)
DAV:   1    -0.192004523308E+03   -0.19494E-02   -0.14210E-01  8160   0.837E-01    0.151E-01
DAV:   2    -0.192005541667E+03   -0.10184E-02   -0.83389E-03 11800   0.481E-01    0.316E-01
DAV:   3    -0.192004436913E+03    0.11048E-02   -0.25798E-03 11600   0.400E-01    0.940E-02
DAV:   4    -0.192004294439E+03    0.14247E-03   -0.46880E-04  8840   0.115E-01    0.663E-02
DAV:   5    -0.192004364909E+03   -0.70470E-04   -0.57134E-04  8840   0.136E-01
  50 F= -.19200436E+03 E0= -.19190126E+03  d E =-.176117E-02
       N       E                     dE             d eps       ncg     rms          rms(c)
DAV:   1    -0.192005777917E+03   -0.14835E-02   -0.97205E-02  8160   0.677E-01    0.754E-02
DAV:   2    -0.192006027365E+03   -0.24945E-03   -0.32500E-03 11320   0.159E-01    0.944E-02
DAV:   3    -0.192006113510E+03   -0.86145E-04   -0.81009E-04 11120   0.181E-01
  51 F= -.19200611E+03 E0= -.19190324E+03  d E =-.174860E-02
       N       E                     dE             d eps       ncg     rms          rms(c)
DAV:   1    -0.192007412982E+03   -0.13856E-02   -0.10138E-01  8160   0.684E-01    0.134E-01
DAV:   2    -0.192010533711E+03   -0.31207E-02   -0.82151E-03 12280   0.638E-01    0.544E-01
DAV:   3    -0.192007444332E+03    0.30894E-02   -0.46129E-03 10640   0.524E-01    0.104E-01
DAV:   4    -0.192007456130E+03   -0.11799E-04   -0.53857E-04  8480   0.148E-01
  52 F= -.19200746E+03 E0= -.19190410E+03  d E =-.134262E-02
       N       E                     dE             d eps       ncg     rms          rms(c)
DAV:   1    -0.192009669876E+03   -0.22255E-02   -0.11850E-01  8160   0.747E-01    0.110E-01
DAV:   2    -0.192010480652E+03   -0.81078E-03   -0.46040E-03 13560   0.286E-01    0.295E-01
DAV:   3    -0.192009782264E+03    0.69839E-03   -0.24626E-03 10080   0.297E-01    0.127E-01
DAV:   4    -0.192009805738E+03   -0.23474E-04   -0.61785E-04  8440   0.148E-01
  53 F= -.19200981E+03 E0= -.19190616E+03  d E =-.234961E-02
       N       E                     dE             d eps       ncg     rms          rms(c)
DAV:   1    -0.192007334926E+03    0.24473E-02   -0.12365E-01  8160   0.764E-01    0.972E-02
DAV:   2    -0.192008741178E+03   -0.14063E-02   -0.53868E-03 12600   0.376E-01    0.384E-01
DAV:   3    -0.192007445069E+03    0.12961E-02   -0.28473E-03  9880   0.333E-01    0.850E-02
DAV:   4    -0.192007511998E+03   -0.66929E-04   -0.51579E-04  8360   0.131E-01
  54 F= -.19200751E+03 E0= -.19190466E+03  d E =0.229374E-02
       N       E                     dE             d eps       ncg     rms          rms(c)
DAV:   1    -0.192008265997E+03   -0.82093E-03   -0.33005E-02  8160   0.404E-01    0.631E-02
DAV:   2    -0.192008570110E+03   -0.30411E-03   -0.19047E-03 11600   0.198E-01    0.161E-01
DAV:   3    -0.192008321453E+03    0.24866E-03   -0.66819E-04  9040   0.179E-01    0.680E-02
DAV:   4    -0.192008310471E+03    0.10982E-04   -0.19761E-04  6120   0.888E-02
  55 F= -.19200831E+03 E0= -.19190530E+03  d E =-.798473E-03
       N       E                     dE             d eps       ncg     rms          rms(c)
DAV:   1    -0.192010261485E+03   -0.19400E-02   -0.91254E-02  8160   0.653E-01    0.901E-02
DAV:   2    -0.192011206984E+03   -0.94550E-03   -0.41266E-03 12880   0.311E-01    0.311E-01
DAV:   3    -0.192010373433E+03    0.83355E-03   -0.20683E-03  9720   0.286E-01    0.866E-02
DAV:   4    -0.192010462138E+03   -0.88705E-04   -0.45964E-04  8000   0.129E-01
  56 F= -.19201046E+03 E0= -.19190784E+03  d E =-.215167E-02
       N       E                     dE             d eps       ncg     rms          rms(c)
DAV:   1    -0.192006767451E+03    0.36060E-02   -0.28751E-01  8160   0.116E+00    0.137E-01
DAV:   2    -0.192008986437E+03   -0.22190E-02   -0.10290E-02 13200   0.463E-01    0.452E-01
DAV:   3    -0.192007064308E+03    0.19221E-02   -0.39723E-03 10440   0.422E-01    0.107E-01
DAV:   4    -0.192007278054E+03   -0.21375E-03   -0.99213E-04  8880   0.181E-01    0.190E-01
DAV:   5    -0.192006967704E+03    0.31035E-03   -0.70029E-04  8240   0.170E-01    0.532E-02
DAV:   6    -0.192006958761E+03    0.89433E-05   -0.13298E-04  5880   0.589E-02
  57 F= -.19200696E+03 E0= -.19190387E+03  d E =0.350338E-02
       N       E                     dE             d eps       ncg     rms          rms(c)
DAV:   1    -0.192006851311E+03    0.11639E-03   -0.21785E-02  8160   0.333E-01    0.563E-02
DAV:   2    -0.192006922338E+03   -0.71027E-04   -0.99848E-04 11120   0.119E-01
  58 F= -.19200692E+03 E0= -.19190400E+03  d E =0.364229E-04
       N       E                     dE             d eps       ncg     rms          rms(c)
DAV:   1    -0.192008959605E+03   -0.21083E-02   -0.14454E-01  8160   0.827E-01    0.111E-01
DAV:   2    -0.192010473655E+03   -0.15141E-02   -0.66695E-03 13440   0.372E-01    0.417E-01
DAV:   3    -0.192009052745E+03    0.14209E-02   -0.35743E-03 10320   0.353E-01    0.930E-02
DAV:   4    -0.192009122349E+03   -0.69604E-04   -0.48315E-04  8440   0.129E-01
  59 F= -.19200912E+03 E0= -.19190641E+03  d E =-.220001E-02
       N       E                     dE             d eps       ncg     rms          rms(c)
DAV:   1    -0.192009681457E+03   -0.62871E-03   -0.12961E-02  8160   0.274E-01    0.548E-02
DAV:   2    -0.192010029964E+03   -0.34851E-03   -0.10260E-03 10040   0.192E-01    0.193E-01
DAV:   3    -0.192009662139E+03    0.36783E-03   -0.67165E-04  8640   0.177E-01    0.449E-02
DAV:   4    -0.192009690697E+03   -0.28558E-04   -0.14781E-04  5880   0.685E-02
  60 F= -.19200969E+03 E0= -.19190634E+03  d E =-.568348E-03
       N       E                     dE             d eps       ncg     rms          rms(c)
DAV:   1    -0.192012144066E+03   -0.24819E-02   -0.14943E-01  8160   0.833E-01    0.110E-01
DAV:   2    -0.192012724034E+03   -0.57997E-03   -0.46427E-03 13120   0.276E-01    0.219E-01
DAV:   3    -0.192012352384E+03    0.37165E-03   -0.15634E-03 11120   0.291E-01    0.133E-01
DAV:   4    -0.192012291787E+03    0.60597E-04   -0.60306E-04  8360   0.146E-01
  61 F= -.19201229E+03 E0= -.19190897E+03  d E =-.260109E-02
       N       E                     dE             d eps       ncg     rms          rms(c)
DAV:   1    -0.192007707001E+03    0.46454E-02   -0.48505E-01  8160   0.151E+00    0.206E-01
DAV:   2    -0.192014556157E+03   -0.68492E-02   -0.24837E-02 13320   0.829E-01    0.843E-01
DAV:   3    -0.192008078130E+03    0.64780E-02   -0.12840E-02 11320   0.720E-01    0.150E-01
DAV:   4    -0.192008592980E+03   -0.51485E-03   -0.20931E-03 10040   0.304E-01    0.271E-01
DAV:   5    -0.192007865688E+03    0.72729E-03   -0.11898E-03  9440   0.249E-01    0.630E-02
DAV:   6    -0.192007979637E+03   -0.11395E-03   -0.39596E-04  8280   0.145E-01    0.108E-01
DAV:   7    -0.192007843336E+03    0.13630E-03   -0.23685E-04  9320   0.121E-01    0.220E-02
DAV:   8    -0.192007841557E+03    0.17791E-05   -0.40019E-05  6160   0.291E-02
  62 F= -.19200784E+03 E0= -.19190473E+03  d E =0.445023E-02
       N       E                     dE             d eps       ncg     rms          rms(c)
DAV:   1    -0.192004256320E+03    0.35870E-02   -0.56489E-01  8160   0.162E+00    0.189E-01
DAV:   2    -0.192005798632E+03   -0.15423E-02   -0.14710E-02 12200   0.473E-01    0.360E-01
DAV:   3    -0.192004994428E+03    0.80420E-03   -0.47453E-03 12480   0.466E-01    0.241E-01
DAV:   4    -0.192005009376E+03   -0.14947E-04   -0.24898E-03 10160   0.293E-01    0.245E-01
DAV:   5    -0.192004498631E+03    0.51074E-03   -0.14909E-03  9880   0.263E-01    0.106E-01
DAV:   6    -0.192004547669E+03   -0.49038E-04   -0.63691E-04  9120   0.164E-01
  63 F= -.19200455E+03 E0= -.19190090E+03  d E =0.329389E-02
       N       E                     dE             d eps       ncg     rms          rms(c)
DAV:   1    -0.192004283345E+03    0.21529E-03   -0.68972E-03 11520   0.249E-01    0.655E-02
DAV:   2    -0.192004989690E+03   -0.70634E-03   -0.17234E-03 10880   0.288E-01    0.255E-01
DAV:   3    -0.192004260567E+03    0.72912E-03   -0.12169E-03  9560   0.253E-01    0.695E-02
DAV:   4    -0.192004245528E+03    0.15039E-04   -0.17937E-04  6120   0.819E-02
  64 F= -.19200425E+03 E0= -.19190116E+03  d E =0.302141E-03
       N       E                     dE             d eps       ncg     rms          rms(c)
DAV:   1    -0.192005816658E+03   -0.15561E-02   -0.11478E-01  8160   0.725E-01    0.876E-02
DAV:   2    -0.192006517574E+03   -0.70092E-03   -0.46346E-03 13240   0.314E-01    0.216E-01
DAV:   3    -0.192006045811E+03    0.47176E-03   -0.12167E-03 10200   0.261E-01    0.884E-02
DAV:   4    -0.192006073013E+03   -0.27202E-04   -0.45242E-04  7640   0.130E-01
  65 F= -.19200607E+03 E0= -.19190286E+03  d E =-.182748E-02
       N       E                     dE             d eps       ncg     rms          rms(c)
DAV:   1    -0.192005278983E+03    0.76683E-03   -0.23225E-02  8160   0.343E-01    0.655E-02
DAV:   2    -0.192006418354E+03   -0.11394E-02   -0.29388E-03 11560   0.333E-01    0.344E-01
DAV:   3    -0.192005295152E+03    0.11232E-02   -0.19065E-03 10040   0.287E-01    0.498E-02
DAV:   4    -0.192005315837E+03   -0.20685E-04   -0.12256E-04  5960   0.739E-02
  66 F= -.19200532E+03 E0= -.19190218E+03  d E =0.757176E-03
       N       E                     dE             d eps       ncg     rms          rms(c)
DAV:   1    -0.192004518093E+03    0.77706E-03   -0.90367E-02  8160   0.654E-01    0.109E-01
DAV:   2    -0.192005686547E+03   -0.11685E-02   -0.46640E-03 12400   0.427E-01    0.341E-01
DAV:   3    -0.192004510006E+03    0.11765E-02   -0.24361E-03 10520   0.345E-01    0.106E-01
DAV:   4    -0.192004568394E+03   -0.58388E-04   -0.72514E-04  8360   0.166E-01
  67 F= -.19200457E+03 E0= -.19190148E+03  d E =0.747443E-03
       N       E                     dE             d eps       ncg     rms          rms(c)
DAV:   1    -0.192004491416E+03    0.18590E-04   -0.34760E-02  8160   0.433E-01    0.757E-02
DAV:   2    -0.192004443045E+03    0.48371E-04   -0.10801E-03 10400   0.990E-02    0.594E-02
DAV:   3    -0.192004475451E+03   -0.32405E-04   -0.38785E-04  8520   0.127E-01
  68 F= -.19200448E+03 E0= -.19190114E+03  d E =0.929435E-04
       N       E                     dE             d eps       ncg     rms          rms(c)
DAV:   1    -0.192006042813E+03   -0.15998E-02   -0.98804E-02  8160   0.697E-01    0.136E-01
DAV:   2    -0.192010284023E+03   -0.42412E-02   -0.11715E-02 12240   0.622E-01    0.702E-01
DAV:   3    -0.192006080707E+03    0.42033E-02   -0.84136E-03 11240   0.556E-01    0.105E-01
DAV:   4    -0.192006120677E+03   -0.39970E-04   -0.66336E-04  8760   0.169E-01
  69 F= -.19200612E+03 E0= -.19190303E+03  d E =-.164523E-02
       N       E                     dE             d eps       ncg     rms          rms(c)
DAV:   1    -0.192003283683E+03    0.27970E-02   -0.24052E-01  8160   0.107E+00    0.164E-01
DAV:   2    -0.192007906143E+03   -0.46225E-02   -0.14278E-02 12240   0.741E-01    0.662E-01
DAV:   3    -0.192003472170E+03    0.44340E-02   -0.67287E-03 11240   0.636E-01    0.952E-02
DAV:   4    -0.192003605081E+03   -0.13291E-03   -0.74533E-04  8760   0.175E-01    0.143E-01
DAV:   5    -0.192003414638E+03    0.19044E-03   -0.53501E-04  8200   0.155E-01    0.715E-02
DAV:   6    -0.192003431420E+03   -0.16782E-04   -0.32270E-04  7320   0.110E-01
  70 F= -.19200343E+03 E0= -.19189989E+03  d E =0.268926E-02
       N       E                     dE             d eps       ncg     rms          rms(c)
DAV:   1    -0.192001873175E+03    0.15415E-02   -0.87256E-02  8160   0.650E-01    0.943E-02
DAV:   2    -0.192002353000E+03   -0.47982E-03   -0.31890E-03 12720   0.265E-01    0.212E-01
DAV:   3    -0.192001929332E+03    0.42367E-03   -0.11607E-03 10880   0.264E-01    0.921E-02
DAV:   4    -0.192001924067E+03    0.52643E-05   -0.34116E-04  7840   0.123E-01
  71 F= -.19200192E+03 E0= -.19189890E+03  d E =0.150735E-02
       N       E                     dE             d eps       ncg     rms          rms(c)
DAV:   1    -0.192004723341E+03   -0.27940E-02   -0.30422E-01  8160   0.119E+00    0.186E-01
DAV:   2    -0.192009562813E+03   -0.48395E-02   -0.16698E-02 11800   0.837E-01    0.617E-01
DAV:   3    -0.192004900221E+03    0.46626E-02   -0.64609E-03 10920   0.662E-01    0.105E-01
DAV:   4    -0.192005062406E+03   -0.16218E-03   -0.89646E-04  9120   0.205E-01    0.170E-01
DAV:   5    -0.192004795476E+03    0.26693E-03   -0.65037E-04  8440   0.171E-01    0.721E-02
DAV:   6    -0.192004841568E+03   -0.46092E-04   -0.38617E-04  7880   0.114E-01
  72 F= -.19200484E+03 E0= -.19190196E+03  d E =-.291750E-02
       N       E                     dE             d eps       ncg     rms          rms(c)
DAV:   1    -0.192005290617E+03   -0.49514E-03   -0.13801E-02  8200   0.273E-01    0.488E-02
DAV:   2    -0.192005600939E+03   -0.31032E-03   -0.11304E-03 10480   0.168E-01    0.179E-01
DAV:   3    -0.192005309834E+03    0.29110E-03   -0.78719E-04  8640   0.167E-01    0.610E-02
DAV:   4    -0.192005294233E+03    0.15601E-04   -0.10782E-04  5640   0.615E-02
  73 F= -.19200529E+03 E0= -.19190218E+03  d E =-.452666E-03
       N       E                     dE             d eps       ncg     rms          rms(c)
DAV:   1    -0.192006610826E+03   -0.13010E-02   -0.62734E-02  8160   0.543E-01    0.863E-02
DAV:   2    -0.192006963134E+03   -0.35231E-03   -0.26057E-03 12200   0.245E-01    0.200E-01
DAV:   3    -0.192006623826E+03    0.33931E-03   -0.95483E-04  9360   0.225E-01    0.822E-02
DAV:   4    -0.192006582808E+03    0.41019E-04   -0.27700E-04  6800   0.102E-01
  74 F= -.19200658E+03 E0= -.19190350E+03  d E =-.128857E-02
       N       E                     dE             d eps       ncg     rms          rms(c)
DAV:   1    -0.192008286362E+03   -0.16625E-02   -0.12794E-01  8160   0.772E-01    0.108E-01
DAV:   2    -0.192009666594E+03   -0.13802E-02   -0.61106E-03 13560   0.353E-01    0.385E-01
DAV:   3    -0.192008395832E+03    0.12708E-02   -0.33408E-03 10680   0.340E-01    0.993E-02
DAV:   4    -0.192008436935E+03   -0.41103E-04   -0.54068E-04  8400   0.140E-01
  75 F= -.19200844E+03 E0= -.19190520E+03  d E =-.185413E-02
       N       E                     dE             d eps       ncg     rms          rms(c)
DAV:   1    -0.192006628850E+03    0.17670E-02   -0.10880E-01  8160   0.726E-01    0.818E-02
DAV:   2    -0.192007336982E+03   -0.70813E-03   -0.38736E-03 13160   0.299E-01    0.213E-01
DAV:   3    -0.192006772603E+03    0.56438E-03   -0.11581E-03 10160   0.264E-01    0.520E-02
DAV:   4    -0.192006791843E+03   -0.19239E-04   -0.16991E-04  6440   0.780E-02
  76 F= -.19200679E+03 E0= -.19190371E+03  d E =0.164509E-02
       N       E                     dE             d eps       ncg     rms          rms(c)
DAV:   1    -0.192008027380E+03   -0.12548E-02   -0.92024E-02  8160   0.652E-01    0.851E-02
DAV:   2    -0.192008866543E+03   -0.83916E-03   -0.44043E-03 12640   0.357E-01    0.249E-01
DAV:   3    -0.192008201542E+03    0.66500E-03   -0.14474E-03 10160   0.279E-01    0.828E-02
DAV:   4    -0.192008238987E+03   -0.37445E-04   -0.43148E-04  7800   0.126E-01
  77 F= -.19200824E+03 E0= -.19190529E+03  d E =-.144714E-02
       N       E                     dE             d eps       ncg     rms          rms(c)
DAV:   1    -0.192008519781E+03   -0.31824E-03   -0.61057E-03  8840   0.189E-01    0.377E-02
DAV:   2    -0.192008698537E+03   -0.17876E-03   -0.50339E-04  8800   0.134E-01    0.142E-01
DAV:   3    -0.192008508822E+03    0.18971E-03   -0.39503E-04  7960   0.130E-01    0.363E-02
DAV:   4    -0.192008518979E+03   -0.10156E-04   -0.64128E-05  5800   0.520E-02
  78 F= -.19200852E+03 E0= -.19190563E+03  d E =-.279992E-03
       N       E                     dE             d eps       ncg     rms          rms(c)
DAV:   1    -0.192010695959E+03   -0.21871E-02   -0.19740E-01  8160   0.958E-01    0.133E-01
DAV:   2    -0.192012078590E+03   -0.13826E-02   -0.77681E-03 13320   0.426E-01    0.376E-01
DAV:   3    -0.192010856120E+03    0.12225E-02   -0.31496E-03 11000   0.382E-01    0.125E-01
DAV:   4    -0.192010919729E+03   -0.63609E-04   -0.10155E-03  8600   0.178E-01    0.165E-01
DAV:   5    -0.192010718407E+03    0.20132E-03   -0.72646E-04  8200   0.170E-01    0.808E-02
DAV:   6    -0.192010654622E+03    0.63785E-04   -0.21345E-04  5800   0.837E-02
  79 F= -.19201065E+03 E0= -.19190778E+03  d E =-.213564E-02
       N       E                     dE             d eps       ncg     rms          rms(c)
DAV:   1    -0.192011474933E+03   -0.75653E-03   -0.25086E-02  8160   0.342E-01    0.460E-02
DAV:   2    -0.192011665202E+03   -0.19027E-03   -0.95707E-04 12840   0.154E-01    0.118E-01
DAV:   3    -0.192011489943E+03    0.17526E-03   -0.34189E-04  8520   0.142E-01    0.311E-02
DAV:   4    -0.192011511533E+03   -0.21590E-04   -0.73580E-05  5640   0.565E-02
  80 F= -.19201151E+03 E0= -.19190853E+03  d E =-.856911E-03
       N       E                     dE             d eps       ncg     rms          rms(c)
DAV:   1    -0.192012784541E+03   -0.12946E-02   -0.61116E-02  8160   0.529E-01    0.719E-02
DAV:   2    -0.192013237387E+03   -0.45285E-03   -0.23271E-03 13320   0.254E-01    0.182E-01
DAV:   3    -0.192012844022E+03    0.39336E-03   -0.70449E-04 10600   0.216E-01    0.485E-02
DAV:   4    -0.192012874301E+03   -0.30279E-04   -0.16176E-04  6360   0.869E-02
  81 F= -.19201287E+03 E0= -.19190989E+03  d E =-.136277E-02
       N       E                     dE             d eps       ncg     rms          rms(c)
DAV:   1    -0.192013671002E+03   -0.82698E-03   -0.27448E-02  8160   0.369E-01    0.609E-02
DAV:   2    -0.192013927530E+03   -0.25653E-03   -0.11810E-03 11560   0.169E-01    0.179E-01
DAV:   3    -0.192013658678E+03    0.26885E-03   -0.83782E-04  8680   0.174E-01    0.695E-02
DAV:   4    -0.192013642371E+03    0.16306E-04   -0.17015E-04  5600   0.703E-02
  82 F= -.19201364E+03 E0= -.19191111E+03  d E =-.768071E-03
       N       E                     dE             d eps       ncg     rms          rms(c)
DAV:   1    -0.192015517574E+03   -0.18589E-02   -0.99386E-02  8160   0.688E-01    0.996E-02
DAV:   2    -0.192016247723E+03   -0.73015E-03   -0.38359E-03 13600   0.316E-01    0.235E-01
DAV:   3    -0.192015565101E+03    0.68262E-03   -0.15019E-03 10200   0.299E-01    0.754E-02
DAV:   4    -0.192015610162E+03   -0.45061E-04   -0.38441E-04  8120   0.115E-01
  83 F= -.19201561E+03 E0= -.19191315E+03  d E =-.196779E-02
       N       E                     dE             d eps       ncg     rms          rms(c)
DAV:   1    -0.192015230313E+03    0.33479E-03   -0.51106E-02  8160   0.558E-01    0.134E-01
DAV:   2    -0.192016321045E+03   -0.10907E-02   -0.55203E-03 11360   0.398E-01    0.407E-01
DAV:   3    -0.192014955706E+03    0.13653E-02   -0.41249E-03 11040   0.392E-01    0.139E-01
DAV:   4    -0.192014871268E+03    0.84439E-04   -0.77641E-04  8720   0.155E-01
  84 F= -.19201487E+03 E0= -.19191234E+03  d E =0.738894E-03
       N       E                     dE             d eps       ncg     rms          rms(c)
DAV:   1    -0.192017707677E+03   -0.27520E-02   -0.25234E-01  8160   0.108E+00    0.169E-01
DAV:   2    -0.192019503818E+03   -0.17961E-02   -0.96892E-03 12760   0.494E-01    0.414E-01
DAV:   3    -0.192017760924E+03    0.17429E-02   -0.43426E-03 11520   0.513E-01    0.172E-01
DAV:   4    -0.192017600571E+03    0.16035E-03   -0.99606E-04  9520   0.214E-01    0.117E-01
DAV:   5    -0.192017534227E+03    0.66344E-04   -0.64223E-04  8960   0.189E-01
  85 F= -.19201753E+03 E0= -.19191587E+03  d E =-.266296E-02
       N       E                     dE             d eps       ncg     rms          rms(c)
DAV:   1    -0.192016949862E+03    0.65071E-03   -0.21240E-01  8160   0.105E+00    0.195E-01
DAV:   2    -0.192019238370E+03   -0.22885E-02   -0.13215E-02 12400   0.553E-01    0.558E-01
DAV:   3    -0.192016839118E+03    0.23993E-02   -0.89573E-03 11480   0.575E-01    0.233E-01
DAV:   4    -0.192016506202E+03    0.33292E-03   -0.19265E-03 11040   0.235E-01    0.145E-01
DAV:   5    -0.192016399038E+03    0.10716E-03   -0.10763E-03 10040   0.250E-01    0.135E-01
DAV:   6    -0.192016203442E+03    0.19560E-03   -0.45946E-04  8720   0.155E-01    0.651E-02
DAV:   7    -0.192016191819E+03    0.11623E-04   -0.19936E-04  7280   0.102E-01
  86 F= -.19201619E+03 E0= -.19191357E+03  d E =0.134241E-02
       N       E                     dE             d eps       ncg     rms          rms(c)
DAV:   1    -0.192020061996E+03   -0.38586E-02   -0.33019E-01  8160   0.123E+00    0.161E-01
DAV:   2    -0.192020841874E+03   -0.77988E-03   -0.95473E-03 13600   0.409E-01    0.295E-01
DAV:   3    -0.192020305694E+03    0.53618E-03   -0.30660E-03 11040   0.385E-01    0.191E-01
DAV:   4    -0.192020085207E+03    0.22049E-03   -0.13500E-03  9360   0.227E-01    0.158E-01
DAV:   5    -0.192020012138E+03    0.73069E-04   -0.11374E-03  9040   0.215E-01    0.143E-01
DAV:   6    -0.192019877437E+03    0.13470E-03   -0.59122E-04  8000   0.151E-01    0.825E-02
DAV:   7    -0.192019822572E+03    0.54865E-04   -0.22919E-04  7000   0.119E-01
  87 F= -.19201982E+03 E0= -.19191754E+03  d E =-.363075E-02
       N       E                     dE             d eps       ncg     rms          rms(c)
DAV:   1    -0.192021938319E+03   -0.20609E-02   -0.63448E-02  8160   0.541E-01    0.829E-02
DAV:   2    -0.192022042016E+03   -0.10370E-03   -0.21255E-03 12240   0.206E-01    0.119E-01
DAV:   3    -0.192021938415E+03    0.10360E-03   -0.61649E-04  8640   0.193E-01    0.838E-02
DAV:   4    -0.192021897145E+03    0.41270E-04   -0.32838E-04  6840   0.118E-01
  88 F= -.19202190E+03 E0= -.19192006E+03  d E =-.207457E-02
       N       E                     dE             d eps       ncg     rms          rms(c)
DAV:   1    -0.192028007086E+03   -0.60687E-02   -0.47333E-01  8160   0.147E+00    0.200E-01
DAV:   2    -0.192029380376E+03   -0.13733E-02   -0.13658E-02 12840   0.479E-01    0.406E-01
DAV:   3    -0.192028535058E+03    0.84532E-03   -0.69642E-03 11000   0.517E-01    0.303E-01
DAV:   4    -0.192027823564E+03    0.71149E-03   -0.20955E-03  9680   0.266E-01    0.120E-01
DAV:   5    -0.192027877377E+03   -0.53813E-04   -0.10332E-03 10040   0.228E-01    0.152E-01
DAV:   6    -0.192027649336E+03    0.22804E-03   -0.63054E-04  8160   0.173E-01    0.640E-02
DAV:   7    -0.192027660652E+03   -0.11316E-04   -0.21388E-04  6520   0.112E-01
  89 F= -.19202766E+03 E0= -.19192669E+03  d E =-.576351E-02
       N       E                     dE             d eps       ncg     rms          rms(c)
DAV:   1    -0.192029895247E+03   -0.22459E-02   -0.46475E-02  8160   0.465E-01    0.638E-02
DAV:   2    -0.192029935258E+03   -0.40011E-04   -0.12151E-03 11880   0.116E-01    0.681E-02
DAV:   3    -0.192029941527E+03   -0.62687E-05   -0.36183E-04  8720   0.134E-01
  90 F= -.19202994E+03 E0= -.19192902E+03  d E =-.228087E-02
       N       E                     dE             d eps       ncg     rms          rms(c)
DAV:   1    -0.192041707333E+03   -0.11772E-01   -0.10729E+00  8160   0.219E+00    0.261E-01
DAV:   2    -0.192043247218E+03   -0.15399E-02   -0.23373E-02 13600   0.593E-01    0.358E-01
DAV:   3    -0.192042525458E+03    0.72176E-03   -0.61547E-03 12120   0.576E-01    0.291E-01
DAV:   4    -0.192042351734E+03    0.17372E-03   -0.41191E-03 11000   0.402E-01    0.309E-01
DAV:   5    -0.192041792278E+03    0.55946E-03   -0.29940E-03 10480   0.355E-01    0.196E-01
DAV:   6    -0.192041448926E+03    0.34335E-03   -0.11759E-03  9520   0.203E-01    0.831E-02
DAV:   7    -0.192041507681E+03   -0.58755E-04   -0.49958E-04  9160   0.164E-01
  91 F= -.19204151E+03 E0= -.19194105E+03  d E =-.115662E-01
       N       E                     dE             d eps       ncg     rms          rms(c)
DAV:   1    -0.192042452214E+03   -0.10033E-02   -0.79565E-03  8160   0.226E-01    0.333E-02
DAV:   2    -0.192042544635E+03   -0.92421E-04   -0.40081E-04  9160   0.111E-01
  92 F= -.19204254E+03 E0= -.19194245E+03  d E =-.103695E-02
       N       E                     dE             d eps       ncg     rms          rms(c)
DAV:   1    -0.192054378558E+03   -0.11926E-01   -0.79575E-01  8160   0.188E+00    0.198E-01
DAV:   2    -0.192055805151E+03   -0.14266E-02   -0.17175E-02 12600   0.467E-01    0.289E-01
DAV:   3    -0.192055522000E+03    0.28315E-03   -0.41194E-03 11600   0.438E-01    0.253E-01
DAV:   4    -0.192055363206E+03    0.15879E-03   -0.26893E-03 10640   0.318E-01    0.234E-01
DAV:   5    -0.192054951682E+03    0.41152E-03   -0.13570E-03  9640   0.255E-01    0.112E-01
DAV:   6    -0.192054964292E+03   -0.12610E-04   -0.52559E-04  8720   0.158E-01
  93 F= -.19205496E+03 E0= -.19195610E+03  d E =-.124197E-01
       N       E                     dE             d eps       ncg     rms          rms(c)
DAV:   1    -0.192053073710E+03    0.18780E-02   -0.65277E-02  8160   0.619E-01    0.168E-01
DAV:   2    -0.192054307056E+03   -0.12333E-02   -0.66921E-03 10120   0.551E-01    0.401E-01
DAV:   3    -0.192052539919E+03    0.17671E-02   -0.35205E-03 11120   0.483E-01    0.132E-01
DAV:   4    -0.192052593945E+03   -0.54026E-04   -0.10364E-03  9400   0.233E-01    0.165E-01
DAV:   5    -0.192052366408E+03    0.22754E-03   -0.88835E-04  8760   0.214E-01    0.947E-02
DAV:   6    -0.192052326297E+03    0.40111E-04   -0.44647E-04  7800   0.128E-01
  94 F= -.19205233E+03 E0= -.19195403E+03  d E =0.263799E-02
       N       E                     dE             d eps       ncg     rms          rms(c)
DAV:   1    -0.192023610808E+03    0.28756E-01   -0.48589E+00  8160   0.465E+00    0.504E-01
DAV:   2    -0.192033366951E+03   -0.97561E-02   -0.10989E-01 12720   0.119E+00    0.842E-01
DAV:   3    -0.192031874712E+03    0.14922E-02   -0.34695E-02 11160   0.125E+00    0.743E-01
DAV:   4    -0.192028182391E+03    0.36923E-02   -0.13423E-02 11920   0.709E-01    0.462E-01
DAV:   5    -0.192027031848E+03    0.11505E-02   -0.83270E-03 10360   0.612E-01    0.358E-01
DAV:   6    -0.192026045451E+03    0.98640E-03   -0.35061E-03 11120   0.339E-01    0.117E-01
DAV:   7    -0.192025952984E+03    0.92466E-04   -0.94531E-04 10200   0.170E-01
  95 F= -.19202595E+03 E0= -.19192466E+03  d E =0.263733E-01
       N       E                     dE             d eps       ncg     rms          rms(c)
DAV:   1    -0.192033761788E+03   -0.77163E-02   -0.47153E-01  8160   0.152E+00    0.320E-01
DAV:   2    -0.192036215524E+03   -0.24537E-02   -0.27527E-02 12360   0.801E-01    0.678E-01
DAV:   3    -0.192033138889E+03    0.30766E-02   -0.15583E-02 11560   0.829E-01    0.406E-01
DAV:   4    -0.192032612439E+03    0.52645E-03   -0.66962E-03 11360   0.524E-01    0.351E-01
DAV:   5    -0.192031494344E+03    0.11181E-02   -0.38183E-03 10920   0.461E-01    0.172E-01
DAV:   6    -0.192031232213E+03    0.26213E-03   -0.13304E-03 10920   0.234E-01    0.134E-01
DAV:   7    -0.192031077475E+03    0.15474E-03   -0.50561E-04  8280   0.162E-01    0.547E-02
DAV:   8    -0.192031046633E+03    0.30842E-04   -0.66839E-05  6000   0.532E-02
  96 F= -.19203105E+03 E0= -.19192981E+03  d E =-.509365E-02
       N       E                     dE             d eps       ncg     rms          rms(c)
DAV:   1    -0.192015885353E+03    0.15192E-01   -0.51275E+00  8160   0.479E+00    0.512E-01
DAV:   2    -0.192022494772E+03   -0.66094E-02   -0.10258E-01 12240   0.106E+00    0.635E-01
DAV:   3    -0.192025043891E+03   -0.25491E-02   -0.31552E-02 11560   0.122E+00    0.853E-01
DAV:   4    -0.192019114193E+03    0.59297E-02   -0.15086E-02 12080   0.795E-01    0.385E-01
DAV:   5    -0.192019069645E+03    0.44548E-04   -0.82020E-03 11240   0.606E-01    0.445E-01
DAV:   6    -0.192017588248E+03    0.14814E-02   -0.50396E-03 11040   0.444E-01    0.166E-01
DAV:   7    -0.192017691370E+03   -0.10312E-03   -0.17793E-03 10320   0.293E-01    0.183E-01
DAV:   8    -0.192017273097E+03    0.41827E-03   -0.70732E-04  8880   0.205E-01    0.334E-02
DAV:   9    -0.192017267659E+03    0.54380E-05   -0.69754E-05  6360   0.394E-02
  97 F= -.19201727E+03 E0= -.19191455E+03  d E =0.137790E-01
       N       E                     dE             d eps       ncg     rms          rms(c)
DAV:   1    -0.192018121701E+03   -0.84860E-03   -0.33187E-01  8160   0.124E+00    0.141E-01
DAV:   2    -0.192018515637E+03   -0.39394E-03   -0.82628E-03 11480   0.262E-01    0.127E-01
DAV:   3    -0.192018960099E+03   -0.44446E-03   -0.21936E-03 10920   0.299E-01    0.266E-01
DAV:   4    -0.192018383118E+03    0.57698E-03   -0.15561E-03  9520   0.243E-01    0.105E-01
DAV:   5    -0.192018357114E+03    0.26004E-04   -0.52944E-04  8160   0.155E-01
  98 F= -.19201836E+03 E0= -.19191502E+03  d E =-.108945E-02
       N       E                     dE             d eps       ncg     rms          rms(c)
DAV:   1    -0.192019186376E+03   -0.80326E-03   -0.29580E-01  8160   0.115E+00    0.132E-01
DAV:   2    -0.192020141183E+03   -0.95481E-03   -0.70976E-03 12960   0.349E-01    0.277E-01
DAV:   3    -0.192019486953E+03    0.65423E-03   -0.26833E-03 11080   0.363E-01    0.160E-01
DAV:   4    -0.192019298142E+03    0.18881E-03   -0.76834E-04  9240   0.169E-01    0.928E-02
DAV:   5    -0.192019341146E+03   -0.43004E-04   -0.58666E-04  8280   0.152E-01
  99 F= -.19201934E+03 E0= -.19191600E+03  d E =-.984032E-03
       N       E                     dE             d eps       ncg     rms          rms(c)
DAV:   1    -0.192020223793E+03   -0.92565E-03   -0.52243E-02  8160   0.501E-01    0.704E-02
DAV:   2    -0.192020620104E+03   -0.39631E-03   -0.22472E-03 10520   0.223E-01    0.170E-01
DAV:   3    -0.192020299585E+03    0.32052E-03   -0.78883E-04  9960   0.213E-01    0.643E-02
DAV:   4    -0.192020344234E+03   -0.44649E-04   -0.27090E-04  7120   0.103E-01
 100 F= -.19202034E+03 E0= -.19191698E+03  d E =-.100309E-02
