<?xml version="1.0" encoding="ISO-8859-1"?>
<modeling>
 <generator>
  <i name="program" type="string">vasp </i>
  <i name="version" type="string">5.4.1  </i>
  <i name="subversion" type="string">05Feb16 (build Jul 05 2020 17:13:04) complex                          parallel </i>
  <i name="platform" type="string">IFC91_ompi </i>
  <i name="date" type="string">2024 04 20 </i>
  <i name="time" type="string">23:43:36 </i>
 </generator>
 <incar>
  <i type="int" name="ISTART">     0</i>
  <i type="string" name="PREC">normal</i>
  <i type="string" name="ALGO"> Normal</i>
  <i type="int" name="ISPIN">     1</i>
  <i type="int" name="ICHARG">     2</i>
  <i type="int" name="IBRION">     1</i>
  <i type="int" name="NSW">   100</i>
  <i type="int" name="ISIF">     3</i>
  <i type="int" name="ISYM">     0</i>
  <i name="SYMPREC">      0.00000001</i>
  <i name="POTIM">      0.50000000</i>
  <i type="logical" name="LREAL"> F  </i>
  <i type="logical" name="LPLANE"> F  </i>
  <i type="int" name="ISMEAR">     0</i>
  <i type="logical" name="LWAVE"> F  </i>
  <i type="logical" name="LCHARG"> F  </i>
  <v type="int" name="KPOINT_BSE">    -1     0     0     0</v>
 </incar>
 <kpoints>
  <generation param="Gamma">
   <v type="int" name="divisions">       8        8        1 </v>
   <v name="usershift">      0.00000000       0.00000000       0.00000000 </v>
   <v name="genvec1">      0.12500000       0.00000000       0.00000000 </v>
   <v name="genvec2">     -0.00000000       0.12500000       0.00000000 </v>
   <v name="genvec3">      0.00000000       0.00000000       1.00000000 </v>
   <v name="shift">      0.00000000       0.00000000       0.00000000 </v>
  </generation>
  <varray name="kpointlist" >
   <v>       0.00000000       0.00000000       0.00000000 </v>
   <v>       0.12500000       0.00000000       0.00000000 </v>
   <v>       0.25000000       0.00000000       0.00000000 </v>
   <v>       0.37500000       0.00000000       0.00000000 </v>
   <v>       0.50000000       0.00000000       0.00000000 </v>
   <v>       0.00000000       0.12500000       0.00000000 </v>
   <v>       0.12500000       0.12500000       0.00000000 </v>
   <v>       0.25000000       0.12500000       0.00000000 </v>
   <v>       0.37500000       0.12500000       0.00000000 </v>
   <v>       0.50000000       0.12500000       0.00000000 </v>
   <v>      -0.37500000       0.12500000       0.00000000 </v>
   <v>      -0.25000000       0.12500000       0.00000000 </v>
   <v>      -0.12500000       0.12500000       0.00000000 </v>
   <v>       0.00000000       0.25000000       0.00000000 </v>
   <v>       0.12500000       0.25000000       0.00000000 </v>
   <v>       0.25000000       0.25000000       0.00000000 </v>
   <v>       0.37500000       0.25000000       0.00000000 </v>
   <v>       0.50000000       0.25000000       0.00000000 </v>
   <v>      -0.37500000       0.25000000       0.00000000 </v>
   <v>      -0.25000000       0.25000000       0.00000000 </v>
   <v>      -0.12500000       0.25000000       0.00000000 </v>
   <v>      -0.00000000       0.37500000       0.00000000 </v>
   <v>       0.12500000       0.37500000       0.00000000 </v>
   <v>       0.25000000       0.37500000       0.00000000 </v>
   <v>       0.37500000       0.37500000       0.00000000 </v>
   <v>       0.50000000       0.37500000       0.00000000 </v>
   <v>      -0.37500000       0.37500000       0.00000000 </v>
   <v>      -0.25000000       0.37500000       0.00000000 </v>
   <v>      -0.12500000       0.37500000       0.00000000 </v>
   <v>       0.00000000       0.50000000       0.00000000 </v>
   <v>       0.12500000       0.50000000       0.00000000 </v>
   <v>       0.25000000       0.50000000       0.00000000 </v>
   <v>       0.37500000       0.50000000       0.00000000 </v>
   <v>       0.50000000       0.50000000       0.00000000 </v>
  </varray>
  <varray name="weights" >
   <v>       0.01562500 </v>
   <v>       0.03125000 </v>
   <v>       0.03125000 </v>
   <v>       0.03125000 </v>
   <v>       0.01562500 </v>
   <v>       0.03125000 </v>
   <v>       0.03125000 </v>
   <v>       0.03125000 </v>
   <v>       0.03125000 </v>
   <v>       0.03125000 </v>
   <v>       0.03125000 </v>
   <v>       0.03125000 </v>
   <v>       0.03125000 </v>
   <v>       0.03125000 </v>
   <v>       0.03125000 </v>
   <v>       0.03125000 </v>
   <v>       0.03125000 </v>
   <v>       0.03125000 </v>
   <v>       0.03125000 </v>
   <v>       0.03125000 </v>
   <v>       0.03125000 </v>
   <v>       0.03125000 </v>
   <v>       0.03125000 </v>
   <v>       0.03125000 </v>
   <v>       0.03125000 </v>
   <v>       0.03125000 </v>
   <v>       0.03125000 </v>
   <v>       0.03125000 </v>
   <v>       0.03125000 </v>
   <v>       0.01562500 </v>
   <v>       0.03125000 </v>
   <v>       0.03125000 </v>
   <v>       0.03125000 </v>
   <v>       0.01562500 </v>
  </varray>
 </kpoints>
 <parameters>
  <separator name="general" >
   <i type="string" name="SYSTEM">unknown system</i>
   <i type="logical" name="LCOMPAT"> F  </i>
  </separator>
  <separator name="electronic" >
   <i type="string" name="PREC">normal</i>
   <i name="ENMAX">    280.00000000</i>
   <i name="ENAUG">    373.43800000</i>
   <i name="EDIFF">      0.00010000</i>
   <i type="int" name="IALGO">    38</i>
   <i type="int" name="IWAVPR">    11</i>
   <i type="int" name="NBANDS">   120</i>
   <i name="NELECT">    159.00000000</i>
   <i type="int" name="TURBO">     0</i>
   <i type="int" name="IRESTART">     0</i>
   <i type="int" name="NREBOOT">     0</i>
   <i type="int" name="NMIN">     0</i>
   <i name="EREF">      0.00000000</i>
   <separator name="electronic smearing" >
    <i type="int" name="ISMEAR">     0</i>
    <i name="SIGMA">      0.20000000</i>
    <i name="KSPACING">      0.50000000</i>
    <i type="logical" name="KGAMMA"> T  </i>
   </separator>
   <separator name="electronic projectors" >
    <i type="logical" name="LREAL"> F  </i>
    <v name="ROPT">      0.00000000      0.00000000      0.00000000      0.00000000</v>
    <i type="int" name="LMAXPAW">  -100</i>
    <i type="int" name="LMAXMIX">     2</i>
    <i type="logical" name="NLSPLINE"> F  </i>
   </separator>
   <separator name="electronic startup" >
    <i type="int" name="ISTART">     0</i>
    <i type="int" name="ICHARG">     2</i>
    <i type="int" name="INIWAV">     1</i>
   </separator>
   <separator name="electronic spin" >
    <i type="int" name="ISPIN">     1</i>
    <i type="logical" name="LNONCOLLINEAR"> F  </i>
    <v name="MAGMOM">      1.00000000      1.00000000      1.00000000      1.00000000      1.00000000      1.00000000      1.00000000      1.00000000      1.00000000      1.00000000      1.00000000      1.00000000      1.00000000      1.00000000      1.00000000      1.00000000      1.00000000      1.00000000      1.00000000      1.00000000
      1.00000000      1.00000000      1.00000000      1.00000000      1.00000000      1.00000000      1.00000000</v>
    <i name="NUPDOWN">     -1.00000000</i>
    <i type="logical" name="LSORBIT"> F  </i>
    <v name="SAXIS">      0.00000000      0.00000000      1.00000000</v>
    <i type="logical" name="LSPIRAL"> F  </i>
    <v name="QSPIRAL">      0.00000000      0.00000000      0.00000000</v>
    <i type="logical" name="LZEROZ"> F  </i>
   </separator>
   <separator name="electronic exchange-correlation" >
    <i type="logical" name="LASPH"> F  </i>
    <i type="logical" name="LMETAGGA"> F  </i>
   </separator>
   <separator name="electronic convergence" >
    <i type="int" name="NELM">    60</i>
    <i type="int" name="NELMDL">    -5</i>
    <i type="int" name="NELMIN">     2</i>
    <i name="ENINI">    280.00000000</i>
    <separator name="electronic convergence detail" >
     <i type="logical" name="LDIAG"> T  </i>
     <i type="logical" name="LSUBROT"> F  </i>
     <i name="WEIMIN">      0.00100000</i>
     <i name="EBREAK">      0.00000021</i>
     <i name="DEPER">      0.30000000</i>
     <i type="int" name="NRMM">     4</i>
     <i name="TIME">      0.40000000</i>
    </separator>
   </separator>
   <separator name="electronic mixer" >
    <i name="AMIX">      0.40000000</i>
    <i name="BMIX">      1.00000000</i>
    <i name="AMIN">      0.10000000</i>
    <i name="AMIX_MAG">      1.60000000</i>
    <i name="BMIX_MAG">      1.00000000</i>
    <separator name="electronic mixer details" >
     <i type="int" name="IMIX">     4</i>
     <i type="logical" name="MIXFIRST"> F  </i>
     <i type="int" name="MAXMIX">   -45</i>
     <i name="WC">    100.00000000</i>
     <i type="int" name="INIMIX">     1</i>
     <i type="int" name="MIXPRE">     1</i>
     <i type="int" name="MREMOVE">     5</i>
    </separator>
   </separator>
   <separator name="electronic dipolcorrection" >
    <i type="logical" name="LDIPOL"> F  </i>
    <i type="logical" name="LMONO"> F  </i>
    <i type="int" name="IDIPOL">     0</i>
    <i name="EPSILON">      1.00000000</i>
    <v name="DIPOL">   -100.00000000   -100.00000000   -100.00000000</v>
    <i name="EFIELD">      0.00000000</i>
   </separator>
  </separator>
  <separator name="grids" >
   <i type="int" name="NGX">    42</i>
   <i type="int" name="NGY">    42</i>
   <i type="int" name="NGZ">   126</i>
   <i type="int" name="NGXF">    84</i>
   <i type="int" name="NGYF">    84</i>
   <i type="int" name="NGZF">   252</i>
   <i type="logical" name="ADDGRID"> F  </i>
  </separator>
  <separator name="ionic" >
   <i type="int" name="NSW">   100</i>
   <i type="int" name="IBRION">     1</i>
   <i type="int" name="ISIF">     3</i>
   <i name="PSTRESS">      0.00000000</i>
   <i name="EDIFFG">      0.00100000</i>
   <i type="int" name="NFREE">     0</i>
   <i name="POTIM">      0.50000000</i>
   <i name="SMASS">     -3.00000000</i>
   <i name="SCALEE">      1.00000000</i>
  </separator>
  <separator name="ionic md" >
   <i name="TEBEG">      0.00010000</i>
   <i name="TEEND">      0.00010000</i>
   <i type="int" name="NBLOCK">     1</i>
   <i type="int" name="KBLOCK">   100</i>
   <i type="int" name="NPACO">   256</i>
   <i name="APACO">     16.00000000</i>
  </separator>
  <separator name="symmetry" >
   <i type="int" name="ISYM">     0</i>
   <i name="SYMPREC">      0.00000001</i>
  </separator>
  <separator name="dos" >
   <i type="logical" name="LORBIT"> F  </i>
   <v name="RWIGS">     -1.00000000     -1.00000000     -1.00000000     -1.00000000</v>
   <i type="int" name="NEDOS">   301</i>
   <i name="EMIN">     10.00000000</i>
   <i name="EMAX">    -10.00000000</i>
   <i name="EFERMI">      0.00000000</i>
  </separator>
  <separator name="writing" >
   <i type="int" name="NWRITE">     2</i>
   <i type="logical" name="LWAVE"> F  </i>
   <i type="logical" name="LCHARG"> F  </i>
   <i type="logical" name="LPARD"> F  </i>
   <i type="logical" name="LVTOT"> F  </i>
   <i type="logical" name="LVHAR"> F  </i>
   <i type="logical" name="LELF"> F  </i>
   <i type="logical" name="LOPTICS"> F  </i>
   <v name="STM">      0.00000000      0.00000000      0.00000000      0.00000000      0.00000000      0.00000000      0.00000000</v>
  </separator>
  <separator name="performance" >
   <i type="int" name="NPAR">    40</i>
   <i type="int" name="NSIM">     4</i>
   <i type="int" name="NBLK">    -1</i>
   <i type="logical" name="LPLANE"> F  </i>
   <i type="logical" name="LSCALAPACK"> T  </i>
   <i type="logical" name="LSCAAWARE"> F  </i>
   <i type="logical" name="LSCALU"> F  </i>
   <i type="logical" name="LASYNC"> F  </i>
   <i type="logical" name="LORBITALREAL"> F  </i>
  </separator>
  <separator name="miscellaneous" >
   <i type="int" name="IDIOT">     3</i>
   <i type="logical" name="LMUSIC"> F  </i>
   <v name="POMASS">     50.94100000     95.94000000    183.85000000     32.06600000</v>
   <v name="DARWINR">      0.00000000      0.00000000      0.00000000      0.00000000</v>
   <v name="DARWINV">      1.00000000      1.00000000      1.00000000      1.00000000</v>
   <i type="logical" name="LCORR"> T  </i>
  </separator>
  <i type="logical" name="GGA_COMPAT"> T  </i>
  <i type="logical" name="LBERRY"> F  </i>
  <i type="int" name="ICORELEVEL">     0</i>
  <i type="logical" name="LDAU"> F  </i>
  <i type="int" name="I_CONSTRAINED_M">     0</i>
  <separator name="electronic exchange-correlation" >
   <i type="string" name="GGA">--</i>
   <i type="int" name="VOSKOWN">     0</i>
   <i type="logical" name="LHFCALC"> F  </i>
   <i type="string" name="PRECFOCK"></i>
   <i type="logical" name="LSYMGRAD"> F  </i>
   <i type="logical" name="LHFONE"> F  </i>
   <i type="logical" name="LRHFCALC"> F  </i>
   <i type="logical" name="LTHOMAS"> F  </i>
   <i type="logical" name="LMODELHF"> F  </i>
   <i name="ENCUT4O">     -1.00000000</i>
   <i type="int" name="EXXOEP">     0</i>
   <i type="int" name="FOURORBIT">     0</i>
   <i name="AEXX">      0.00000000</i>
   <i name="HFALPHA">      0.00000000</i>
   <i name="MCALPHA">      0.00000000</i>
   <i name="ALDAX">      1.00000000</i>
   <i name="AGGAX">      1.00000000</i>
   <i name="ALDAC">      1.00000000</i>
   <i name="AGGAC">      1.00000000</i>
   <i type="int" name="NKREDX">     1</i>
   <i type="int" name="NKREDY">     1</i>
   <i type="int" name="NKREDZ">     1</i>
   <i type="logical" name="SHIFTRED"> F  </i>
   <i type="logical" name="ODDONLY"> F  </i>
   <i type="logical" name="EVENONLY"> F  </i>
   <i type="int" name="LMAXFOCK">     0</i>
   <i type="int" name="NMAXFOCKAE">     0</i>
   <i type="logical" name="LFOCKAEDFT"> F  </i>
   <i name="HFSCREEN">      0.00000000</i>
   <i name="HFSCREENC">      0.00000000</i>
   <i type="int" name="NBANDSGWLOW">     0</i>
  </separator>
  <separator name="vdW DFT" >
   <i type="logical" name="LUSE_VDW"> F  </i>
   <i name="Zab_VDW">     -0.84910000</i>
   <i name="PARAM1">      0.12340000</i>
   <i name="PARAM2">      1.00000000</i>
   <i name="PARAM3">      0.00000000</i>
  </separator>
  <separator name="model GW" >
   <i type="int" name="MODEL_GW">     0</i>
   <i name="MODEL_EPS0">     58.26239943</i>
   <i name="MODEL_ALPHA">      1.00000000</i>
  </separator>
  <separator name="linear response parameters" >
   <i type="logical" name="LEPSILON"> F  </i>
   <i type="logical" name="LRPA"> F  </i>
   <i type="logical" name="LNABLA"> F  </i>
   <i type="logical" name="LVEL"> F  </i>
   <i type="int" name="KINTER">     0</i>
   <i name="CSHIFT">      0.10000000</i>
   <i name="OMEGAMAX">     -1.00000000</i>
   <i name="DEG_THRESHOLD">      0.00200000</i>
  </separator>
  <separator name="orbital magnetization" >
   <i type="logical" name="NUCIND"> F  </i>
   <v name="MAGPOS">      0.00000000      0.00000000      0.00000000</v>
   <i type="logical" name="LNICSALL"> T  </i>
   <i type="logical" name="ORBITALMAG"> F  </i>
   <i type="logical" name="LMAGBLOCH"> F  </i>
   <i type="logical" name="LCHIMAG"> F  </i>
   <i type="logical" name="LGAUGE"> T  </i>
   <i type="int" name="MAGATOM">     0</i>
   <v name="MAGDIPOL">      0.00000000      0.00000000      0.00000000</v>
   <v name="AVECCONST">      0.00000000      0.00000000      0.00000000</v>
  </separator>
  <separator name="response functions" >
   <i type="logical" name="LADDER"> F  </i>
   <i type="logical" name="LFXC"> F  </i>
   <i type="logical" name="LHARTREE"> T  </i>
   <i type="int" name="IBSE">     0</i>
   <v type="int" name="KPOINT">    -1     0     0     0</v>
   <i type="logical" name="LTCTE"> F  </i>
   <i type="logical" name="LTETE"> F  </i>
   <i type="logical" name="LTRIPLET"> F  </i>
   <i type="logical" name="LFXCEPS"> F  </i>
   <i type="logical" name="LFXHEG"> F  </i>
   <i type="int" name="NATURALO">     0</i>
   <i type="logical" name="L2ORDER"> F  </i>
   <i type="logical" name="LUSEW"> F  </i>
   <i name="ENCUTGW">     -2.00000000</i>
   <i name="ENCUTGWSOFT">     -2.00000000</i>
   <i name="ENCUTLF">     -1.00000000</i>
   <i type="int" name="LMAXMP2">    -1</i>
   <i name="SCISSOR">      0.00000000</i>
   <i type="int" name="NOMEGA">     0</i>
   <i type="int" name="NOMEGAR">     0</i>
   <i type="int" name="NBANDSGW">    -1</i>
   <i type="int" name="NBANDSO">    -1</i>
   <i type="int" name="NBANDSV">    -1</i>
   <i type="int" name="NELM">     1</i>
   <i type="int" name="NELMHF">     1</i>
   <i type="int" name="DIM">     3</i>
   <i type="int" name="ANTIRES">     0</i>
   <i name="OMEGAMAX">    -30.00000000</i>
   <i name="OMEGAMIN">    -30.00000000</i>
   <i name="OMEGATL">   -200.00000000</i>
   <i type="int" name="OMEGAGRID">     0</i>
   <i name="CSHIFT">     -0.10000000</i>
   <i type="logical" name="SELFENERGY"> F  </i>
   <i type="logical" name="LSPECTRAL"> F  </i>
   <i type="logical" name="LSPECTRALGW"> F  </i>
   <i type="logical" name="LSINGLES"> F  </i>
   <i type="logical" name="LFERMIGW"> F  </i>
   <i type="logical" name="ODDONLYGW"> F  </i>
   <i type="logical" name="EVENONLYGW"> F  </i>
   <i type="int" name="NKREDLFX">     1</i>
   <i type="int" name="NKREDLFY">     1</i>
   <i type="int" name="NKREDLFZ">     1</i>
   <i type="int" name="MAXMEM">  1800</i>
   <i type="int" name="TELESCOPE">     0</i>
   <i type="int" name="TAUPAR">     1</i>
   <i type="int" name="OMEGAPAR">    -1</i>
   <i name="LAMBDA">      1.00000000</i>
  </separator>
  <separator name="External order field" >
   <i name="OFIELD_KAPPA">      0.00000000</i>
   <v name="OFIELD_K">      0.00000000      0.00000000      0.00000000</v>
   <i name="OFIELD_Q6_NEAR">      0.00000000</i>
   <i name="OFIELD_Q6_FAR">      0.00000000</i>
   <i name="OFIELD_A">      0.00000000</i>
  </separator>
 </parameters>
 <atominfo>
  <atoms>      27 </atoms>
  <types>       4 </types>
  <array name="atoms" >
   <dimension dim="1">ion</dimension>
   <field type="string">element</field>
   <field type="int">atomtype</field>
   <set>
    <rc><c>V </c><c>   1</c></rc>
    <rc><c>V </c><c>   1</c></rc>
    <rc><c>V </c><c>   1</c></rc>
    <rc><c>Mo</c><c>   2</c></rc>
    <rc><c>Mo</c><c>   2</c></rc>
    <rc><c>Mo</c><c>   2</c></rc>
    <rc><c>W </c><c>   3</c></rc>
    <rc><c>W </c><c>   3</c></rc>
    <rc><c>W </c><c>   3</c></rc>
    <rc><c>S </c><c>   4</c></rc>
    <rc><c>S </c><c>   4</c></rc>
    <rc><c>S </c><c>   4</c></rc>
    <rc><c>S </c><c>   4</c></rc>
    <rc><c>S </c><c>   4</c></rc>
    <rc><c>S </c><c>   4</c></rc>
    <rc><c>S </c><c>   4</c></rc>
    <rc><c>S </c><c>   4</c></rc>
    <rc><c>S </c><c>   4</c></rc>
    <rc><c>S </c><c>   4</c></rc>
    <rc><c>S </c><c>   4</c></rc>
    <rc><c>S </c><c>   4</c></rc>
    <rc><c>S </c><c>   4</c></rc>
    <rc><c>S </c><c>   4</c></rc>
    <rc><c>S </c><c>   4</c></rc>
    <rc><c>S </c><c>   4</c></rc>
    <rc><c>S </c><c>   4</c></rc>
    <rc><c>S </c><c>   4</c></rc>
   </set>
  </array>
  <array name="atomtypes" >
   <dimension dim="1">type</dimension>
   <field type="int">atomspertype</field>
   <field type="string">element</field>
   <field>mass</field>
   <field>valence</field>
   <field type="string">pseudopotential</field>
   <set>
    <rc><c>   3</c><c>V </c><c>     50.94100000</c><c>      5.00000000</c><c> PAW_PBE V 08Apr2002                    </c></rc>
    <rc><c>   3</c><c>Mo</c><c>     95.94000000</c><c>      6.00000000</c><c> PAW_PBE Mo 08Apr2002                   </c></rc>
    <rc><c>   3</c><c>W </c><c>    183.85000000</c><c>      6.00000000</c><c> PAW_PBE W 08Apr2002                    </c></rc>
    <rc><c>  18</c><c>S </c><c>     32.06600000</c><c>      6.00000000</c><c>  PAW_PBE S 17Jan2003                   </c></rc>
   </set>
  </array>
 </atominfo>
 <structure name="initialpos" >
  <crystal>
   <varray name="basis" >
    <v>       8.66999996       5.03999989       0.00000000 </v>
    <v>      -8.66999982       5.04000013       0.00000000 </v>
    <v>       0.00000000       0.00000000      30.00000000 </v>
   </varray>
   <i name="volume">   2621.80797419 </i>
   <varray name="rec_basis" >
    <v>       0.05767013       0.09920635       0.00000000 </v>
    <v>      -0.05767013       0.09920635       0.00000000 </v>
    <v>       0.00000000       0.00000000       0.03333333 </v>
   </varray>
  </crystal>
  <varray name="positions" >
   <v>       0.66666669       0.00000000       0.00000000 </v>
   <v>       0.33333334       0.00000000       0.00000000 </v>
   <v>       0.00000000       0.00000000       0.00000000 </v>
   <v>       0.00000000       0.66666669       0.00000000 </v>
   <v>       0.66666669       0.33333334       0.00000000 </v>
   <v>       0.66666669       0.66666669       0.00000000 </v>
   <v>       1.00000000       0.33333334       0.00000000 </v>
   <v>       0.33333334       0.33333334       0.00000000 </v>
   <v>       0.33333334       0.66666669       0.00000000 </v>
   <v>       0.11068511       0.22244981       0.95539999 </v>
   <v>       0.22244981       0.11068511       0.04460000 </v>
   <v>       0.11068511       0.55578315       0.95539999 </v>
   <v>       0.22244981       0.44401845       0.04460000 </v>
   <v>       0.11068511       0.88911647       0.95539999 </v>
   <v>       0.22244981       0.77735180       0.04460000 </v>
   <v>       0.44401845       0.22244981       0.95539999 </v>
   <v>       0.55578315       0.11068511       0.04460000 </v>
   <v>       0.44401845       0.55578315       0.95539999 </v>
   <v>       0.55578315       0.44401845       0.04460000 </v>
   <v>       0.44401845       0.88911647       0.95539999 </v>
   <v>       0.55578315       0.77735180       0.04460000 </v>
   <v>       0.77735180       0.22244981       0.95539999 </v>
   <v>       0.88911647       0.11068511       0.04460000 </v>
   <v>       0.77735180       0.55578315       0.95539999 </v>
   <v>       0.88911647       0.44401845       0.04460000 </v>
   <v>       0.77735180       0.88911647       0.95539999 </v>
   <v>       0.88911647       0.77735180       0.04460000 </v>
  </varray>
 </structure>
 <calculation>
  <scstep>
   <time name="dav">   21.59   21.64</time>
   <time name="total">   21.64   21.70</time>
   <energy>
    <i name="alphaZ">     81.65567618 </i>
    <i name="ewald">  41891.19377235 </i>
    <i name="hartreedc"> -47723.83912553 </i>
    <i name="XCdc">   -242.92452252 </i>
    <i name="pawpsdc">   3467.42045192 </i>
    <i name="pawaedc">  -2871.19716117 </i>
    <i name="eentropy">     -0.53077871 </i>
    <i name="bandstr">   -236.95887096 </i>
    <i name="atom">   6761.44252427 </i>
    <i name="e_fr_energy">   1126.26196583 </i>
    <i name="e_wo_entrp">   1126.79274454 </i>
    <i name="e_0_energy">   1126.52735519 </i>
   </energy>
  </scstep>
  <scstep>
   <time name="dav">   28.08   28.15</time>
   <time name="total">   28.09   28.16</time>
   <energy>
    <i name="e_fr_energy">     -0.86910294 </i>
    <i name="e_wo_entrp">     -0.65700039 </i>
    <i name="e_0_energy">     -0.76305167 </i>
   </energy>
  </scstep>
  <scstep>
   <time name="dav">   27.32   27.39</time>
   <time name="total">   27.32   27.40</time>
   <energy>
    <i name="e_fr_energy">   -199.67771071 </i>
    <i name="e_wo_entrp">   -199.40079794 </i>
    <i name="e_0_energy">   -199.53925433 </i>
   </energy>
  </scstep>
  <scstep>
   <time name="dav">   29.59   29.66</time>
   <time name="total">   29.59   29.66</time>
   <energy>
    <i name="e_fr_energy">   -209.00441857 </i>
    <i name="e_wo_entrp">   -208.72623989 </i>
    <i name="e_0_energy">   -208.86532923 </i>
   </energy>
  </scstep>
  <scstep>
   <time name="dav">   28.30   28.37</time>
   <time name="total">   28.77   28.84</time>
   <energy>
    <i name="e_fr_energy">   -209.35362162 </i>
    <i name="e_wo_entrp">   -209.07871748 </i>
    <i name="e_0_energy">   -209.21616955 </i>
   </energy>
  </scstep>
  <scstep>
   <time name="dav">   30.65   30.73</time>
   <time name="total">   31.15   31.24</time>
   <energy>
    <i name="e_fr_energy">   -240.92952353 </i>
    <i name="e_wo_entrp">   -240.65466038 </i>
    <i name="e_0_energy">   -240.79209195 </i>
   </energy>
  </scstep>
  <scstep>
   <time name="dav">   32.04   32.12</time>
   <time name="total">   32.54   32.63</time>
   <energy>
    <i name="e_fr_energy">   -196.27872224 </i>
    <i name="e_wo_entrp">   -195.94805278 </i>
    <i name="e_0_energy">   -196.11338751 </i>
   </energy>
  </scstep>
  <scstep>
   <time name="dav">   29.84   29.91</time>
   <time name="total">   30.36   30.44</time>
   <energy>
    <i name="e_fr_energy">   -189.53161680 </i>
    <i name="e_wo_entrp">   -189.19456338 </i>
    <i name="e_0_energy">   -189.36309009 </i>
   </energy>
  </scstep>
  <scstep>
   <time name="dav">   31.08   31.16</time>
   <time name="total">   31.60   31.68</time>
   <energy>
    <i name="e_fr_energy">   -188.08280032 </i>
    <i name="e_wo_entrp">   -187.73732078 </i>
    <i name="e_0_energy">   -187.91006055 </i>
   </energy>
  </scstep>
  <scstep>
   <time name="dav">   32.55   32.62</time>
   <time name="total">   33.08   33.17</time>
   <energy>
    <i name="e_fr_energy">   -186.92929831 </i>
    <i name="e_wo_entrp">   -186.57546353 </i>
    <i name="e_0_energy">   -186.75238092 </i>
   </energy>
  </scstep>
  <scstep>
   <time name="dav">   32.42   32.50</time>
   <time name="total">   32.96   33.04</time>
   <energy>
    <i name="e_fr_energy">   -187.07758417 </i>
    <i name="e_wo_entrp">   -186.73854812 </i>
    <i name="e_0_energy">   -186.90806614 </i>
   </energy>
  </scstep>
  <scstep>
   <time name="dav">   31.07   31.15</time>
   <time name="total">   31.61   31.69</time>
   <energy>
    <i name="e_fr_energy">   -186.92507230 </i>
    <i name="e_wo_entrp">   -186.58441030 </i>
    <i name="e_0_energy">   -186.75474130 </i>
   </energy>
  </scstep>
  <scstep>
   <time name="dav">   31.63   31.71</time>
   <time name="total">   32.17   32.25</time>
   <energy>
    <i name="e_fr_energy">   -186.85520061 </i>
    <i name="e_wo_entrp">   -186.51086443 </i>
    <i name="e_0_energy">   -186.68303252 </i>
   </energy>
  </scstep>
  <scstep>
   <time name="dav">   30.79   30.86</time>
   <time name="total">   31.32   31.41</time>
   <energy>
    <i name="e_fr_energy">   -186.84316164 </i>
    <i name="e_wo_entrp">   -186.49697932 </i>
    <i name="e_0_energy">   -186.67007048 </i>
   </energy>
  </scstep>
  <scstep>
   <time name="dav">   31.64   31.72</time>
   <time name="total">   32.18   32.26</time>
   <energy>
    <i name="e_fr_energy">   -186.82988167 </i>
    <i name="e_wo_entrp">   -186.48278719 </i>
    <i name="e_0_energy">   -186.65633443 </i>
   </energy>
  </scstep>
  <scstep>
   <time name="dav">   30.19   30.26</time>
   <time name="total">   30.73   30.81</time>
   <energy>
    <i name="e_fr_energy">   -186.82756543 </i>
    <i name="e_wo_entrp">   -186.48092312 </i>
    <i name="e_0_energy">   -186.65424428 </i>
   </energy>
  </scstep>
  <scstep>
   <time name="dav">   30.98   31.05</time>
   <time name="total">   31.51   31.60</time>
   <energy>
    <i name="e_fr_energy">   -186.82624617 </i>
    <i name="e_wo_entrp">   -186.48043491 </i>
    <i name="e_0_energy">   -186.65334054 </i>
   </energy>
  </scstep>
  <scstep>
   <time name="dav">   31.09   31.16</time>
   <time name="total">   31.63   31.71</time>
   <energy>
    <i name="e_fr_energy">   -186.82574276 </i>
    <i name="e_wo_entrp">   -186.47951840 </i>
    <i name="e_0_energy">   -186.65263058 </i>
   </energy>
  </scstep>
  <scstep>
   <time name="dav">   26.43   26.50</time>
   <time name="total">   26.97   27.04</time>
   <energy>
    <i name="e_fr_energy">   -186.82639079 </i>
    <i name="e_wo_entrp">   -186.48057105 </i>
    <i name="e_0_energy">   -186.65348092 </i>
   </energy>
  </scstep>
  <scstep>
   <time name="dav">   20.78   20.83</time>
   <time name="total">   21.32   21.38</time>
   <energy>
    <i name="e_fr_energy">   -186.82686305 </i>
    <i name="e_wo_entrp">   -186.48110827 </i>
    <i name="e_0_energy">   -186.65398566 </i>
   </energy>
  </scstep>
  <scstep>
   <time name="dav">   20.31   20.36</time>
   <time name="total">   20.85   20.91</time>
   <energy>
    <i name="e_fr_energy">   -186.82792061 </i>
    <i name="e_wo_entrp">   -186.48211205 </i>
    <i name="e_0_energy">   -186.65501633 </i>
   </energy>
  </scstep>
  <scstep>
   <time name="dav">   21.44   21.49</time>
   <time name="total">   21.98   22.04</time>
   <energy>
    <i name="e_fr_energy">   -186.82900517 </i>
    <i name="e_wo_entrp">   -186.48317525 </i>
    <i name="e_0_energy">   -186.65609021 </i>
   </energy>
  </scstep>
  <scstep>
   <time name="dav">   17.59   17.64</time>
   <time name="total">   18.13   18.18</time>
   <energy>
    <i name="e_fr_energy">   -186.82947845 </i>
    <i name="e_wo_entrp">   -186.48364940 </i>
    <i name="e_0_energy">   -186.65656392 </i>
   </energy>
  </scstep>
  <scstep>
   <time name="dav">   19.60   19.65</time>
   <time name="total">   20.14   20.20</time>
   <energy>
    <i name="e_fr_energy">   -186.83012633 </i>
    <i name="e_wo_entrp">   -186.48429564 </i>
    <i name="e_0_energy">   -186.65721098 </i>
   </energy>
  </scstep>
  <scstep>
   <time name="dav">   18.00   18.04</time>
   <time name="total">   18.54   18.59</time>
   <energy>
    <i name="e_fr_energy">   -186.83047609 </i>
    <i name="e_wo_entrp">   -186.48463207 </i>
    <i name="e_0_energy">   -186.65755408 </i>
   </energy>
  </scstep>
  <scstep>
   <time name="dav">   18.90   18.94</time>
   <time name="total">   19.44   19.49</time>
   <energy>
    <i name="e_fr_energy">   -186.83072063 </i>
    <i name="e_wo_entrp">   -186.48488774 </i>
    <i name="e_0_energy">   -186.65780419 </i>
   </energy>
  </scstep>
  <scstep>
   <time name="dav">   20.39   20.44</time>
   <time name="total">   20.43   20.48</time>
   <energy>
    <i name="alphaZ">     81.65567618 </i>
    <i name="ewald">  41891.19377235 </i>
    <i name="hartreedc"> -47833.69762914 </i>
    <i name="XCdc">   -231.60755543 </i>
    <i name="pawpsdc">   4192.07438718 </i>
    <i name="pawaedc">  -3610.07471049 </i>
    <i name="eentropy">     -0.34583260 </i>
    <i name="bandstr">  -1437.47142238 </i>
    <i name="atom">   6761.44252427 </i>
    <i name="e_fr_energy">   -186.83079005 </i>
    <i name="e_wo_entrp">   -186.48495745 </i>
    <i name="e_0_energy">   -186.65787375 </i>
   </energy>
  </scstep>
  <structure>
   <crystal>
    <varray name="basis" >
     <v>       8.66999996       5.03999989       0.00000000 </v>
     <v>      -8.66999982       5.04000013       0.00000000 </v>
     <v>       0.00000000       0.00000000      30.00000000 </v>
    </varray>
    <i name="volume">   2621.80797419 </i>
    <varray name="rec_basis" >
     <v>       0.05767013       0.09920635       0.00000000 </v>
     <v>      -0.05767013       0.09920635       0.00000000 </v>
     <v>       0.00000000       0.00000000       0.03333333 </v>
    </varray>
   </crystal>
   <varray name="positions" >
    <v>       0.66666669       0.00000000       0.00000000 </v>
    <v>       0.33333334       0.00000000       0.00000000 </v>
    <v>       0.00000000       0.00000000       0.00000000 </v>
    <v>       0.00000000       0.66666669       0.00000000 </v>
    <v>       0.66666669       0.33333334       0.00000000 </v>
    <v>       0.66666669       0.66666669       0.00000000 </v>
    <v>       1.00000000       0.33333334       0.00000000 </v>
    <v>       0.33333334       0.33333334       0.00000000 </v>
    <v>       0.33333334       0.66666669       0.00000000 </v>
    <v>       0.11068511       0.22244981       0.95539999 </v>
    <v>       0.22244981       0.11068511       0.04460000 </v>
    <v>       0.11068511       0.55578315       0.95539999 </v>
    <v>       0.22244981       0.44401845       0.04460000 </v>
    <v>       0.11068511       0.88911647       0.95539999 </v>
    <v>       0.22244981       0.77735180       0.04460000 </v>
    <v>       0.44401845       0.22244981       0.95539999 </v>
    <v>       0.55578315       0.11068511       0.04460000 </v>
    <v>       0.44401845       0.55578315       0.95539999 </v>
    <v>       0.55578315       0.44401845       0.04460000 </v>
    <v>       0.44401845       0.88911647       0.95539999 </v>
    <v>       0.55578315       0.77735180       0.04460000 </v>
    <v>       0.77735180       0.22244981       0.95539999 </v>
    <v>       0.88911647       0.11068511       0.04460000 </v>
    <v>       0.77735180       0.55578315       0.95539999 </v>
    <v>       0.88911647       0.44401845       0.04460000 </v>
    <v>       0.77735180       0.88911647       0.95539999 </v>
    <v>       0.88911647       0.77735180       0.04460000 </v>
   </varray>
  </structure>
  <varray name="forces" >
   <v>      -0.00814167       0.01583206       0.02872498 </v>
   <v>      -0.00889155       0.01497263       0.02931212 </v>
   <v>       0.22933384      -0.37623376      -0.05483781 </v>
   <v>      -0.27942128      -0.40030767      -0.13269432 </v>
   <v>      -0.23634155       0.38813451       0.17102572 </v>
   <v>       0.49806199       0.02389835      -0.13856358 </v>
   <v>      -0.51613216      -0.08480569       0.11838533 </v>
   <v>       0.34254291       0.38913407       0.11375677 </v>
   <v>      -0.05266846       0.06732608      -0.09129736 </v>
   <v>       0.46754178      -0.56449897      -2.09016553 </v>
   <v>       0.23614456      -0.52038039       1.41171450 </v>
   <v>       0.26120559       0.03634162      -2.91533342 </v>
   <v>      -0.10824073      -0.03906128       2.92669760 </v>
   <v>      -0.32857018       0.66152474      -1.41266470 </v>
   <v>      -0.36782694       0.69436084       2.11682471 </v>
   <v>       0.37604817      -0.70952450      -2.15297827 </v>
   <v>       0.32270834      -0.66782408       1.37780334 </v>
   <v>       0.02981901      -0.10176623      -2.91846704 </v>
   <v>      -0.18810413      -0.18651009       2.92759702 </v>
   <v>      -0.23538881       0.51596489      -1.43616011 </v>
   <v>      -0.61190231       0.54804298       2.10853275 </v>
   <v>       0.62669464      -0.55999102      -2.14490799 </v>
   <v>       0.23597979      -0.52197525       1.40856140 </v>
   <v>       0.09644517       0.03498272      -2.94174223 </v>
   <v>       0.07041071      -0.03201710       2.92955940 </v>
   <v>      -0.31884905       0.66843926      -1.40931671 </v>
   <v>      -0.53245766       0.70594128       2.17063344 </v>
  </varray>
  <varray name="stress" >
   <v>       7.27027778      -0.13449787      -1.56552832 </v>
   <v>      -0.13449794       4.50477162      -0.00054788 </v>
   <v>      -1.56552839      -0.00054785      30.31223753 </v>
  </varray>
  <energy>
   <i name="e_fr_energy">   -186.83079005 </i>
   <i name="e_wo_entrp">   -186.65787375 </i>
   <i name="e_0_energy">     -0.34583260 </i>
  </energy>
  <time name="totalsc">  778.09  780.17</time>
 </calculation>
 <calculation>
  <scstep>
   <time name="dav">   21.53   21.58</time>
   <time name="total">   22.07   22.13</time>
   <energy>
    <i name="alphaZ">     78.91659778 </i>
    <i name="ewald">  39376.56376497 </i>
    <i name="hartreedc"> -45333.82688358 </i>
    <i name="XCdc">   -239.07971840 </i>
    <i name="pawpsdc">   4192.05140268 </i>
    <i name="pawaedc">  -3610.05209233 </i>
    <i name="eentropy">     -0.28807586 </i>
    <i name="bandstr">  -1413.24992447 </i>
    <i name="atom">   6761.44252427 </i>
    <i name="e_fr_energy">   -187.52240494 </i>
    <i name="e_wo_entrp">   -187.23432908 </i>
    <i name="e_0_energy">   -187.37836701 </i>
   </energy>
  </scstep>
  <scstep>
   <time name="dav">   30.16   30.23</time>
   <time name="total">   30.69   30.77</time>
   <energy>
    <i name="e_fr_energy">   -189.50591467 </i>
    <i name="e_wo_entrp">   -189.17942356 </i>
    <i name="e_0_energy">   -189.34266912 </i>
   </energy>
  </scstep>
  <scstep>
   <time name="dav">   30.62   30.70</time>
   <time name="total">   31.18   31.27</time>
   <energy>
    <i name="e_fr_energy">   -189.34968913 </i>
    <i name="e_wo_entrp">   -189.07521184 </i>
    <i name="e_0_energy">   -189.21245048 </i>
   </energy>
  </scstep>
  <scstep>
   <time name="dav">   31.14   31.22</time>
   <time name="total">   31.68   31.77</time>
   <energy>
    <i name="e_fr_energy">   -188.77244301 </i>
    <i name="e_wo_entrp">   -188.48591169 </i>
    <i name="e_0_energy">   -188.62917735 </i>
   </energy>
  </scstep>
  <scstep>
   <time name="dav">   26.36   26.42</time>
   <time name="total">   26.90   26.97</time>
   <energy>
    <i name="e_fr_energy">   -188.73040511 </i>
    <i name="e_wo_entrp">   -188.44407895 </i>
    <i name="e_0_energy">   -188.58724203 </i>
   </energy>
  </scstep>
  <scstep>
   <time name="dav">   32.21   32.29</time>
   <time name="total">   32.75   32.84</time>
   <energy>
    <i name="e_fr_energy">   -188.77867827 </i>
    <i name="e_wo_entrp">   -188.48970315 </i>
    <i name="e_0_energy">   -188.63419071 </i>
   </energy>
  </scstep>
  <scstep>
   <time name="dav">   31.15   31.22</time>
   <time name="total">   31.69   31.78</time>
   <energy>
    <i name="e_fr_energy">   -188.71173149 </i>
    <i name="e_wo_entrp">   -188.42536996 </i>
    <i name="e_0_energy">   -188.56855073 </i>
   </energy>
  </scstep>
  <scstep>
   <time name="dav">   28.21   28.28</time>
   <time name="total">   28.76   28.83</time>
   <energy>
    <i name="e_fr_energy">   -188.68852815 </i>
    <i name="e_wo_entrp">   -188.40301479 </i>
    <i name="e_0_energy">   -188.54577147 </i>
   </energy>
  </scstep>
  <scstep>
   <time name="dav">   30.55   30.62</time>
   <time name="total">   31.09   31.17</time>
   <energy>
    <i name="e_fr_energy">   -188.68974078 </i>
    <i name="e_wo_entrp">   -188.40444385 </i>
    <i name="e_0_energy">   -188.54709232 </i>
   </energy>
  </scstep>
  <scstep>
   <time name="dav">   31.68   31.75</time>
   <time name="total">   32.22   32.31</time>
   <energy>
    <i name="e_fr_energy">   -188.68757525 </i>
    <i name="e_wo_entrp">   -188.40267065 </i>
    <i name="e_0_energy">   -188.54512295 </i>
   </energy>
  </scstep>
  <scstep>
   <time name="dav">   28.56   28.62</time>
   <time name="total">   29.10   29.18</time>
   <energy>
    <i name="e_fr_energy">   -188.68707428 </i>
    <i name="e_wo_entrp">   -188.40239161 </i>
    <i name="e_0_energy">   -188.54473295 </i>
   </energy>
  </scstep>
  <scstep>
   <time name="dav">   25.57   25.63</time>
   <time name="total">   25.61   25.67</time>
   <energy>
    <i name="alphaZ">     78.91659778 </i>
    <i name="ewald">  39376.56376497 </i>
    <i name="hartreedc"> -45344.79936081 </i>
    <i name="XCdc">   -237.98157125 </i>
    <i name="pawpsdc">   3950.89890174 </i>
    <i name="pawaedc">  -3365.41171272 </i>
    <i name="eentropy">     -0.28468776 </i>
    <i name="bandstr">  -1408.03161574 </i>
    <i name="atom">   6761.44252427 </i>
    <i name="e_fr_energy">   -188.68715951 </i>
    <i name="e_wo_entrp">   -188.40247174 </i>
    <i name="e_0_energy">   -188.54481562 </i>
   </energy>
  </scstep>
  <structure>
   <crystal>
    <varray name="basis" >
     <v>       8.85231902       5.10297402       0.00000000 </v>
     <v>      -8.85628288       5.10979328       0.00000000 </v>
     <v>       0.00000000       0.00000000      30.00000000 </v>
    </varray>
    <i name="volume">   2712.80705133 </i>
    <varray name="rec_basis" >
     <v>       0.05650745       0.09793859       0.00000000 </v>
     <v>      -0.05643203       0.09789475       0.00000000 </v>
     <v>       0.00000000       0.00000000       0.03333333 </v>
    </varray>
   </crystal>
   <varray name="positions" >
    <v>       0.66671981       0.00009842       0.00004619 </v>
    <v>       0.33338026       0.00009640       0.00004714 </v>
    <v>      -0.00116260      -0.00243869      -0.00008818 </v>
    <v>      -0.00269326       0.66552822      -0.00021338 </v>
    <v>       0.66786675       0.33584849       0.00027502 </v>
    <v>       0.66816675       0.66539538      -0.00022282 </v>
    <v>       0.99815816       0.33436343       0.00019037 </v>
    <v>       0.33614874       0.33424272       0.00018293 </v>
    <v>       0.33350903       0.66713544      -0.00014681 </v>
    <v>       0.10928421       0.21844735       0.95203882 </v>
    <v>       0.22061627       0.10753759       0.04687016 </v>
    <v>       0.11158576       0.55523037       0.95071188 </v>
    <v>       0.22196172       0.44413265       0.04930639 </v>
    <v>       0.11293702       0.89319664       0.95312830 </v>
    <v>       0.22474965       0.78169835       0.04800404 </v>
    <v>       0.44166891       0.21800781       0.95193781 </v>
    <v>       0.55348479       0.10659109       0.04681563 </v>
    <v>       0.44361436       0.55521314       0.95070684 </v>
    <v>       0.55436718       0.44364916       0.04930783 </v>
    <v>       0.44583296       0.89224075       0.95309052 </v>
    <v>       0.55670366       0.78167713       0.04799071 </v>
    <v>       0.77641526       0.21802614       0.95195079 </v>
    <v>       0.88727484       0.10753041       0.04686509 </v>
    <v>       0.77778755       0.55568225       0.95066941 </v>
    <v>       0.88915913       0.44366933       0.04931099 </v>
    <v>       0.77966384       0.89320269       0.95313368 </v>
    <v>       0.89101370       0.78221180       0.04809057 </v>
   </varray>
  </structure>
  <varray name="forces" >
   <v>      -0.00424912       0.00175803       0.08801525 </v>
   <v>       0.00391395       0.00400726       0.08789218 </v>
   <v>       0.18375239      -0.32033528      -0.11214821 </v>
   <v>      -0.09357137      -0.58833819      -0.03258342 </v>
   <v>      -0.32225503       0.55760156       0.02317155 </v>
   <v>       0.55623263      -0.20868885      -0.03604237 </v>
   <v>      -0.53131639       0.10667929      -0.07101948 </v>
   <v>       0.17715341       0.51572320      -0.07754217 </v>
   <v>       0.07044661      -0.13750641       0.08969343 </v>
   <v>      -0.06363633       0.08084899       0.38296278 </v>
   <v>      -0.04998664       0.07130853      -0.13333187 </v>
   <v>       0.09617886      -0.00543106      -0.04134904 </v>
   <v>       0.02019992      -0.01022653      -0.11476894 </v>
   <v>      -0.01567053       0.03453826       0.05587819 </v>
   <v>       0.09667611       0.03941073      -0.17219990 </v>
   <v>      -0.09651754      -0.04045190       0.07072284 </v>
   <v>       0.00540395      -0.03709709      -0.13607824 </v>
   <v>      -0.06044211      -0.09518511      -0.03300069 </v>
   <v>      -0.04786541      -0.08678694       0.29184917 </v>
   <v>       0.05097670      -0.06198486       0.05028258 </v>
   <v>      -0.06442156      -0.05140299      -0.17247191 </v>
   <v>       0.06390543       0.05070700       0.07045541 </v>
   <v>      -0.06124052       0.06755250      -0.13929818 </v>
   <v>       0.00119274      -0.00803822      -0.40117022 </v>
   <v>       0.11352816       0.00569759       0.28473059 </v>
   <v>       0.00178963       0.04325289       0.06077772 </v>
   <v>      -0.03017794       0.07238762       0.11657294 </v>
  </varray>
  <varray name="stress" >
   <v>     -19.94321137       0.04568318      -0.00181709 </v>
   <v>       0.04568306     -19.55927672       0.07962531 </v>
   <v>      -0.00181694       0.07962518      -1.84962648 </v>
  </varray>
  <energy>
   <i name="e_fr_energy">   -188.68715951 </i>
   <i name="e_wo_entrp">   -188.54481562 </i>
   <i name="e_0_energy">     -0.28468776 </i>
  </energy>
  <time name="totalsc">  395.76  396.80</time>
 </calculation>
 <calculation>
  <scstep>
   <time name="dav">   23.77   23.82</time>
   <time name="total">   24.30   24.36</time>
   <energy>
    <i name="alphaZ">     82.34675282 </i>
    <i name="ewald">  41303.33854393 </i>
    <i name="hartreedc"> -47302.21954154 </i>
    <i name="XCdc">   -233.85112029 </i>
    <i name="pawpsdc">   3950.27273645 </i>
    <i name="pawaedc">  -3364.77829159 </i>
    <i name="eentropy">     -0.24029497 </i>
    <i name="bandstr">  -1386.93867746 </i>
    <i name="atom">   6761.44252427 </i>
    <i name="e_fr_energy">   -190.62736837 </i>
    <i name="e_wo_entrp">   -190.38707340 </i>
    <i name="e_0_energy">   -190.50722089 </i>
   </energy>
  </scstep>
  <scstep>
   <time name="dav">   28.76   28.83</time>
   <time name="total">   29.29   29.37</time>
   <energy>
    <i name="e_fr_energy">   -190.54602878 </i>
    <i name="e_wo_entrp">   -190.30831171 </i>
    <i name="e_0_energy">   -190.42717024 </i>
   </energy>
  </scstep>
  <scstep>
   <time name="dav">   30.33   30.41</time>
   <time name="total">   30.86   30.94</time>
   <energy>
    <i name="e_fr_energy">   -190.12309237 </i>
    <i name="e_wo_entrp">   -189.87070990 </i>
    <i name="e_0_energy">   -189.99690114 </i>
   </energy>
  </scstep>
  <scstep>
   <time name="dav">   30.99   31.06</time>
   <time name="total">   31.52   31.60</time>
   <energy>
    <i name="e_fr_energy">   -189.89538000 </i>
    <i name="e_wo_entrp">   -189.65622365 </i>
    <i name="e_0_energy">   -189.77580182 </i>
   </energy>
  </scstep>
  <scstep>
   <time name="dav">   29.19   29.26</time>
   <time name="total">   29.71   29.79</time>
   <energy>
    <i name="e_fr_energy">   -189.81180061 </i>
    <i name="e_wo_entrp">   -189.56859113 </i>
    <i name="e_0_energy">   -189.69019587 </i>
   </energy>
  </scstep>
  <scstep>
   <time name="dav">   29.35   29.42</time>
   <time name="total">   29.88   29.96</time>
   <energy>
    <i name="e_fr_energy">   -189.79980892 </i>
    <i name="e_wo_entrp">   -189.55654216 </i>
    <i name="e_0_energy">   -189.67817554 </i>
   </energy>
  </scstep>
  <scstep>
   <time name="dav">   28.71   28.78</time>
   <time name="total">   29.25   29.32</time>
   <energy>
    <i name="e_fr_energy">   -189.79363719 </i>
    <i name="e_wo_entrp">   -189.55056565 </i>
    <i name="e_0_energy">   -189.67210142 </i>
   </energy>
  </scstep>
  <scstep>
   <time name="dav">   28.88   28.95</time>
   <time name="total">   29.42   29.50</time>
   <energy>
    <i name="e_fr_energy">   -189.79330409 </i>
    <i name="e_wo_entrp">   -189.55018649 </i>
    <i name="e_0_energy">   -189.67174529 </i>
   </energy>
  </scstep>
  <scstep>
   <time name="dav">   26.84   26.90</time>
   <time name="total">   27.37   27.44</time>
   <energy>
    <i name="e_fr_energy">   -189.79383275 </i>
    <i name="e_wo_entrp">   -189.55063183 </i>
    <i name="e_0_energy">   -189.67223229 </i>
   </energy>
  </scstep>
  <scstep>
   <time name="dav">   26.85   26.92</time>
   <time name="total">   27.38   27.46</time>
   <energy>
    <i name="e_fr_energy">   -189.79368956 </i>
    <i name="e_wo_entrp">   -189.55037664 </i>
    <i name="e_0_energy">   -189.67203310 </i>
   </energy>
  </scstep>
  <scstep>
   <time name="dav">   23.60   23.66</time>
   <time name="total">   24.13   24.20</time>
   <energy>
    <i name="e_fr_energy">   -189.79345253 </i>
    <i name="e_wo_entrp">   -189.55013690 </i>
    <i name="e_0_energy">   -189.67179472 </i>
   </energy>
  </scstep>
  <scstep>
   <time name="dav">   17.20   17.24</time>
   <time name="total">   17.23   17.28</time>
   <energy>
    <i name="alphaZ">     82.34675282 </i>
    <i name="ewald">  41303.33854393 </i>
    <i name="hartreedc"> -47275.46812235 </i>
    <i name="XCdc">   -235.24733125 </i>
    <i name="pawpsdc">   4038.88700773 </i>
    <i name="pawaedc">  -3454.59267705 </i>
    <i name="eentropy">     -0.24330276 </i>
    <i name="bandstr">  -1410.25685510 </i>
    <i name="atom">   6761.44252427 </i>
    <i name="e_fr_energy">   -189.79345977 </i>
    <i name="e_wo_entrp">   -189.55015700 </i>
    <i name="e_0_energy">   -189.67180838 </i>
   </energy>
  </scstep>
  <structure>
   <crystal>
    <varray name="basis" >
     <v>       8.66442385       4.99703639       0.00000000 </v>
     <v>      -8.66780626       5.00285137       0.00000000 </v>
     <v>       0.00000000       0.00000000      30.00000000 </v>
    </varray>
    <i name="volume">   2599.80503912 </i>
    <varray name="rec_basis" >
     <v>       0.05772954       0.10002065       0.00000000 </v>
     <v>      -0.05766244       0.09998162       0.00000000 </v>
     <v>       0.00000000       0.00000000       0.03333333 </v>
    </varray>
   </crystal>
   <varray name="positions" >
    <v>       0.66671865       0.00010542       0.00009605 </v>
    <v>       0.33339069       0.00009931       0.00009692 </v>
    <v>      -0.00151930      -0.00314782      -0.00015171 </v>
    <v>      -0.00376232       0.66463919      -0.00023184 </v>
    <v>       0.66848534       0.33708516       0.00028815 </v>
    <v>       0.66835356       0.66451477      -0.00024324 </v>
    <v>       0.99782550       0.33505043       0.00015014 </v>
    <v>       0.33717720       0.33493079       0.00013901 </v>
    <v>       0.33334782       0.66683912      -0.00009601 </v>
    <v>       0.10935766       0.21864288       0.95225575 </v>
    <v>       0.22068695       0.10770416       0.04679463 </v>
    <v>       0.11166908       0.55512910       0.95068845 </v>
    <v>       0.22196410       0.44409627       0.04924138 </v>
    <v>       0.11297945       0.89326913       0.95315995 </v>
    <v>       0.22490808       0.78167120       0.04790650 </v>
    <v>       0.44150890       0.21803308       0.95197787 </v>
    <v>       0.55342823       0.10652420       0.04673855 </v>
    <v>       0.44339790       0.55511275       0.95068814 </v>
    <v>       0.55417677       0.44355068       0.04947316 </v>
    <v>       0.44577875       0.89208875       0.95311900 </v>
    <v>       0.55655625       0.78165339       0.04789301 </v>
    <v>       0.77656102       0.21804921       0.95199070 </v>
    <v>       0.88732846       0.10770153       0.04678618 </v>
    <v>       0.77777532       0.55566774       0.95044216 </v>
    <v>       0.88927763       0.44356993       0.04947228 </v>
    <v>       0.77973755       0.89327293       0.95316811 </v>
    <v>       0.89110520       0.78236116       0.04815660 </v>
   </varray>
  </structure>
  <varray name="forces" >
   <v>      -0.00364038      -0.00402722       0.08377321 </v>
   <v>       0.00751426       0.00163184       0.08366763 </v>
   <v>       0.17466768      -0.30866179      -0.09862191 </v>
   <v>      -0.02602382      -0.64348909       0.00053506 </v>
   <v>      -0.35578104       0.61224839      -0.01196322 </v>
   <v>       0.56691007      -0.29771569       0.00087056 </v>
   <v>      -0.54312370       0.17995237      -0.09714555 </v>
   <v>       0.11973179       0.56677386      -0.09978103 </v>
   <v>       0.11519005      -0.21252491       0.10815857 </v>
   <v>       0.00314459      -0.03197159      -0.07728012 </v>
   <v>       0.01393500      -0.05804619       0.31504809 </v>
   <v>       0.00760590       0.00222752      -0.60643198 </v>
   <v>       0.02620171      -0.02154022       0.44106078 </v>
   <v>      -0.03484345       0.08659610      -0.38560796 </v>
   <v>      -0.03626875       0.07816467       0.30485322 </v>
   <v>       0.04106935      -0.08481732      -0.42124553 </v>
   <v>       0.02741846      -0.07597901       0.29398186 </v>
   <v>      -0.01997781      -0.01236101      -0.59826297 </v>
   <v>      -0.00614909       0.00372922       0.87349114 </v>
   <v>      -0.02767018       0.07287588      -0.41372531 </v>
   <v>      -0.03074283       0.08088856       0.30344031 </v>
   <v>       0.03625016      -0.08775600      -0.42196501 </v>
   <v>       0.02059374      -0.05180633       0.31200614 </v>
   <v>       0.00681027      -0.01658081      -0.97509013 </v>
   <v>       0.01212422       0.01226768       0.86818555 </v>
   <v>      -0.03108937       0.08561170      -0.38166301 </v>
   <v>      -0.06385683       0.12430940       0.59971163 </v>
  </varray>
  <varray name="stress" >
   <v>     -10.16502322       0.01628100      -0.02805774 </v>
   <v>       0.01628111      -9.84600121       0.09536633 </v>
   <v>      -0.02805783       0.09536620       6.48087873 </v>
  </varray>
  <energy>
   <i name="e_fr_energy">   -189.79345977 </i>
   <i name="e_wo_entrp">   -189.67180838 </i>
   <i name="e_0_energy">     -0.24330276 </i>
  </energy>
  <time name="totalsc">  372.32  373.31</time>
 </calculation>
 <calculation>
  <scstep>
   <time name="dav">   21.53   21.58</time>
   <time name="total">   22.04   22.10</time>
   <energy>
    <i name="alphaZ">     85.82086883 </i>
    <i name="ewald">  42834.54029416 </i>
    <i name="hartreedc"> -48851.00973180 </i>
    <i name="XCdc">   -232.96085941 </i>
    <i name="pawpsdc">   4038.90865963 </i>
    <i name="pawaedc">  -3454.61188599 </i>
    <i name="eentropy">     -0.20903774 </i>
    <i name="bandstr">  -1373.32859547 </i>
    <i name="atom">   6761.44252427 </i>
    <i name="e_fr_energy">   -191.40776351 </i>
    <i name="e_wo_entrp">   -191.19872577 </i>
    <i name="e_0_energy">   -191.30324464 </i>
   </energy>
  </scstep>
  <scstep>
   <time name="dav">   31.35   31.42</time>
   <time name="total">   31.85   31.94</time>
   <energy>
    <i name="e_fr_energy">   -191.15920837 </i>
    <i name="e_wo_entrp">   -190.95024642 </i>
    <i name="e_0_energy">   -191.05472740 </i>
   </energy>
  </scstep>
  <scstep>
   <time name="dav">   29.92   29.99</time>
   <time name="total">   30.43   30.51</time>
   <energy>
    <i name="e_fr_energy">   -191.37515591 </i>
    <i name="e_wo_entrp">   -191.14755038 </i>
    <i name="e_0_energy">   -191.26135314 </i>
   </energy>
  </scstep>
  <scstep>
   <time name="dav">   29.93   30.00</time>
   <time name="total">   30.45   30.53</time>
   <energy>
    <i name="e_fr_energy">   -190.98407737 </i>
    <i name="e_wo_entrp">   -190.77600792 </i>
    <i name="e_0_energy">   -190.88004264 </i>
   </energy>
  </scstep>
  <scstep>
   <time name="dav">   29.87   29.94</time>
   <time name="total">   30.38   30.46</time>
   <energy>
    <i name="e_fr_energy">   -190.85744680 </i>
    <i name="e_wo_entrp">   -190.64340449 </i>
    <i name="e_0_energy">   -190.75042565 </i>
   </energy>
  </scstep>
  <scstep>
   <time name="dav">   29.53   29.60</time>
   <time name="total">   30.04   30.12</time>
   <energy>
    <i name="e_fr_energy">   -190.85854702 </i>
    <i name="e_wo_entrp">   -190.64257156 </i>
    <i name="e_0_energy">   -190.75055929 </i>
   </energy>
  </scstep>
  <scstep>
   <time name="dav">   28.63   28.70</time>
   <time name="total">   29.14   29.22</time>
   <energy>
    <i name="e_fr_energy">   -190.83824727 </i>
    <i name="e_wo_entrp">   -190.62232411 </i>
    <i name="e_0_energy">   -190.73028569 </i>
   </energy>
  </scstep>
  <scstep>
   <time name="dav">   29.06   29.13</time>
   <time name="total">   29.57   29.65</time>
   <energy>
    <i name="e_fr_energy">   -190.83420196 </i>
    <i name="e_wo_entrp">   -190.61877789 </i>
    <i name="e_0_energy">   -190.72648992 </i>
   </energy>
  </scstep>
  <scstep>
   <time name="dav">   30.77   30.84</time>
   <time name="total">   31.28   31.37</time>
   <energy>
    <i name="e_fr_energy">   -190.83429184 </i>
    <i name="e_wo_entrp">   -190.61880127 </i>
    <i name="e_0_energy">   -190.72654655 </i>
   </energy>
  </scstep>
  <scstep>
   <time name="dav">   27.56   27.63</time>
   <time name="total">   28.08   28.15</time>
   <energy>
    <i name="e_fr_energy">   -190.83403260 </i>
    <i name="e_wo_entrp">   -190.61844726 </i>
    <i name="e_0_energy">   -190.72623993 </i>
   </energy>
  </scstep>
  <scstep>
   <time name="dav">   19.45   19.50</time>
   <time name="total">   19.48   19.54</time>
   <energy>
    <i name="alphaZ">     85.82086883 </i>
    <i name="ewald">  42834.54029416 </i>
    <i name="hartreedc"> -48822.21861634 </i>
    <i name="XCdc">   -234.28595821 </i>
    <i name="pawpsdc">   4064.52021753 </i>
    <i name="pawaedc">  -3480.42103226 </i>
    <i name="eentropy">     -0.21568256 </i>
    <i name="bandstr">  -1400.01664571 </i>
    <i name="atom">   6761.44252427 </i>
    <i name="e_fr_energy">   -190.83403030 </i>
    <i name="e_wo_entrp">   -190.61834773 </i>
    <i name="e_0_energy">   -190.72618902 </i>
   </energy>
  </scstep>
  <structure>
   <crystal>
    <varray name="basis" >
     <v>       8.48278945       4.89752828       0.00000000 </v>
     <v>      -8.48600458       4.90306038       0.00000000 </v>
     <v>       0.00000000       0.00000000      30.00000000 </v>
    </varray>
    <i name="volume">   2494.56228824 </i>
    <varray name="rec_basis" >
     <v>       0.05896498       0.10205403       0.00000000 </v>
     <v>      -0.05889845       0.10201537       0.00000000 </v>
     <v>       0.00000000       0.00000000       0.03333333 </v>
    </varray>
   </crystal>
   <varray name="positions" >
    <v>       0.66666677       0.00007810       0.00026575 </v>
    <v>       0.33342732       0.00007133       0.00026642 </v>
    <v>      -0.00280435      -0.00566780      -0.00034427 </v>
    <v>      -0.00792490       0.66047231      -0.00020269 </v>
    <v>       0.67112022       0.34238473       0.00023365 </v>
    <v>       0.66833228       0.66036861      -0.00021018 </v>
    <v>       0.99715470       0.33833623      -0.00007294 </v>
    <v>       0.34120251       0.33825463      -0.00008624 </v>
    <v>       0.33231123       0.66484266       0.00014337 </v>
    <v>       0.10898403       0.21805512       0.95170613 </v>
    <v>       0.22014384       0.10687725       0.04782607 </v>
    <v>       0.11160240       0.55526162       0.94895542 </v>
    <v>       0.22190440       0.44383015       0.05062448 </v>
    <v>       0.11349764       0.89409376       0.95198840 </v>
    <v>       0.22517190       0.78257824       0.04894112 </v>
    <v>       0.44121348       0.21704646       0.95068984 </v>
    <v>       0.55298654       0.10582150       0.04771089 </v>
    <v>       0.44351250       0.55525549       0.94897186 </v>
    <v>       0.55446301       0.44376153       0.05177266 </v>
    <v>       0.44635762       0.89309284       0.95187021 </v>
    <v>       0.55732904       0.78255129       0.04892374 </v>
    <v>       0.77575843       0.21706448       0.95070080 </v>
    <v>       0.88689906       0.10688881       0.04781380 </v>
    <v>       0.77768294       0.55551009       0.94793903 </v>
    <v>       0.88926901       0.44376466       0.05176234 </v>
    <v>       0.78021933       0.89407338       0.95200391 </v>
    <v>       0.89173347       0.78354699       0.04980634 </v>
   </varray>
  </structure>
  <varray name="forces" >
   <v>       0.00092727       0.00143467       0.05311916 </v>
   <v>      -0.00001896      -0.00160503       0.05311234 </v>
   <v>       0.19204261      -0.33682479      -0.05854914 </v>
   <v>       0.05137713      -0.62744574       0.02478855 </v>
   <v>      -0.34605059       0.59369707      -0.04028193 </v>
   <v>       0.51935317      -0.35522584       0.02965183 </v>
   <v>      -0.61753490       0.19784550      -0.06268944 </v>
   <v>       0.13974836       0.63543629      -0.05603689 </v>
   <v>       0.14358533      -0.26436981       0.07450080 </v>
   <v>      -0.02126149       0.03865881       0.07367466 </v>
   <v>      -0.02669396       0.02015157       0.19160189 </v>
   <v>      -0.08642449       0.03894965      -0.46141866 </v>
   <v>       0.03785092      -0.06416193       0.29232941 </v>
   <v>       0.04288443      -0.04865674      -0.29261065 </v>
   <v>      -0.05986186      -0.05340980       0.16270238 </v>
   <v>       0.05676282       0.05585099      -0.25941794 </v>
   <v>      -0.05321143       0.07369483       0.21333407 </v>
   <v>       0.01047173       0.09525663      -0.46080304 </v>
   <v>       0.04025724       0.04086453       0.67295015 </v>
   <v>       0.00674827       0.00686225      -0.26637663 </v>
   <v>       0.07531943       0.02378019       0.15980091 </v>
   <v>      -0.07521875      -0.01909239      -0.25550464 </v>
   <v>      -0.01964119       0.02371212       0.19376401 </v>
   <v>      -0.00037177       0.00744313      -0.76479464 </v>
   <v>      -0.05858514      -0.01543110       0.67184127 </v>
   <v>       0.03834607      -0.05093493      -0.29418573 </v>
   <v>       0.00919978      -0.01648013       0.40549792 </v>
  </varray>
  <varray name="stress" >
   <v>      -5.85867928      -0.17746015      -0.02085593 </v>
   <v>      -0.17746013      -5.68099349      -0.09644085 </v>
   <v>      -0.02085586      -0.09644080       4.56062038 </v>
  </varray>
  <energy>
   <i name="e_fr_energy">   -190.83403030 </i>
   <i name="e_wo_entrp">   -190.72618902 </i>
   <i name="e_0_energy">     -0.21568256 </i>
  </energy>
  <time name="totalsc">  354.41  355.35</time>
 </calculation>
 <calculation>
  <scstep>
   <time name="dav">   21.56   21.61</time>
   <time name="total">   22.07   22.12</time>
   <energy>
    <i name="alphaZ">     90.20724699 </i>
    <i name="ewald">  44679.90899445 </i>
    <i name="hartreedc"> -50723.06518943 </i>
    <i name="XCdc">   -231.82774035 </i>
    <i name="pawpsdc">   4064.61347025 </i>
    <i name="pawaedc">  -3480.51085662 </i>
    <i name="eentropy">     -0.20447675 </i>
    <i name="bandstr">  -1352.82858079 </i>
    <i name="atom">   6761.44252427 </i>
    <i name="e_fr_energy">   -192.26460796 </i>
    <i name="e_wo_entrp">   -192.06013121 </i>
    <i name="e_0_energy">   -192.16236958 </i>
   </energy>
  </scstep>
  <scstep>
   <time name="dav">   25.25   25.31</time>
   <time name="total">   25.76   25.83</time>
   <energy>
    <i name="e_fr_energy">   -191.97215617 </i>
    <i name="e_wo_entrp">   -191.75157485 </i>
    <i name="e_0_energy">   -191.86186551 </i>
   </energy>
  </scstep>
  <scstep>
   <time name="dav">   27.21   27.27</time>
   <time name="total">   27.71   27.79</time>
   <energy>
    <i name="e_fr_energy">   -191.84585643 </i>
    <i name="e_wo_entrp">   -191.64756828 </i>
    <i name="e_0_energy">   -191.74671235 </i>
   </energy>
  </scstep>
  <scstep>
   <time name="dav">   29.77   29.84</time>
   <time name="total">   30.28   30.36</time>
   <energy>
    <i name="e_fr_energy">   -191.86402308 </i>
    <i name="e_wo_entrp">   -191.64088658 </i>
    <i name="e_0_energy">   -191.75245483 </i>
   </energy>
  </scstep>
  <scstep>
   <time name="dav">   30.09   30.16</time>
   <time name="total">   30.59   30.67</time>
   <energy>
    <i name="e_fr_energy">   -191.61164853 </i>
    <i name="e_wo_entrp">   -191.40111358 </i>
    <i name="e_0_energy">   -191.50638105 </i>
   </energy>
  </scstep>
  <scstep>
   <time name="dav">   29.92   30.00</time>
   <time name="total">   30.43   30.51</time>
   <energy>
    <i name="e_fr_energy">   -191.61026850 </i>
    <i name="e_wo_entrp">   -191.39506528 </i>
    <i name="e_0_energy">   -191.50266689 </i>
   </energy>
  </scstep>
  <scstep>
   <time name="dav">   30.03   30.10</time>
   <time name="total">   30.54   30.62</time>
   <energy>
    <i name="e_fr_energy">   -191.57481992 </i>
    <i name="e_wo_entrp">   -191.35750167 </i>
    <i name="e_0_energy">   -191.46616079 </i>
   </energy>
  </scstep>
  <scstep>
   <time name="dav">   28.54   28.61</time>
   <time name="total">   29.05   29.13</time>
   <energy>
    <i name="e_fr_energy">   -191.57098250 </i>
    <i name="e_wo_entrp">   -191.35523615 </i>
    <i name="e_0_energy">   -191.46310933 </i>
   </energy>
  </scstep>
  <scstep>
   <time name="dav">   29.36   29.43</time>
   <time name="total">   29.86   29.94</time>
   <energy>
    <i name="e_fr_energy">   -191.56951693 </i>
    <i name="e_wo_entrp">   -191.35381422 </i>
    <i name="e_0_energy">   -191.46166557 </i>
   </energy>
  </scstep>
  <scstep>
   <time name="dav">   28.63   28.70</time>
   <time name="total">   29.14   29.21</time>
   <energy>
    <i name="e_fr_energy">   -191.56935556 </i>
    <i name="e_wo_entrp">   -191.35358211 </i>
    <i name="e_0_energy">   -191.46146883 </i>
   </energy>
  </scstep>
  <scstep>
   <time name="dav">   24.70   24.76</time>
   <time name="total">   24.74   24.81</time>
   <energy>
    <i name="alphaZ">     90.20724699 </i>
    <i name="ewald">  44679.90899445 </i>
    <i name="hartreedc"> -50689.19306365 </i>
    <i name="XCdc">   -233.33853146 </i>
    <i name="pawpsdc">   4089.04256808 </i>
    <i name="pawaedc">  -3505.08894625 </i>
    <i name="eentropy">     -0.21593931 </i>
    <i name="bandstr">  -1384.33416140 </i>
    <i name="atom">   6761.44252427 </i>
    <i name="e_fr_energy">   -191.56930828 </i>
    <i name="e_wo_entrp">   -191.35336896 </i>
    <i name="e_0_energy">   -191.46133862 </i>
   </energy>
  </scstep>
  <structure>
   <crystal>
    <varray name="basis" >
     <v>       8.26343450       4.77043639       0.00000000 </v>
     <v>      -8.27751367       4.79478689       0.00000000 </v>
     <v>       0.00000000       0.00000000      30.00000000 </v>
    </varray>
    <i name="volume">   2373.26279291 </i>
    <varray name="rec_basis" >
     <v>       0.06061006       0.10463460       0.00000000 </v>
     <v>      -0.06030225       0.10445663       0.00000000 </v>
     <v>       0.00000000       0.00000000       0.03333333 </v>
    </varray>
   </crystal>
   <varray name="positions" >
    <v>       0.66666170       0.00006660       0.00049217 </v>
    <v>       0.33341921       0.00003679       0.00049278 </v>
    <v>      -0.00554891      -0.01108982      -0.00058845 </v>
    <v>      -0.01546768       0.65212177      -0.00008302 </v>
    <v>       0.67611521       0.35245153       0.00005172 </v>
    <v>       0.66755122       0.65204256      -0.00006958 </v>
    <v>       0.99542467       0.34532155      -0.00037010 </v>
    <v>       0.34997813       0.34526290      -0.00035774 </v>
    <v>       0.32998357       0.66037001       0.00048011 </v>
    <v>       0.10899881       0.21810189       0.95146525 </v>
    <v>       0.21984094       0.10666218       0.04910952 </v>
    <v>       0.11136953       0.55637827       0.94645712 </v>
    <v>       0.22141872       0.44280651       0.05243410 </v>
    <v>       0.11347355       0.89367238       0.95032108 </v>
    <v>       0.22421690       0.78287937       0.05014662 </v>
    <v>       0.44216037       0.21675057       0.94906913 </v>
    <v>       0.55326828       0.10663274       0.04904069 </v>
    <v>       0.44486452       0.55638056       0.94647993 </v>
    <v>       0.55548257       0.44415562       0.05516989 </v>
    <v>       0.44682896       0.89379856       0.95025698 </v>
    <v>       0.55859651       0.78283515       0.05011722 </v>
    <v>       0.77452764       0.21678512       0.94909291 </v>
    <v>       0.88675395       0.10667134       0.04910607 </v>
    <v>       0.77772350       0.55552315       0.94417402 </v>
    <v>       0.88862332       0.44415941       0.05515464 </v>
    <v>       0.78009354       0.89364513       0.95033228 </v>
    <v>       0.89185570       0.78379262       0.05202453 </v>
   </varray>
  </structure>
  <varray name="forces" >
   <v>       0.01379325       0.03707512       0.06163320 </v>
   <v>      -0.03766809       0.00568067       0.05778297 </v>
   <v>       0.25522913      -0.44446144      -0.07302087 </v>
   <v>       0.09983048      -0.03512780      -0.10394260 </v>
   <v>       0.00335099      -0.00968467       0.05999782 </v>
   <v>      -0.00959056      -0.09554561      -0.11333622 </v>
   <v>      -0.47726753       0.11208308       0.09224998 </v>
   <v>       0.13664320       0.46276693       0.08033709 </v>
   <v>       0.13295820      -0.24189602      -0.04209908 </v>
   <v>      -0.09778637       0.17751979       0.42217005 </v>
   <v>      -0.09629500       0.12060544      -0.12216257 </v>
   <v>      -0.15657522       0.07761470      -0.18939208 </v>
   <v>       0.07379796      -0.13352568       0.02232546 </v>
   <v>       0.11595859      -0.18145422      -0.00708362 </v>
   <v>      -0.00782846      -0.20612236      -0.10243479 </v>
   <v>       0.01730188       0.24681772      -0.00007099 </v>
   <v>      -0.11939882       0.21006241      -0.05839685 </v>
   <v>       0.01378796       0.17569231      -0.17912183 </v>
   <v>       0.11085205       0.02540211       0.26717536 </v>
   <v>       0.04754558      -0.08108917       0.05101585 </v>
   <v>       0.17809860      -0.09950084      -0.10608177 </v>
   <v>      -0.22184015       0.10705826      -0.00414177 </v>
   <v>      -0.05563584       0.14438429      -0.12124601 </v>
   <v>      -0.04427143       0.07499885      -0.23845942 </v>
   <v>      -0.07614458      -0.08372311       0.26046142 </v>
   <v>       0.09930895      -0.19225426      -0.00868792 </v>
   <v>       0.10184523      -0.17337647       0.09452920 </v>
  </varray>
  <varray name="stress" >
   <v>       0.13862569      -0.60239850       0.37958288 </v>
   <v>      -0.60239857       0.88186651      -0.67848110 </v>
   <v>       0.37958283      -0.67848110      -0.73357072 </v>
  </varray>
  <energy>
   <i name="e_fr_energy">   -191.56930828 </i>
   <i name="e_wo_entrp">   -191.46133862 </i>
   <i name="e_0_energy">     -0.21593931 </i>
  </energy>
  <time name="totalsc">  351.81  352.74</time>
 </calculation>
 <calculation>
  <scstep>
   <time name="dav">   21.52   21.57</time>
   <time name="total">   22.03   22.08</time>
   <energy>
    <i name="alphaZ">     89.88599298 </i>
    <i name="ewald">  44519.48885854 </i>
    <i name="hartreedc"> -50525.89462355 </i>
    <i name="XCdc">   -233.62683510 </i>
    <i name="pawpsdc">   4089.29314662 </i>
    <i name="pawaedc">  -3505.33582977 </i>
    <i name="eentropy">     -0.21667612 </i>
    <i name="bandstr">  -1386.68128459 </i>
    <i name="atom">   6761.44252427 </i>
    <i name="e_fr_energy">   -191.64472672 </i>
    <i name="e_wo_entrp">   -191.42805060 </i>
    <i name="e_0_energy">   -191.53638866 </i>
   </energy>
  </scstep>
  <scstep>
   <time name="dav">   30.45   30.52</time>
   <time name="total">   30.95   31.03</time>
   <energy>
    <i name="e_fr_energy">   -191.72222976 </i>
    <i name="e_wo_entrp">   -191.49472371 </i>
    <i name="e_0_energy">   -191.60847674 </i>
   </energy>
  </scstep>
  <scstep>
   <time name="dav">   30.43   30.51</time>
   <time name="total">   30.94   31.02</time>
   <energy>
    <i name="e_fr_energy">   -191.65577842 </i>
    <i name="e_wo_entrp">   -191.43831611 </i>
    <i name="e_0_energy">   -191.54704727 </i>
   </energy>
  </scstep>
  <scstep>
   <time name="dav">   26.75   26.82</time>
   <time name="total">   27.26   27.33</time>
   <energy>
    <i name="e_fr_energy">   -191.66050799 </i>
    <i name="e_wo_entrp">   -191.44179268 </i>
    <i name="e_0_energy">   -191.55115033 </i>
   </energy>
  </scstep>
  <scstep>
   <time name="dav">   26.90   26.96</time>
   <time name="total">   27.40   27.47</time>
   <energy>
    <i name="e_fr_energy">   -191.65146143 </i>
    <i name="e_wo_entrp">   -191.43164393 </i>
    <i name="e_0_energy">   -191.54155268 </i>
   </energy>
  </scstep>
  <scstep>
   <time name="dav">   27.94   28.01</time>
   <time name="total">   28.44   28.52</time>
   <energy>
    <i name="e_fr_energy">   -191.65104150 </i>
    <i name="e_wo_entrp">   -191.43263908 </i>
    <i name="e_0_energy">   -191.54184029 </i>
   </energy>
  </scstep>
  <scstep>
   <time name="dav">   27.87   27.93</time>
   <time name="total">   28.37   28.45</time>
   <energy>
    <i name="e_fr_energy">   -191.65085486 </i>
    <i name="e_wo_entrp">   -191.43199814 </i>
    <i name="e_0_energy">   -191.54142650 </i>
   </energy>
  </scstep>
  <scstep>
   <time name="dav">   22.63   22.68</time>
   <time name="total">   23.13   23.20</time>
   <energy>
    <i name="e_fr_energy">   -191.65071964 </i>
    <i name="e_wo_entrp">   -191.43182678 </i>
    <i name="e_0_energy">   -191.54127321 </i>
   </energy>
  </scstep>
  <scstep>
   <time name="dav">   17.31   17.35</time>
   <time name="total">   17.35   17.40</time>
   <energy>
    <i name="alphaZ">     89.88599298 </i>
    <i name="ewald">  44519.48885854 </i>
    <i name="hartreedc"> -50529.53040974 </i>
    <i name="XCdc">   -233.50121026 </i>
    <i name="pawpsdc">   4084.28340520 </i>
    <i name="pawaedc">  -3500.25876213 </i>
    <i name="eentropy">     -0.21889185 </i>
    <i name="bandstr">  -1383.24219767 </i>
    <i name="atom">   6761.44252427 </i>
    <i name="e_fr_energy">   -191.65069066 </i>
    <i name="e_wo_entrp">   -191.43179881 </i>
    <i name="e_0_energy">   -191.54124473 </i>
   </energy>
  </scstep>
  <structure>
   <crystal>
    <varray name="basis" >
     <v>       8.26375068       4.77118837       0.00000000 </v>
     <v>      -8.29183234       4.81979712       0.00000000 </v>
     <v>       0.00000000       0.00000000      30.00000000 </v>
    </varray>
    <i name="volume">   2381.74487302 </i>
    <varray name="rec_basis" >
     <v>       0.06070924       0.10444232       0.00000000 </v>
     <v>      -0.06009697       0.10408861       0.00000000 </v>
     <v>       0.00000000       0.00000000       0.03333333 </v>
    </varray>
   </crystal>
   <varray name="positions" >
    <v>       0.66687668       0.00020563       0.00057718 </v>
    <v>       0.33334254       0.00016845       0.00057196 </v>
    <v>      -0.00686236      -0.01370784      -0.00069016 </v>
    <v>      -0.01508964       0.65198233      -0.00024504 </v>
    <v>       0.67589890       0.35203450       0.00014942 </v>
    <v>       0.66710079       0.65191531      -0.00024659 </v>
    <v>       0.99469931       0.34691003      -0.00021893 </v>
    <v>       0.35224462       0.34683248      -0.00022548 </v>
    <v>       0.32928443       0.65902088       0.00040364 </v>
    <v>       0.10957990       0.21922365       0.95212537 </v>
    <v>       0.22016811       0.10752084       0.04886733 </v>
    <v>       0.11131787       0.55713526       0.94627361 </v>
    <v>       0.22100370       0.44200634       0.05238921 </v>
    <v>       0.11292505       0.89249770       0.95038066 </v>
    <v>       0.22324664       0.78189997       0.04993613 </v>
    <v>       0.44335073       0.21789797       0.94913972 </v>
    <v>       0.55393362       0.10793860       0.04889434 </v>
    <v>       0.44568713       0.55713586       0.94631166 </v>
    <v>       0.55586702       0.44395451       0.05543831 </v>
    <v>       0.44654996       0.89324315       0.95040380 </v>
    <v>       0.55855893       0.78185314       0.04990165 </v>
    <v>       0.77447996       0.21792382       0.94915695 </v>
    <v>       0.88729895       0.10753144       0.04886494 </v>
    <v>       0.77795771       0.55600156       0.94396199 </v>
    <v>       0.88803963       0.44395292       0.05541308 </v>
    <v>       0.77945247       0.89246531       0.95038953 </v>
    <v>       0.89130182       0.78267064       0.05207562 </v>
   </varray>
  </structure>
  <varray name="forces" >
   <v>      -0.00280958       0.07363739       0.07202753 </v>
   <v>      -0.06051607       0.03683434       0.06978815 </v>
   <v>       0.29305404      -0.50852656      -0.03705149 </v>
   <v>       0.07732112      -0.16431098       0.00182708 </v>
   <v>      -0.08119889       0.13749711      -0.04865888 </v>
   <v>       0.11420677      -0.14407343       0.00645225 </v>
   <v>      -0.53571602       0.11349008      -0.01090747 </v>
   <v>       0.16883043       0.51769315      -0.00594984 </v>
   <v>       0.14352689      -0.26972914       0.00104596 </v>
   <v>      -0.06081682       0.10850101       0.47916449 </v>
   <v>      -0.08039027       0.07912579      -0.14505372 </v>
   <v>      -0.06426175       0.02937126      -0.15526934 </v>
   <v>       0.04028734      -0.07303277      -0.00873422 </v>
   <v>       0.08405251      -0.09862832      -0.04188593 </v>
   <v>       0.01451789      -0.09398527      -0.11988856 </v>
   <v>      -0.00199689       0.14525461       0.00208665 </v>
   <v>      -0.05803282       0.10001965      -0.03930935 </v>
   <v>       0.00703055       0.07451289      -0.15155379 </v>
   <v>       0.04549488       0.07961239       0.21249655 </v>
   <v>       0.03456548      -0.05708839       0.08285912 </v>
   <v>       0.07162653      -0.06261213      -0.12676369 </v>
   <v>      -0.12252803       0.07548430       0.00212004 </v>
   <v>      -0.02902398       0.10921860      -0.14324585 </v>
   <v>      -0.00401959       0.01189355      -0.12752701 </v>
   <v>      -0.09368688      -0.00265560       0.21750885 </v>
   <v>       0.04478801      -0.12171796      -0.04285320 </v>
   <v>       0.05569517      -0.09578556       0.05727568 </v>
  </varray>
  <varray name="stress" >
   <v>      -0.15171265       0.00919947       0.05796455 </v>
   <v>       0.00919923      -0.16682451      -0.14411915 </v>
   <v>       0.05796456      -0.14411931      -1.38112488 </v>
  </varray>
  <energy>
   <i name="e_fr_energy">   -191.65069066 </i>
   <i name="e_wo_entrp">   -191.54124473 </i>
   <i name="e_0_energy">     -0.21889185 </i>
  </energy>
  <time name="totalsc">  277.64  278.38</time>
 </calculation>
 <calculation>
  <scstep>
   <time name="dav">   21.56   21.61</time>
   <time name="total">   22.07   22.12</time>
   <energy>
    <i name="alphaZ">     89.98752837 </i>
    <i name="ewald">  44568.00678263 </i>
    <i name="hartreedc"> -50578.93886386 </i>
    <i name="XCdc">   -233.42540856 </i>
    <i name="pawpsdc">   4083.83963939 </i>
    <i name="pawaedc">  -3499.81100234 </i>
    <i name="eentropy">     -0.21744636 </i>
    <i name="bandstr">  -1382.61200770 </i>
    <i name="atom">   6761.44252427 </i>
    <i name="e_fr_energy">   -191.72825416 </i>
    <i name="e_wo_entrp">   -191.51080781 </i>
    <i name="e_0_energy">   -191.61953098 </i>
   </energy>
  </scstep>
  <scstep>
   <time name="dav">   31.95   32.02</time>
   <time name="total">   32.45   32.54</time>
   <energy>
    <i name="e_fr_energy">   -191.78416837 </i>
    <i name="e_wo_entrp">   -191.55470624 </i>
    <i name="e_0_energy">   -191.66943730 </i>
   </energy>
  </scstep>
  <scstep>
   <time name="dav">   30.45   30.52</time>
   <time name="total">   30.96   31.04</time>
   <energy>
    <i name="e_fr_energy">   -191.73645942 </i>
    <i name="e_wo_entrp">   -191.51842199 </i>
    <i name="e_0_energy">   -191.62744070 </i>
   </energy>
  </scstep>
  <scstep>
   <time name="dav">   26.28   26.34</time>
   <time name="total">   26.79   26.86</time>
   <energy>
    <i name="e_fr_energy">   -191.73803024 </i>
    <i name="e_wo_entrp">   -191.51948168 </i>
    <i name="e_0_energy">   -191.62875596 </i>
   </energy>
  </scstep>
  <scstep>
   <time name="dav">   27.55   27.61</time>
   <time name="total">   28.05   28.13</time>
   <energy>
    <i name="e_fr_energy">   -191.73320571 </i>
    <i name="e_wo_entrp">   -191.51317294 </i>
    <i name="e_0_energy">   -191.62318932 </i>
   </energy>
  </scstep>
  <scstep>
   <time name="dav">   26.52   26.59</time>
   <time name="total">   27.03   27.10</time>
   <energy>
    <i name="e_fr_energy">   -191.73298347 </i>
    <i name="e_wo_entrp">   -191.51348754 </i>
    <i name="e_0_energy">   -191.62323550 </i>
   </energy>
  </scstep>
  <scstep>
   <time name="dav">   27.30   27.36</time>
   <time name="total">   27.80   27.88</time>
   <energy>
    <i name="e_fr_energy">   -191.73285687 </i>
    <i name="e_wo_entrp">   -191.51289519 </i>
    <i name="e_0_energy">   -191.62287603 </i>
   </energy>
  </scstep>
  <scstep>
   <time name="dav">   22.39   22.44</time>
   <time name="total">   22.42   22.48</time>
   <energy>
    <i name="alphaZ">     89.98752837 </i>
    <i name="ewald">  44568.00678263 </i>
    <i name="hartreedc"> -50578.78118609 </i>
    <i name="XCdc">   -233.44290214 </i>
    <i name="pawpsdc">   4087.05950944 </i>
    <i name="pawaedc">  -3503.07047977 </i>
    <i name="eentropy">     -0.21993565 </i>
    <i name="bandstr">  -1382.71462625 </i>
    <i name="atom">   6761.44252427 </i>
    <i name="e_fr_energy">   -191.73278520 </i>
    <i name="e_wo_entrp">   -191.51284955 </i>
    <i name="e_0_energy">   -191.62281737 </i>
   </energy>
  </scstep>
  <structure>
   <crystal>
    <varray name="basis" >
     <v>       8.25881799       4.76830112       0.00000000 </v>
     <v>      -8.28718824       4.81740937       0.00000000 </v>
[...]
      <set comment="kpoint 31">
       <r>  -17.5401    1.0000 </r>
       <r>  -17.2257    1.0000 </r>
       <r>  -16.9125    1.0000 </r>
       <r>  -16.5964    1.0000 </r>
       <r>  -16.4930    1.0000 </r>
       <r>  -16.3451    1.0000 </r>
       <r>  -16.2832    1.0000 </r>
       <r>  -16.2359    1.0000 </r>
       <r>  -16.0929    1.0000 </r>
       <r>  -16.0486    1.0000 </r>
       <r>  -15.9406    1.0000 </r>
       <r>  -15.8110    1.0000 </r>
       <r>  -15.7481    1.0000 </r>
       <r>  -15.6821    1.0000 </r>
       <r>  -15.6536    1.0000 </r>
       <r>  -15.5765    1.0000 </r>
       <r>  -15.5027    1.0000 </r>
       <r>  -15.3416    1.0000 </r>
       <r>   -9.7143    1.0000 </r>
       <r>   -9.4268    1.0000 </r>
       <r>   -9.3272    1.0000 </r>
       <r>   -9.0337    1.0000 </r>
       <r>   -8.8851    1.0000 </r>
       <r>   -8.7702    1.0000 </r>
       <r>   -8.4434    1.0000 </r>
       <r>   -8.3975    1.0000 </r>
       <r>   -8.3434    1.0000 </r>
       <r>   -8.3193    1.0000 </r>
       <r>   -8.2377    1.0000 </r>
       <r>   -8.2114    1.0000 </r>
       <r>   -8.1522    1.0000 </r>
       <r>   -8.1032    1.0000 </r>
       <r>   -8.0316    1.0000 </r>
       <r>   -7.8765    1.0000 </r>
       <r>   -7.8116    1.0000 </r>
       <r>   -7.6247    1.0000 </r>
       <r>   -7.4568    1.0000 </r>
       <r>   -7.4014    1.0000 </r>
       <r>   -7.3752    1.0000 </r>
       <r>   -7.1910    1.0000 </r>
       <r>   -7.1266    1.0000 </r>
       <r>   -7.0689    1.0000 </r>
       <r>   -6.9990    1.0000 </r>
       <r>   -6.9367    1.0000 </r>
       <r>   -6.8792    1.0000 </r>
       <r>   -6.8422    1.0000 </r>
       <r>   -6.7128    1.0000 </r>
       <r>   -6.6060    1.0000 </r>
       <r>   -6.5732    1.0000 </r>
       <r>   -6.4671    1.0000 </r>
       <r>   -6.4100    1.0000 </r>
       <r>   -6.2918    1.0000 </r>
       <r>   -6.2450    1.0000 </r>
       <r>   -6.2081    1.0000 </r>
       <r>   -6.1506    1.0000 </r>
       <r>   -6.0829    1.0000 </r>
       <r>   -6.0202    1.0000 </r>
       <r>   -5.9795    1.0000 </r>
       <r>   -5.8928    1.0000 </r>
       <r>   -5.8671    1.0000 </r>
       <r>   -5.7411    1.0000 </r>
       <r>   -5.6366    1.0000 </r>
       <r>   -5.5957    1.0000 </r>
       <r>   -5.4136    1.0000 </r>
       <r>   -5.3079    1.0000 </r>
       <r>   -5.0853    1.0000 </r>
       <r>   -5.0639    1.0000 </r>
       <r>   -4.9598    1.0000 </r>
       <r>   -4.8156    1.0000 </r>
       <r>   -4.6190    1.0000 </r>
       <r>   -4.5252    1.0000 </r>
       <r>   -4.3754    1.0000 </r>
       <r>   -4.3335    1.0000 </r>
       <r>   -4.2378    1.0000 </r>
       <r>   -4.2190    1.0000 </r>
       <r>   -4.0573    1.0000 </r>
       <r>   -3.7193    0.9999 </r>
       <r>   -3.5882    0.9985 </r>
       <r>   -3.4328    0.9686 </r>
       <r>   -3.1087    0.3332 </r>
       <r>   -2.9691    0.0780 </r>
       <r>   -2.8019    0.0047 </r>
       <r>   -2.7266    0.0009 </r>
       <r>   -2.6688    0.0002 </r>
       <r>   -2.5422    0.0000 </r>
       <r>   -2.4965    0.0000 </r>
       <r>   -2.4008    0.0000 </r>
       <r>   -2.1310    0.0000 </r>
       <r>   -2.0734    0.0000 </r>
       <r>   -1.9762    0.0000 </r>
       <r>   -1.8922    0.0000 </r>
       <r>   -1.6674    0.0000 </r>
       <r>   -1.4112    0.0000 </r>
       <r>   -1.3387    0.0000 </r>
       <r>   -1.2637    0.0000 </r>
       <r>   -1.2182    0.0000 </r>
       <r>   -1.0587    0.0000 </r>
       <r>   -1.0310    0.0000 </r>
       <r>   -0.9688    0.0000 </r>
       <r>   -0.8806    0.0000 </r>
       <r>   -0.7669    0.0000 </r>
       <r>   -0.7197    0.0000 </r>
       <r>   -0.6610    0.0000 </r>
       <r>   -0.6040    0.0000 </r>
       <r>   -0.4675    0.0000 </r>
       <r>   -0.2823    0.0000 </r>
       <r>   -0.2338    0.0000 </r>
       <r>   -0.1072    0.0000 </r>
       <r>   -0.0546    0.0000 </r>
       <r>    0.2169    0.0000 </r>
       <r>    0.4019    0.0000 </r>
       <r>    0.5071    0.0000 </r>
       <r>    0.7717    0.0000 </r>
       <r>    0.8153    0.0000 </r>
       <r>    1.2662    0.0000 </r>
       <r>    1.3988    0.0000 </r>
       <r>    1.4607    0.0000 </r>
       <r>    2.1301    0.0000 </r>
       <r>    2.2828    0.0000 </r>
       <r>    2.3843    0.0000 </r>
      </set>
      <set comment="kpoint 32">
       <r>  -17.5414    1.0000 </r>
       <r>  -17.1310    1.0000 </r>
       <r>  -17.0652    1.0000 </r>
       <r>  -16.5836    1.0000 </r>
       <r>  -16.4282    1.0000 </r>
       <r>  -16.3050    1.0000 </r>
       <r>  -16.2722    1.0000 </r>
       <r>  -16.2176    1.0000 </r>
       <r>  -16.1673    1.0000 </r>
       <r>  -16.0437    1.0000 </r>
       <r>  -15.9869    1.0000 </r>
       <r>  -15.8150    1.0000 </r>
       <r>  -15.7411    1.0000 </r>
       <r>  -15.7056    1.0000 </r>
       <r>  -15.6469    1.0000 </r>
       <r>  -15.5495    1.0000 </r>
       <r>  -15.4785    1.0000 </r>
       <r>  -15.3471    1.0000 </r>
       <r>   -9.6608    1.0000 </r>
       <r>   -9.5583    1.0000 </r>
       <r>   -9.4152    1.0000 </r>
       <r>   -8.9653    1.0000 </r>
       <r>   -8.7523    1.0000 </r>
       <r>   -8.5619    1.0000 </r>
       <r>   -8.4792    1.0000 </r>
       <r>   -8.4440    1.0000 </r>
       <r>   -8.3759    1.0000 </r>
       <r>   -8.3575    1.0000 </r>
       <r>   -8.2468    1.0000 </r>
       <r>   -8.2226    1.0000 </r>
       <r>   -8.1698    1.0000 </r>
       <r>   -8.1228    1.0000 </r>
       <r>   -8.0495    1.0000 </r>
       <r>   -7.9833    1.0000 </r>
       <r>   -7.7942    1.0000 </r>
       <r>   -7.5613    1.0000 </r>
       <r>   -7.4693    1.0000 </r>
       <r>   -7.4271    1.0000 </r>
       <r>   -7.3745    1.0000 </r>
       <r>   -7.2678    1.0000 </r>
       <r>   -7.1073    1.0000 </r>
       <r>   -7.0541    1.0000 </r>
       <r>   -6.9687    1.0000 </r>
       <r>   -6.9443    1.0000 </r>
       <r>   -6.8913    1.0000 </r>
       <r>   -6.7899    1.0000 </r>
       <r>   -6.7059    1.0000 </r>
       <r>   -6.6479    1.0000 </r>
       <r>   -6.5704    1.0000 </r>
       <r>   -6.5017    1.0000 </r>
       <r>   -6.3931    1.0000 </r>
       <r>   -6.3607    1.0000 </r>
       <r>   -6.2647    1.0000 </r>
       <r>   -6.1979    1.0000 </r>
       <r>   -6.1227    1.0000 </r>
       <r>   -6.0778    1.0000 </r>
       <r>   -5.9847    1.0000 </r>
       <r>   -5.9030    1.0000 </r>
       <r>   -5.8704    1.0000 </r>
       <r>   -5.7789    1.0000 </r>
       <r>   -5.6646    1.0000 </r>
       <r>   -5.6144    1.0000 </r>
       <r>   -5.5279    1.0000 </r>
       <r>   -5.4447    1.0000 </r>
       <r>   -5.2716    1.0000 </r>
       <r>   -5.2439    1.0000 </r>
       <r>   -5.1258    1.0000 </r>
       <r>   -5.0263    1.0000 </r>
       <r>   -4.8513    1.0000 </r>
       <r>   -4.6510    1.0000 </r>
       <r>   -4.4930    1.0000 </r>
       <r>   -4.4239    1.0000 </r>
       <r>   -4.3191    1.0000 </r>
       <r>   -4.2165    1.0000 </r>
       <r>   -4.1867    1.0000 </r>
       <r>   -4.0243    1.0000 </r>
       <r>   -3.7525    1.0000 </r>
       <r>   -3.5434    0.9959 </r>
       <r>   -3.4211    0.9623 </r>
       <r>   -3.0639    0.2272 </r>
       <r>   -2.9833    0.0937 </r>
       <r>   -2.8483    0.0115 </r>
       <r>   -2.7368    0.0011 </r>
       <r>   -2.6648    0.0002 </r>
       <r>   -2.5746    0.0000 </r>
       <r>   -2.5360    0.0000 </r>
       <r>   -2.4793    0.0000 </r>
       <r>   -2.1646    0.0000 </r>
       <r>   -2.0533    0.0000 </r>
       <r>   -1.9831    0.0000 </r>
       <r>   -1.8761    0.0000 </r>
       <r>   -1.5961    0.0000 </r>
       <r>   -1.3542    0.0000 </r>
       <r>   -1.3363    0.0000 </r>
       <r>   -1.2861    0.0000 </r>
       <r>   -1.1768    0.0000 </r>
       <r>   -1.0586    0.0000 </r>
       <r>   -0.9940    0.0000 </r>
       <r>   -0.9575    0.0000 </r>
       <r>   -0.8852    0.0000 </r>
       <r>   -0.7843    0.0000 </r>
       <r>   -0.6875    0.0000 </r>
       <r>   -0.6359    0.0000 </r>
       <r>   -0.6070    0.0000 </r>
       <r>   -0.4278    0.0000 </r>
       <r>   -0.3104    0.0000 </r>
       <r>   -0.1979    0.0000 </r>
       <r>   -0.1272    0.0000 </r>
       <r>    0.0017    0.0000 </r>
       <r>    0.1464    0.0000 </r>
       <r>    0.3404    0.0000 </r>
       <r>    0.4890    0.0000 </r>
       <r>    0.8129    0.0000 </r>
       <r>    0.8804    0.0000 </r>
       <r>    1.1868    0.0000 </r>
       <r>    1.3435    0.0000 </r>
       <r>    1.4741    0.0000 </r>
       <r>    2.1039    0.0000 </r>
       <r>    2.2582    0.0000 </r>
       <r>    2.5668    0.0000 </r>
      </set>
      <set comment="kpoint 33">
       <r>  -17.5161    1.0000 </r>
       <r>  -17.2569    1.0000 </r>
       <r>  -16.9105    1.0000 </r>
       <r>  -16.5690    1.0000 </r>
       <r>  -16.4860    1.0000 </r>
       <r>  -16.4413    1.0000 </r>
       <r>  -16.2493    1.0000 </r>
       <r>  -16.1814    1.0000 </r>
       <r>  -16.1326    1.0000 </r>
       <r>  -16.0528    1.0000 </r>
       <r>  -15.9334    1.0000 </r>
       <r>  -15.8118    1.0000 </r>
       <r>  -15.7492    1.0000 </r>
       <r>  -15.7108    1.0000 </r>
       <r>  -15.6576    1.0000 </r>
       <r>  -15.5214    1.0000 </r>
       <r>  -15.4654    1.0000 </r>
       <r>  -15.3771    1.0000 </r>
       <r>   -9.7645    1.0000 </r>
       <r>   -9.4719    1.0000 </r>
       <r>   -9.3230    1.0000 </r>
       <r>   -8.9156    1.0000 </r>
       <r>   -8.8222    1.0000 </r>
       <r>   -8.6754    1.0000 </r>
       <r>   -8.6049    1.0000 </r>
       <r>   -8.4910    1.0000 </r>
       <r>   -8.4387    1.0000 </r>
       <r>   -8.3515    1.0000 </r>
       <r>   -8.2699    1.0000 </r>
       <r>   -8.1680    1.0000 </r>
       <r>   -8.0911    1.0000 </r>
       <r>   -8.0081    1.0000 </r>
       <r>   -7.9640    1.0000 </r>
       <r>   -7.8946    1.0000 </r>
       <r>   -7.7443    1.0000 </r>
       <r>   -7.6404    1.0000 </r>
       <r>   -7.5620    1.0000 </r>
       <r>   -7.5072    1.0000 </r>
       <r>   -7.3817    1.0000 </r>
       <r>   -7.1828    1.0000 </r>
       <r>   -7.0877    1.0000 </r>
       <r>   -7.0419    1.0000 </r>
       <r>   -6.9750    1.0000 </r>
       <r>   -6.9297    1.0000 </r>
       <r>   -6.8548    1.0000 </r>
       <r>   -6.7985    1.0000 </r>
       <r>   -6.7531    1.0000 </r>
       <r>   -6.6370    1.0000 </r>
       <r>   -6.5347    1.0000 </r>
       <r>   -6.4746    1.0000 </r>
       <r>   -6.4346    1.0000 </r>
       <r>   -6.3371    1.0000 </r>
       <r>   -6.2541    1.0000 </r>
       <r>   -6.1974    1.0000 </r>
       <r>   -6.1517    1.0000 </r>
       <r>   -6.0260    1.0000 </r>
       <r>   -6.0043    1.0000 </r>
       <r>   -5.9181    1.0000 </r>
       <r>   -5.8168    1.0000 </r>
       <r>   -5.8082    1.0000 </r>
       <r>   -5.7467    1.0000 </r>
       <r>   -5.7169    1.0000 </r>
       <r>   -5.6361    1.0000 </r>
       <r>   -5.4066    1.0000 </r>
       <r>   -5.2854    1.0000 </r>
       <r>   -5.1551    1.0000 </r>
       <r>   -5.1025    1.0000 </r>
       <r>   -4.8799    1.0000 </r>
       <r>   -4.8475    1.0000 </r>
       <r>   -4.6842    1.0000 </r>
       <r>   -4.5214    1.0000 </r>
       <r>   -4.4464    1.0000 </r>
       <r>   -4.2721    1.0000 </r>
       <r>   -4.2158    1.0000 </r>
       <r>   -4.1917    1.0000 </r>
       <r>   -3.9888    1.0000 </r>
       <r>   -3.7724    1.0000 </r>
       <r>   -3.5894    0.9985 </r>
       <r>   -3.4140    0.9580 </r>
       <r>   -3.0545    0.2078 </r>
       <r>   -2.9633    0.0722 </r>
       <r>   -2.9111    0.0337 </r>
       <r>   -2.7538    0.0016 </r>
       <r>   -2.6846    0.0003 </r>
       <r>   -2.6159    0.0000 </r>
       <r>   -2.5599    0.0000 </r>
       <r>   -2.4725    0.0000 </r>
       <r>   -2.1907    0.0000 </r>
       <r>   -2.0413    0.0000 </r>
       <r>   -2.0110    0.0000 </r>
       <r>   -1.8531    0.0000 </r>
       <r>   -1.5354    0.0000 </r>
       <r>   -1.3313    0.0000 </r>
       <r>   -1.2761    0.0000 </r>
       <r>   -1.2677    0.0000 </r>
       <r>   -1.1401    0.0000 </r>
       <r>   -1.0601    0.0000 </r>
       <r>   -0.9679    0.0000 </r>
       <r>   -0.9236    0.0000 </r>
       <r>   -0.8786    0.0000 </r>
       <r>   -0.8034    0.0000 </r>
       <r>   -0.7236    0.0000 </r>
       <r>   -0.6207    0.0000 </r>
       <r>   -0.5984    0.0000 </r>
       <r>   -0.4934    0.0000 </r>
       <r>   -0.3363    0.0000 </r>
       <r>   -0.2320    0.0000 </r>
       <r>   -0.0757    0.0000 </r>
       <r>    0.0331    0.0000 </r>
       <r>    0.1526    0.0000 </r>
       <r>    0.3261    0.0000 </r>
       <r>    0.4726    0.0000 </r>
       <r>    0.8336    0.0000 </r>
       <r>    0.8907    0.0000 </r>
       <r>    1.1622    0.0000 </r>
       <r>    1.3404    0.0000 </r>
       <r>    1.5127    0.0000 </r>
       <r>    2.1413    0.0000 </r>
       <r>    2.2908    0.0000 </r>
       <r>    2.4098    0.0000 </r>
      </set>
      <set comment="kpoint 34">
       <r>  -17.4887    1.0000 </r>
       <r>  -17.3257    1.0000 </r>
       <r>  -16.7297    1.0000 </r>
       <r>  -16.6805    1.0000 </r>
       <r>  -16.5355    1.0000 </r>
       <r>  -16.4816    1.0000 </r>
       <r>  -16.2333    1.0000 </r>
       <r>  -16.1721    1.0000 </r>
       <r>  -16.1181    1.0000 </r>
       <r>  -16.0698    1.0000 </r>
       <r>  -15.8607    1.0000 </r>
       <r>  -15.8246    1.0000 </r>
       <r>  -15.7616    1.0000 </r>
       <r>  -15.6996    1.0000 </r>
       <r>  -15.6689    1.0000 </r>
       <r>  -15.4997    1.0000 </r>
       <r>  -15.4726    1.0000 </r>
       <r>  -15.3990    1.0000 </r>
       <r>   -9.8089    1.0000 </r>
       <r>   -9.4197    1.0000 </r>
       <r>   -9.1338    1.0000 </r>
       <r>   -9.0687    1.0000 </r>
       <r>   -8.8517    1.0000 </r>
       <r>   -8.7466    1.0000 </r>
       <r>   -8.6720    1.0000 </r>
       <r>   -8.5441    1.0000 </r>
       <r>   -8.4522    1.0000 </r>
       <r>   -8.3636    1.0000 </r>
       <r>   -8.2111    1.0000 </r>
       <r>   -8.1646    1.0000 </r>
       <r>   -8.0531    1.0000 </r>
       <r>   -7.9518    1.0000 </r>
       <r>   -7.8639    1.0000 </r>
       <r>   -7.7956    1.0000 </r>
       <r>   -7.7535    1.0000 </r>
       <r>   -7.6801    1.0000 </r>
       <r>   -7.6210    1.0000 </r>
       <r>   -7.5312    1.0000 </r>
       <r>   -7.4043    1.0000 </r>
       <r>   -7.2712    1.0000 </r>
       <r>   -7.0651    1.0000 </r>
       <r>   -7.0108    1.0000 </r>
       <r>   -6.9331    1.0000 </r>
       <r>   -6.8912    1.0000 </r>
       <r>   -6.8532    1.0000 </r>
       <r>   -6.7683    1.0000 </r>
       <r>   -6.6675    1.0000 </r>
       <r>   -6.6138    1.0000 </r>
       <r>   -6.5548    1.0000 </r>
       <r>   -6.5264    1.0000 </r>
       <r>   -6.4614    1.0000 </r>
       <r>   -6.3959    1.0000 </r>
       <r>   -6.2588    1.0000 </r>
       <r>   -6.2065    1.0000 </r>
       <r>   -6.1078    1.0000 </r>
       <r>   -6.0293    1.0000 </r>
       <r>   -5.9944    1.0000 </r>
       <r>   -5.9772    1.0000 </r>
       <r>   -5.8531    1.0000 </r>
       <r>   -5.7919    1.0000 </r>
       <r>   -5.7797    1.0000 </r>
       <r>   -5.7186    1.0000 </r>
       <r>   -5.6810    1.0000 </r>
       <r>   -5.4474    1.0000 </r>
       <r>   -5.3663    1.0000 </r>
       <r>   -5.0067    1.0000 </r>
       <r>   -4.9973    1.0000 </r>
       <r>   -4.9058    1.0000 </r>
       <r>   -4.8147    1.0000 </r>
       <r>   -4.6584    1.0000 </r>
       <r>   -4.5949    1.0000 </r>
       <r>   -4.3368    1.0000 </r>
       <r>   -4.3227    1.0000 </r>
       <r>   -4.2227    1.0000 </r>
       <r>   -4.1853    1.0000 </r>
       <r>   -3.9864    1.0000 </r>
       <r>   -3.7954    1.0000 </r>
       <r>   -3.6365    0.9995 </r>
       <r>   -3.3855    0.9365 </r>
       <r>   -3.0807    0.2646 </r>
       <r>   -2.9532    0.0629 </r>
       <r>   -2.9291    0.0445 </r>
       <r>   -2.7527    0.0016 </r>
       <r>   -2.7002    0.0005 </r>
       <r>   -2.6261    0.0001 </r>
       <r>   -2.5651    0.0000 </r>
       <r>   -2.4679    0.0000 </r>
       <r>   -2.1971    0.0000 </r>
       <r>   -2.0371    0.0000 </r>
       <r>   -2.0245    0.0000 </r>
       <r>   -1.8410    0.0000 </r>
       <r>   -1.5130    0.0000 </r>
       <r>   -1.3314    0.0000 </r>
       <r>   -1.2553    0.0000 </r>
       <r>   -1.2280    0.0000 </r>
       <r>   -1.1333    0.0000 </r>
       <r>   -1.0452    0.0000 </r>
       <r>   -0.9817    0.0000 </r>
       <r>   -0.9161    0.0000 </r>
       <r>   -0.8566    0.0000 </r>
       <r>   -0.7623    0.0000 </r>
       <r>   -0.7167    0.0000 </r>
       <r>   -0.6706    0.0000 </r>
       <r>   -0.6442    0.0000 </r>
       <r>   -0.5579    0.0000 </r>
       <r>   -0.2935    0.0000 </r>
       <r>   -0.2492    0.0000 </r>
       <r>   -0.0729    0.0000 </r>
       <r>    0.0187    0.0000 </r>
       <r>    0.2024    0.0000 </r>
       <r>    0.3266    0.0000 </r>
       <r>    0.4644    0.0000 </r>
       <r>    0.8174    0.0000 </r>
       <r>    0.9016    0.0000 </r>
       <r>    1.1644    0.0000 </r>
       <r>    1.3573    0.0000 </r>
       <r>    1.5358    0.0000 </r>
       <r>    2.2353    0.0000 </r>
       <r>    2.2506    0.0000 </r>
       <r>    2.3763    0.0000 </r>
      </set>
     </set>
    </set>
   </array>
  </eigenvalues>
  <separator name="orbital magnetization" >
   <v name="MAGDIPOLOUT">      0.00000000      0.00000000      0.00000000</v>
  </separator>
 </calculation>
 <structure name="finalpos" >
  <crystal>
   <varray name="basis" >
    <v>       8.32004391       4.80240461       0.00000000 </v>
    <v>      -8.34564076       4.84669802       0.00000000 </v>
    <v>       0.00000000       0.00000000      30.00000000 </v>
   </varray>
   <i name="volume">   2412.11651997 </i>
   <varray name="rec_basis" >
    <v>       0.06027940       0.10379649       0.00000000 </v>
    <v>      -0.05972852       0.10347813       0.00000000 </v>
    <v>       0.00000000       0.00000000       0.03333333 </v>
   </varray>
  </crystal>
  <varray name="positions" >
   <v>       0.67602559       0.00064409       0.00117196 </v>
   <v>       0.32289584      -0.00238542       0.00126097 </v>
   <v>      -0.01762824      -0.03532471      -0.00147835 </v>
   <v>      -0.01547449       0.65206640      -0.00042016 </v>
   <v>       0.68187509       0.36251363       0.00088919 </v>
   <v>       0.66454843       0.65184695      -0.00044127 </v>
   <v>       0.98615719       0.35373287       0.00009039 </v>
   <v>       0.36782977       0.35437666       0.00010928 </v>
   <v>       0.32601107       0.64634660      -0.00063974 </v>
   <v>       0.11003623       0.21993372       0.95955428 </v>
   <v>       0.21686045       0.10798860       0.04703989 </v>
   <v>       0.10994383       0.55764036       0.94546872 </v>
   <v>       0.21940129       0.43845390       0.05178527 </v>
   <v>       0.11205728       0.88967810       0.94883820 </v>
   <v>       0.22499369       0.77918801       0.04828138 </v>
   <v>       0.45003140       0.22364209       0.94970800 </v>
   <v>       0.55564813       0.11193942       0.04599789 </v>
   <v>       0.44728972       0.55697073       0.94485242 </v>
   <v>       0.56022919       0.44835158       0.05737247 </v>
   <v>       0.44557914       0.89109751       0.95248938 </v>
   <v>       0.55498700       0.78045715       0.04852620 </v>
   <v>       0.77365326       0.22385868       0.94952602 </v>
   <v>       0.89117331       0.10820712       0.04722293 </v>
   <v>       0.77941116       0.55993384       0.94344582 </v>
   <v>       0.88841812       0.44856112       0.05736709 </v>
   <v>       0.77734720       0.89008905       0.94894495 </v>
   <v>       0.88891379       0.77840643       0.05303671 </v>
  </varray>
 </structure>
</modeling>
