unknown system                          
           1
     8.852319    5.102974    0.000000
    -8.856283    5.109793    0.000000
     0.000000    0.000000   30.000000
   V    Mo   W    S 
   3   3   3  18
Direct configuration=     1
   0.66666669  0.00000000  0.00000000
   0.33333334  0.00000000  0.00000000
   0.00000000  0.00000000  0.00000000
   0.00000000  0.66666669  0.00000000
   0.66666669  0.33333334  0.00000000
   0.66666669  0.66666669  0.00000000
   1.00000000  0.33333334  0.00000000
   0.33333334  0.33333334  0.00000000
   0.33333334  0.66666669  0.00000000
   0.11068511  0.22244981  0.95539999
   0.22244981  0.11068511  0.04460000
   0.11068511  0.55578315  0.95539999
   0.22244981  0.44401845  0.04460000
   0.11068511  0.88911647  0.95539999
   0.22244981  0.77735180  0.04460000
   0.44401845  0.22244981  0.95539999
   0.55578315  0.11068511  0.04460000
   0.44401845  0.55578315  0.95539999
   0.55578315  0.44401845  0.04460000
   0.44401845  0.88911647  0.95539999
   0.55578315  0.77735180  0.04460000
   0.77735180  0.22244981  0.95539999
   0.88911647  0.11068511  0.04460000
   0.77735180  0.55578315  0.95539999
   0.88911647  0.44401845  0.04460000
   0.77735180  0.88911647  0.95539999
   0.88911647  0.77735180  0.04460000
unknown system                          
           1
     8.664424    4.997036    0.000000
    -8.667806    5.002851    0.000000
     0.000000    0.000000   30.000000
   V    Mo   W    S 
   3   3   3  18
Direct configuration=     2
   0.66671981  0.00009842  0.00004619
   0.33338026  0.00009640  0.00004714
  -0.00116260 -0.00243869 -0.00008818
  -0.00269326  0.66552822 -0.00021338
   0.66786675  0.33584849  0.00027502
   0.66816675  0.66539538 -0.00022282
   0.99815816  0.33436343  0.00019037
   0.33614874  0.33424272  0.00018293
   0.33350903  0.66713544 -0.00014681
   0.10928421  0.21844735  0.95203882
   0.22061627  0.10753759  0.04687016
   0.11158576  0.55523037  0.95071188
   0.22196172  0.44413265  0.04930639
   0.11293702  0.89319664  0.95312830
   0.22474965  0.78169835  0.04800404
   0.44166891  0.21800781  0.95193781
   0.55348479  0.10659109  0.04681563
   0.44361436  0.55521314  0.95070684
   0.55436718  0.44364916  0.04930783
   0.44583296  0.89224075  0.95309052
   0.55670366  0.78167713  0.04799071
   0.77641526  0.21802614  0.95195079
   0.88727484  0.10753041  0.04686509
   0.77778755  0.55568225  0.95066941
   0.88915913  0.44366933  0.04931099
   0.77966384  0.89320269  0.95313368
   0.89101370  0.78221180  0.04809057
unknown system                          
           1
     8.482789    4.897528    0.000000
    -8.486005    4.903060    0.000000
     0.000000    0.000000   30.000000
   V    Mo   W    S 
   3   3   3  18
Direct configuration=     3
   0.66671865  0.00010542  0.00009605
   0.33339069  0.00009931  0.00009692
  -0.00151930 -0.00314782 -0.00015171
  -0.00376232  0.66463919 -0.00023184
   0.66848534  0.33708516  0.00028815
   0.66835356  0.66451477 -0.00024324
   0.99782550  0.33505043  0.00015014
   0.33717720  0.33493079  0.00013901
   0.33334782  0.66683912 -0.00009601
   0.10935766  0.21864288  0.95225575
   0.22068695  0.10770416  0.04679463
   0.11166908  0.55512910  0.95068845
   0.22196410  0.44409627  0.04924138
   0.11297945  0.89326913  0.95315995
   0.22490808  0.78167120  0.04790650
   0.44150890  0.21803308  0.95197787
   0.55342823  0.10652420  0.04673855
   0.44339790  0.55511275  0.95068814
   0.55417677  0.44355068  0.04947316
   0.44577875  0.89208875  0.95311900
   0.55655625  0.78165339  0.04789301
   0.77656102  0.21804921  0.95199070
   0.88732846  0.10770153  0.04678618
   0.77777532  0.55566774  0.95044216
   0.88927763  0.44356993  0.04947228
   0.77973755  0.89327293  0.95316811
   0.89110520  0.78236116  0.04815660
unknown system                          
           1
     8.263434    4.770436    0.000000
    -8.277514    4.794787    0.000000
     0.000000    0.000000   30.000000
   V    Mo   W    S 
   3   3   3  18
Direct configuration=     4
   0.66666677  0.00007810  0.00026575
   0.33342732  0.00007133  0.00026642
  -0.00280435 -0.00566780 -0.00034427
  -0.00792490  0.66047231 -0.00020269
   0.67112022  0.34238473  0.00023365
   0.66833228  0.66036861 -0.00021018
   0.99715470  0.33833623 -0.00007294
   0.34120251  0.33825463 -0.00008624
   0.33231123  0.66484266  0.00014337
   0.10898403  0.21805512  0.95170613
   0.22014384  0.10687725  0.04782607
   0.11160240  0.55526162  0.94895542
   0.22190440  0.44383015  0.05062448
   0.11349764  0.89409376  0.95198840
   0.22517190  0.78257824  0.04894112
   0.44121348  0.21704646  0.95068984
   0.55298654  0.10582150  0.04771089
   0.44351250  0.55525549  0.94897186
   0.55446301  0.44376153  0.05177266
   0.44635762  0.89309284  0.95187021
   0.55732904  0.78255129  0.04892374
   0.77575843  0.21706448  0.95070080
   0.88689906  0.10688881  0.04781380
   0.77768294  0.55551009  0.94793903
   0.88926901  0.44376466  0.05176234
   0.78021933  0.89407338  0.95200391
   0.89173347  0.78354699  0.04980634
unknown system                          
           1
     8.263751    4.771188    0.000000
    -8.291832    4.819797    0.000000
     0.000000    0.000000   30.000000
   V    Mo   W    S 
   3   3   3  18
Direct configuration=     5
   0.66666170  0.00006660  0.00049217
   0.33341921  0.00003679  0.00049278
  -0.00554891 -0.01108982 -0.00058845
  -0.01546768  0.65212177 -0.00008302
   0.67611521  0.35245153  0.00005172
   0.66755122  0.65204256 -0.00006958
   0.99542467  0.34532155 -0.00037010
   0.34997813  0.34526290 -0.00035774
   0.32998357  0.66037001  0.00048011
   0.10899881  0.21810189  0.95146525
   0.21984094  0.10666218  0.04910952
   0.11136953  0.55637827  0.94645712
   0.22141872  0.44280651  0.05243410
   0.11347355  0.89367238  0.95032108
   0.22421690  0.78287937  0.05014662
   0.44216037  0.21675057  0.94906913
   0.55326828  0.10663274  0.04904069
   0.44486452  0.55638056  0.94647993
   0.55548257  0.44415562  0.05516989
   0.44682896  0.89379856  0.95025698
   0.55859651  0.78283515  0.05011722
   0.77452764  0.21678512  0.94909291
   0.88675395  0.10667134  0.04910607
   0.77772350  0.55552315  0.94417402
   0.88862332  0.44415941  0.05515464
   0.78009354  0.89364513  0.95033228
   0.89185570  0.78379262  0.05202453
unknown system                          
           1
     8.258818    4.768301    0.000000
    -8.287188    4.817409    0.000000
     0.000000    0.000000   30.000000
   V    Mo   W    S 
   3   3   3  18
Direct configuration=     6
   0.66687668  0.00020563  0.00057718
   0.33334254  0.00016845  0.00057196
  -0.00686236 -0.01370784 -0.00069016
  -0.01508964  0.65198233 -0.00024504
   0.67589890  0.35203450  0.00014942
   0.66710079  0.65191531 -0.00024659
   0.99469931  0.34691003 -0.00021893
   0.35224462  0.34683248 -0.00022548
   0.32928443  0.65902088  0.00040364
   0.10957990  0.21922365  0.95212537
   0.22016811  0.10752084  0.04886733
   0.11131787  0.55713526  0.94627361
   0.22100370  0.44200634  0.05238921
   0.11292505  0.89249770  0.95038066
   0.22324664  0.78189997  0.04993613
   0.44335073  0.21789797  0.94913972
   0.55393362  0.10793860  0.04889434
   0.44568713  0.55713586  0.94631166
   0.55586702  0.44395451  0.05543831
   0.44654996  0.89324315  0.95040380
   0.55855893  0.78185314  0.04990165
   0.77447996  0.21792382  0.94915695
   0.88729895  0.10753144  0.04886494
   0.77795771  0.55600156  0.94396199
   0.88803963  0.44395292  0.05541308
   0.77945247  0.89246531  0.95038953
   0.89130182  0.78267064  0.05207562
unknown system                          
           1
     8.264850    4.771786    0.000000
    -8.297569    4.828426    0.000000
     0.000000    0.000000   30.000000
   V    Mo   W    S 
   3   3   3  18
Direct configuration=     7
   0.66721279  0.00055356  0.00068863
   0.33334820  0.00049995  0.00067997
  -0.00849218 -0.01696178 -0.00075095
  -0.01574616  0.65089083 -0.00024445
   0.67638651  0.35302588  0.00007753
   0.66671915  0.65081964 -0.00023927
   0.99374684  0.34899626 -0.00023609
   0.35526746  0.34890695 -0.00023546
   0.32837353  0.65730050  0.00040876
   0.10992806  0.21990504  0.95283605
   0.22031706  0.10810795  0.04867323
   0.11127530  0.55747648  0.94599628
   0.22075794  0.44152943  0.05240946
   0.11268464  0.89179199  0.95029017
   0.22281529  0.78141604  0.04977897
   0.44405655  0.21858756  0.94911385
   0.55425712  0.10859127  0.04885812
   0.44609123  0.55749544  0.94604030
   0.55638234  0.44420162  0.05581604
   0.44638345  0.89289364  0.95049886
   0.55848544  0.78136148  0.04973407
   0.77447477  0.21861263  0.94913113
   0.88773212  0.10812059  0.04867366
   0.77800775  0.55607827  0.94370474
   0.88775189  0.44419106  0.05579783
   0.77899665  0.89175733  0.95029751
   0.89100070  0.78206486  0.05220094
unknown system                          
           1
     8.265733    4.773017    0.000000
    -8.305963    4.842674    0.000000
     0.000000    0.000000   30.000000
   V    Mo   W    S 
   3   3   3  18
Direct configuration=     8
   0.66777682  0.00118608  0.00083457
   0.33345496  0.00108931  0.00081821
  -0.01046175 -0.02079557 -0.00088150
  -0.01610068  0.65019219 -0.00029270
   0.67665764  0.35354415  0.00010281
   0.66644206  0.65013481 -0.00028570
   0.99255650  0.35081998 -0.00021610
   0.35825798  0.35077196 -0.00021410
   0.32744896  0.65554368  0.00039037
   0.11026835  0.22057073  0.95379236
   0.22039258  0.10872873  0.04836717
   0.11129177  0.55790037  0.94574686
   0.22044526  0.44091931  0.05233695
   0.11245752  0.89109952  0.95024701
   0.22250956  0.78091851  0.04954112
   0.44478245  0.21937291  0.94908671
   0.55454127  0.10911044  0.04876271
   0.44651905  0.55793928  0.94580339
   0.55697934  0.44444199  0.05614774
   0.44624027  0.89256055  0.95070002
   0.55828363  0.78088815  0.04947282
   0.77452555  0.21936397  0.94910731
   0.88824708  0.10872349  0.04836475
   0.77812503  0.55628352  0.94353542
   0.88737757  0.44442307  0.05613128
   0.77852213  0.89108208  0.95026061
   0.89067355  0.78140126  0.05233981
unknown system                          
           1
     8.279179    4.780433    0.000000
    -8.318843    4.849105    0.000000
     0.000000    0.000000   30.000000
   V    Mo   W    S 
   3   3   3  18
Direct configuration=     9
   0.66932104  0.00327886  0.00114128
   0.33393712  0.00304266  0.00111210
  -0.01429338 -0.02854113 -0.00123530
  -0.01692987  0.64898582 -0.00036493
   0.67707081  0.35441843  0.00018643
   0.66623496  0.64887863 -0.00035918
   0.99006431  0.35384263 -0.00021473
   0.36375771  0.35375408 -0.00021739
   0.32543621  0.65194490  0.00032900
   0.11070011  0.22143612  0.95597997
   0.22027397  0.10970081  0.04765383
   0.11134544  0.55857710  0.94535521
   0.21982427  0.43974148  0.05205908
   0.11220701  0.88995313  0.95018047
   0.22241608  0.78027623  0.04894401
   0.44601018  0.22081293  0.94901082
   0.55483716  0.10971294  0.04860788
   0.44719297  0.55867582  0.94544242
   0.55829938  0.44513076  0.05674600
   0.44601242  0.89209866  0.95123865
   0.55768505  0.78020017  0.04884554
   0.77472438  0.22079137  0.94900688
   0.88937194  0.10972285  0.04767391
   0.77831755  0.55662654  0.94330540
   0.88673454  0.44509398  0.05673431
   0.77760168  0.88990691  0.95018175
   0.89006141  0.78015178  0.05265650
unknown system                          
           1
     8.277830    4.779820    0.000000
    -8.318262    4.849826    0.000000
     0.000000    0.000000   30.000000
   V    Mo   W    S 
   3   3   3  18
Direct configuration=    10
   0.66982443  0.00413403  0.00114368
   0.33427604  0.00382683  0.00110640
  -0.01423181 -0.02839568 -0.00127799
  -0.01706692  0.64907069 -0.00033503
   0.67696613  0.35420787  0.00023654
   0.66650759  0.64893974 -0.00032945
   0.98998555  0.35335101 -0.00019019
   0.36335249  0.35329202 -0.00019223
   0.32520774  0.65163260  0.00028564
   0.11055209  0.22113866  0.95618607
   0.22004526  0.10959454  0.04763069
   0.11131999  0.55857917  0.94531505
   0.21975422  0.43960163  0.05206211
   0.11229194  0.88982755  0.95013457
   0.22259754  0.78041882  0.04887026
   0.44608888  0.22083392  0.94891046
   0.55478828  0.10965085  0.04869314
   0.44722572  0.55868835  0.94542168
   0.55845677  0.44527095  0.05678563
   0.44605555  0.89220166  0.95132415
   0.55762826  0.78032673  0.04875044
   0.77468567  0.22082395  0.94890570
   0.88949768  0.10961859  0.04764866
   0.77831214  0.55658976  0.94327515
   0.88670698  0.44523401  0.05677259
   0.77741120  0.88977571  0.95014732
   0.88997503  0.77998050  0.05271886
unknown system                          
           1
     8.281519    4.782114    0.000000
    -8.322205    4.852561    0.000000
     0.000000    0.000000   30.000000
   V    Mo   W    S 
   3   3   3  18
Direct configuration=    11
   0.67068839  0.00554238  0.00119045
   0.33477583  0.00511404  0.00114141
  -0.01505549 -0.03005944 -0.00140854
  -0.01748323  0.64876816 -0.00033716
   0.67694812  0.35419325  0.00026680
   0.66672961  0.64859802 -0.00032971
   0.98929008  0.35375400 -0.00017698
   0.36444760  0.35368921 -0.00017967
   0.32448891  0.65046773  0.00024700
   0.11051222  0.22105651  0.95679358
   0.21985074  0.10969055  0.04746515
   0.11124241  0.55861538  0.94527974
   0.21960272  0.43931250  0.05197794
   0.11226609  0.88948802  0.95014813
   0.22272206  0.78038555  0.04862367
   0.44639607  0.22120464  0.94886006
   0.55482193  0.10973370  0.04872032
   0.44735315  0.55875532  0.94540980
   0.55875384  0.44547430  0.05686871
   0.44604323  0.89217864  0.95155231
   0.55744717  0.78027964  0.04847160
   0.77474817  0.22118739  0.94884655
   0.88979614  0.10971931  0.04748850
   0.77832421  0.55657784  0.94328392
   0.88660614  0.44543379  0.05685539
   0.77709551  0.88942655  0.95016749
   0.88980283  0.77962747  0.05277346
unknown system                          
           1
     8.281934    4.782424    0.000000
    -8.322816    4.853211    0.000000
     0.000000    0.000000   30.000000
   V    Mo   W    S 
   3   3   3  18
Direct configuration=    12
   0.67142702  0.00685025  0.00120274
   0.33529729  0.00629536  0.00114253
  -0.01545853 -0.03087417 -0.00149777
  -0.01776423  0.64862195 -0.00032877
   0.67682184  0.35395891  0.00029670
   0.66696806  0.64841348 -0.00031946
   0.98893046  0.35382177 -0.00015894
   0.36487600  0.35375298 -0.00016223
   0.32394338  0.64964048  0.00022076
   0.11043197  0.22089406  0.95713612
   0.21967303  0.10968374  0.04740271
   0.11115182  0.55858596  0.94525343
   0.21949386  0.43910546  0.05195768
   0.11227182  0.88925874  0.95015852
   0.22283629  0.78043573  0.04844366
   0.44656407  0.22139919  0.94878710
   0.55482642  0.10975077  0.04878989
   0.44742575  0.55875623  0.94540761
   0.55892213  0.44558461  0.05692133
   0.44605943  0.89220437  0.95171053
   0.55736478  0.78032358  0.04825642
   0.77477205  0.22136961  0.94876674
   0.88997092  0.10971543  0.04743050
   0.77831369  0.55652138  0.94327647
   0.88654165  0.44554196  0.05690727
   0.77685537  0.88919113  0.95018726
   0.88969813  0.77941150  0.05281110
unknown system                          
           1
     8.276100    4.778918    0.000000
    -8.317837    4.851184    0.000000
     0.000000    0.000000   30.000000
   V    Mo   W    S 
   3   3   3  18
Direct configuration=    13
   0.67175128  0.00746242  0.00120492
   0.33556136  0.00684197  0.00113925
  -0.01559910 -0.03115669 -0.00153262
  -0.01788814  0.64853628 -0.00032468
   0.67675345  0.35383153  0.00030875
   0.66705797  0.64830847 -0.00031451
   0.98882124  0.35384678 -0.00014987
   0.36501215  0.35377747 -0.00015348
   0.32369345  0.64927283  0.00021080
   0.11040538  0.22083831  0.95725967
   0.21961310  0.10968391  0.04738524
   0.11111151  0.55856622  0.94524240
   0.21944544  0.43901403  0.05195635
   0.11227785  0.88915796  0.95016592
   0.22288195  0.78046096  0.04836299
   0.44661942  0.22147325  0.94875335
   0.55482543  0.10975438  0.04882925
   0.44745217  0.55875098  0.94540896
   0.55898460  0.44561936  0.05694069
   0.44606145  0.89220601  0.95177851
   0.55733473  0.78034569  0.04815794
   0.77479005  0.22143803  0.94872931
   0.89003369  0.10971776  0.04741576
   0.77830323  0.55648335  0.94327405
   0.88651058  0.44557598  0.05692641
   0.77674658  0.88908796  0.95019902
   0.88965363  0.77931926  0.05282554
unknown system                          
           1
     8.287866    4.786158    0.000000
    -8.329169    4.857680    0.000000
     0.000000    0.000000   30.000000
   V    Mo   W    S 
   3   3   3  18
Direct configuration=    14
   0.67141121  0.00680848  0.00121552
   0.33524258  0.00637775  0.00116580
  -0.01553591 -0.03119652 -0.00151823
  -0.01781746  0.64849434 -0.00032782
   0.67690236  0.35419612  0.00031169
   0.66690280  0.64827881 -0.00032037
   0.98888764  0.35407944 -0.00015774
   0.36518094  0.35389599 -0.00016746
   0.32380924  0.64940318  0.00022211
   0.11044137  0.22092272  0.95732107
   0.21963567  0.10968533  0.04734812
   0.11116459  0.55864415  0.94524773
   0.21947552  0.43908440  0.05190685
   0.11230729  0.88914499  0.95012910
   0.22288843  0.78040002  0.04838311
   0.44668483  0.22147541  0.94877849
   0.55480332  0.10981978  0.04877877
   0.44747161  0.55881499  0.94540664
   0.55905650  0.44570183  0.05695228
   0.44599693  0.89218193  0.95174842
   0.55723733  0.78019409  0.04822590
   0.77475339  0.22151113  0.94874692
   0.89009843  0.10976824  0.04738829
   0.77833604  0.55657116  0.94327680
   0.88652826  0.44566000  0.05693983
   0.77673774  0.88904726  0.95014642
   0.88961382  0.77924944  0.05285166
unknown system                          
           1
     8.289656    4.787195    0.000000
    -8.331078    4.858922    0.000000
     0.000000    0.000000   30.000000
   V    Mo   W    S 
   3   3   3  18
Direct configuration=    15
   0.67306089  0.00990177  0.00121566
   0.33660763  0.00897625  0.00112474
  -0.01618945 -0.03228105 -0.00166813
  -0.01835686  0.64825469 -0.00030828
   0.67646172  0.35325589  0.00035526
   0.66744331  0.64795357 -0.00029414
   0.98835897  0.35387646 -0.00011429
   0.36550997  0.35384834 -0.00011663
   0.32273743  0.64786648  0.00016976
   0.11029601  0.22060703  0.95772361
   0.21937317  0.10969455  0.04732322
   0.11095071  0.55848494  0.94518862
   0.21924974  0.43863933  0.05196539
   0.11228481  0.88878448  0.95019808
   0.22304316  0.78056494  0.04806369
   0.44682213  0.22175840  0.94861680
   0.55483685  0.10975442  0.04898535
   0.44755549  0.55872731  0.94540166
   0.55921456  0.44573381  0.05702244
   0.44609427  0.89222194  0.95203725
   0.55725494  0.78047280  0.04777770
   0.77485920  0.22167565  0.94858228
   0.89026172  0.10971784  0.04736014
   0.77826031  0.55632834  0.94325248
   0.88638041  0.44568683  0.05700680
   0.77634510  0.88871575  0.95025243
   0.88949828  0.77899368  0.05287801
unknown system                          
           1
     8.276929    4.780513    0.000000
    -8.319368    4.854011    0.000000
     0.000000    0.000000   30.000000
   V    Mo   W    S 
   3   3   3  18
Direct configuration=    16
   0.67353803  0.01090497  0.00120894
   0.33707867  0.00999964  0.00111666
  -0.01637912 -0.03279685 -0.00172629
  -0.01853867  0.64815182 -0.00029972
   0.67628293  0.35296819  0.00037671
   0.66762951  0.64782812 -0.00028427
   0.98821074  0.35393136 -0.00009402
   0.36571871  0.35380461 -0.00010326
   0.32229224  0.64724539  0.00013360
   0.11023359  0.22048543  0.95793074
   0.21927752  0.10966312  0.04729490
   0.11089242  0.55846321  0.94515469
   0.21915580  0.43846899  0.05198786
   0.11233522  0.88863137  0.95021636
   0.22315041  0.78066762  0.04791556
   0.44690557  0.22185353  0.94855682
   0.55478594  0.10974785  0.04905145
   0.44759735  0.55872899  0.94539725
   0.55932680  0.44579837  0.05706878
   0.44606748  0.89223234  0.95216183
   0.55720566  0.78050465  0.04761636
   0.77489603  0.22181479  0.94851226
   0.89039081  0.10972654  0.04734101
   0.77824482  0.55626648  0.94323764
   0.88632935  0.44575023  0.05705264
   0.77616298  0.88853475  0.95027297
   0.88942368  0.77883893  0.05290241
unknown system                          
           1
     8.266880    4.775218    0.000000
    -8.311251    4.852070    0.000000
     0.000000    0.000000   30.000000
   V    Mo   W    S 
   3   3   3  18
Direct configuration=    17
   0.67325686  0.01001397  0.00121443
   0.33644376  0.00874672  0.00111824
  -0.01629471 -0.03239611 -0.00166790
  -0.01837584  0.64826584 -0.00030670
   0.67649557  0.35328853  0.00034571
   0.66742999  0.64791280 -0.00029123
   0.98835047  0.35395685 -0.00013197
   0.36562173  0.35401148 -0.00012801
   0.32271284  0.64777750  0.00017857
   0.11031386  0.22062877  0.95773415
   0.21931973  0.10973406  0.04730868
   0.11097621  0.55845834  0.94521888
   0.21923784  0.43863440  0.05194556
   0.11212534  0.88880846  0.95021467
   0.22296355  0.78042192  0.04809666
   0.44684035  0.22185725  0.94863917
   0.55493789  0.10983124  0.04899761
   0.44752159  0.55872610  0.94540873
   0.55918701  0.44569570  0.05700426
   0.44613214  0.89217345  0.95201694
   0.55724669  0.78044507  0.04777946
   0.77485214  0.22166396  0.94857891
   0.89031872  0.10973441  0.04737469
   0.77824690  0.55630075  0.94325017
   0.88638661  0.44565942  0.05698991
   0.77642307  0.88876309  0.95026090
   0.88954414  0.77910047  0.05284939
unknown system                          
           1
     8.268114    4.775504    0.000000
    -8.310678    4.849220    0.000000
     0.000000    0.000000   30.000000
   V    Mo   W    S 
   3   3   3  18
Direct configuration=    18
   0.67173287  0.00643973  0.00123554
   0.33436666  0.00471493  0.00115568
  -0.01579015 -0.03105743 -0.00145515
  -0.01765549  0.64879421 -0.00032413
   0.67716855  0.35443496  0.00026798
   0.66677434  0.64841996 -0.00031824
   0.98875638  0.35395233 -0.00021814
   0.36524308  0.35430239 -0.00019424
   0.32422114  0.64979784  0.00026766
   0.11052404  0.22102658  0.95719400
   0.21946777  0.10986275  0.04735787
   0.11126590  0.55865189  0.94527168
   0.21944068  0.43903541  0.05189543
   0.11182038  0.88927229  0.95007854
   0.22253658  0.77991912  0.04867690
   0.44672543  0.22166659  0.94883500
   0.55518255  0.11002175  0.04877387
   0.44743050  0.55886915  0.94533382
   0.55893979  0.44556883  0.05694900
   0.44622251  0.89211071  0.95154981
   0.55735533  0.78022546  0.04840000
   0.77462633  0.22129277  0.94875150
   0.89017911  0.10979287  0.04746055
   0.77832966  0.55657493  0.94320647
   0.88655363  0.44556184  0.05693497
   0.77700609  0.88930476  0.95009674
   0.88979078  0.77965781  0.05281679
unknown system                          
           1
     8.296661    4.791191    0.000000
    -8.331965    4.852328    0.000000
     0.000000    0.000000   30.000000
   V    Mo   W    S 
   3   3   3  18
Direct configuration=    19
   0.67052352  0.00364760  0.00129012
   0.33260641  0.00146423  0.00123044
  -0.01553331 -0.03045962 -0.00133633
  -0.01705486  0.64928391 -0.00034495
   0.67780568  0.35556050  0.00023684
   0.66626321  0.64885133 -0.00035241
   0.98876876  0.35394905 -0.00028177
   0.36527358  0.35448960 -0.00025133
   0.32538807  0.65135497  0.00030250
   0.11066001  0.22128789  0.95701456
   0.21961181  0.10987739  0.04727874
   0.11145476  0.55887280  0.94531794
   0.21958629  0.43934695  0.05180736
   0.11171336  0.88952220  0.94995869
   0.22238157  0.77965737  0.04903619
   0.44676759  0.22151059  0.94903574
   0.55521294  0.11011419  0.04846497
   0.44745498  0.55902761  0.94529242
   0.55892195  0.44565433  0.05692489
   0.44622957  0.89210921  0.95131443
   0.55736321  0.78006889  0.04881343
   0.77441456  0.22116699  0.94891464
   0.89009709  0.10984800  0.04742902
   0.77846389  0.55693474  0.94321294
   0.88669918  0.44567989  0.05690824
   0.77729641  0.88954602  0.94996276
   0.88984423  0.77984782  0.05281982
unknown system                          
           1
     8.295598    4.790676    0.000000
    -8.330317    4.850798    0.000000
     0.000000    0.000000   30.000000
   V    Mo   W    S 
   3   3   3  18
Direct configuration=    20
   0.66994047  0.00131816  0.00140569
   0.32983582 -0.00223809  0.00132848
  -0.01629189 -0.03240389 -0.00138058
  -0.01647337  0.65014467 -0.00039737
   0.67912282  0.35786661  0.00042388
   0.66603294  0.64942142 -0.00039615
   0.98749374  0.35410175 -0.00025252
   0.36673007  0.35477886 -0.00023033
   0.32634900  0.65244331  0.00003260
   0.11066028  0.22129795  0.95789640
   0.21946908  0.10955713  0.04683095
   0.11145275  0.55921284  0.94540194
   0.21961371  0.43934208  0.05152786
   0.11224457  0.88950892  0.94971429
   0.22287319  0.77967770  0.04909381
   0.44755546  0.22157150  0.94933068
   0.55497093  0.11037843  0.04777398
   0.44766859  0.55924067  0.94530442
   0.55942448  0.44630805  0.05700184
   0.44608230  0.89218753  0.95159277
   0.55709866  0.78009358  0.04888658
   0.77394089  0.22169347  0.94910541
   0.89023297  0.10976993  0.04706253
   0.77888297  0.55784661  0.94327487
   0.88692659  0.44642059  0.05697756
   0.77692449  0.88943576  0.94979264
   0.88945293  0.77923890  0.05289766
unknown system                          
           1
     8.298786    4.792664    0.000000
    -8.333803    4.853306    0.000000
     0.000000    0.000000   30.000000
   V    Mo   W    S 
   3   3   3  18
Direct configuration=    21
   0.67019661  0.00116980  0.00146111
   0.32896396 -0.00312499  0.00135818
  -0.01646413 -0.03274240 -0.00140489
  -0.01627173  0.65037865 -0.00040351
   0.67946137  0.35840483  0.00040713
   0.66594889  0.64947557 -0.00041387
   0.98725820  0.35410593 -0.00028328
   0.36699835  0.35485559 -0.00026026
   0.32636212  0.65233231  0.00007970
   0.11063822  0.22124863  0.95812866
   0.21929410  0.10941549  0.04674994
   0.11133035  0.55912877  0.94542205
   0.21968165  0.43944556  0.05141391
   0.11223353  0.88949244  0.94962422
   0.22291945  0.77950643  0.04911958
   0.44783724  0.22179157  0.94943122
   0.55502305  0.11059611  0.04762042
   0.44771574  0.55915462  0.94530062
   0.55952949  0.44648547  0.05705728
   0.44611350  0.89218287  0.95157613
   0.55700113  0.78008688  0.04885693
   0.77388498  0.22191680  0.94915700
   0.89029047  0.10966327  0.04700314
   0.77895482  0.55801541  0.94329025
   0.88703536  0.44665496  0.05703261
   0.77689298  0.88944634  0.94974770
   0.88938476  0.77912753  0.05292794
unknown system                          
           1
     8.299334    4.793339    0.000000
    -8.334689    4.854569    0.000000
     0.000000    0.000000   30.000000
   V    Mo   W    S 
   3   3   3  18
Direct configuration=    22
   0.67089697  0.00225904  0.00147211
   0.32903608 -0.00253376  0.00133750
  -0.01665639 -0.03309224 -0.00145086
  -0.01632005  0.65037715 -0.00039190
   0.67942341  0.35826987  0.00043361
   0.66607488  0.64934126 -0.00040536
   0.98709633  0.35406704 -0.00026282
   0.36713560  0.35483734 -0.00023913
   0.32592347  0.65169624  0.00007171
   0.11056583  0.22109585  0.95830628
   0.21910210  0.10931325  0.04674601
   0.11120090  0.55899612  0.94539793
   0.21963043  0.43932327  0.05141742
   0.11223885  0.88938347  0.94959164
   0.22299836  0.77948067  0.04903374
   0.44799582  0.22196020  0.94940426
   0.55504429  0.11070426  0.04763782
   0.44773585  0.55905315  0.94529430
   0.55959168  0.44655490  0.05709888
   0.44614247  0.89217582  0.95164796
   0.55695048  0.78016785  0.04869136
   0.77390650  0.22206955  0.94910302
   0.89038757  0.10957663  0.04700666
   0.77896209  0.55799815  0.94327403
   0.88705837  0.44675635  0.05707470
   0.77675865  0.88936166  0.94975436
   0.88933392  0.77902137  0.05295465
unknown system                          
           1
     8.297404    4.792101    0.000000
    -8.332979    4.853711    0.000000
     0.000000    0.000000   30.000000
   V    Mo   W    S 
   3   3   3  18
Direct configuration=    23
   0.67165883  0.00339354  0.00148291
   0.32872665 -0.00243448  0.00130501
  -0.01686681 -0.03352300 -0.00149907
  -0.01627663  0.65046935 -0.00038585
   0.67957281  0.35845604  0.00048335
   0.66616726  0.64915098 -0.00040024
   0.98686070  0.35405413 -0.00022208
   0.36740498  0.35487218 -0.00020228
   0.32546398  0.65109430  0.00001887
   0.11049923  0.22094757  0.95852078
   0.21888125  0.10915032  0.04672105
   0.11108241  0.55886349  0.94538744
   0.21955738  0.43915845  0.05142163
   0.11223250  0.88928306  0.94953496
   0.22311725  0.77942670  0.04897057
   0.44821851  0.22213009  0.94941210
   0.55501800  0.11083729  0.04759738
   0.44775594  0.55895101  0.94530073
   0.55965852  0.44666278  0.05712159
   0.44615068  0.89214450  0.95174894
   0.55688131  0.78024598  0.04851707
   0.77389503  0.22225590  0.94904904
   0.89052955  0.10949687  0.04701770
   0.77902160  0.55807032  0.94327770
   0.88713912  0.44691275  0.05709816
   0.77661429  0.88925941  0.94975414
   0.88925011  0.77888495  0.05296830
unknown system                          
           1
     8.292640    4.788893    0.000000
    -8.327352    4.849003    0.000000
     0.000000    0.000000   30.000000
   V    Mo   W    S 
   3   3   3  18
Direct configuration=    24
   0.67145318  0.00306251  0.00147760
   0.32885654 -0.00240926  0.00131442
  -0.01682725 -0.03341092 -0.00148629
  -0.01632109  0.65039915 -0.00038676
   0.67954700  0.35844321  0.00047856
   0.66611613  0.64917812 -0.00040041
   0.98690289  0.35408258 -0.00022915
   0.36737494  0.35490553 -0.00020608
   0.32560337  0.65123435  0.00002588
   0.11051629  0.22098535  0.95847714
   0.21893103  0.10919779  0.04672777
   0.11111977  0.55890502  0.94539486
   0.21957410  0.43919266  0.05141901
   0.11223613  0.88928994  0.94954574
   0.22308174  0.77942330  0.04898102
   0.44817214  0.22209868  0.94940438
   0.55504705  0.11081249  0.04760780
   0.44775079  0.55898213  0.94530022
   0.55964254  0.44664313  0.05710932
   0.44615793  0.89215280  0.95172674