   27   27  100    1
  0.9710400E+02  0.1002848E-08  0.1002848E-08  0.3000000E-08  0.5000000E-15
  1.000000000000000E-004
  CAR 
 unknown system                          
    159     34    120
 
  0.0000000E+00  0.0000000E+00  0.0000000E+00  0.1562500E-01
    1      -17.804430   1.000000
    2      -16.730065   1.000000
    3      -16.679345   1.000000
    4      -16.579177   1.000000
    5      -16.536430   1.000000
    6      -16.462220   1.000000
    7      -16.428447   1.000000
    8      -16.313910   1.000000
    9      -16.158171   1.000000
   10      -16.099197   1.000000
   11      -16.076247   1.000000
   12      -15.947030   1.000000
   13      -15.916147   1.000000
   14      -15.674790   1.000000
   15      -15.589958   1.000000
   16      -15.531137   1.000000
   17      -15.321332   1.000000
   18      -15.258216   1.000000
   19       -9.286278   1.000000
   20       -9.002566   1.000000
   21       -8.927528   1.000000
   22       -8.823522   1.000000
   23       -8.769288   1.000000
   24       -8.706911   1.000000
   25       -8.653530   1.000000
   26       -8.606851   1.000000
   27       -8.558512   1.000000
   28       -8.422539   1.000000
   29       -8.403687   1.000000
   30       -8.349927   1.000000
   31       -8.290209   1.000000
   32       -8.197161   1.000000
   33       -8.118878   1.000000
   34       -8.031823   1.000000
   35       -7.874297   1.000000
   36       -7.770498   1.000000
   37       -7.692175   1.000000
   38       -7.517682   1.000000
   39       -7.502066   1.000000
   40       -7.429063   1.000000
   41       -7.314086   1.000000
   42       -7.211250   1.000000
   43       -7.132280   1.000000
   44       -6.900461   1.000000
   45       -6.812155   1.000000
   46       -6.806993   1.000000
   47       -6.686405   1.000000
   48       -6.643551   1.000000
   49       -6.544945   1.000000
   50       -6.537412   1.000000
   51       -6.485240   1.000000
   52       -6.425807   1.000000
   53       -6.321019   1.000000
   54       -6.224460   1.000000
   55       -6.172734   1.000000
   56       -6.065161   1.000000
   57       -6.036293   1.000000
   58       -5.853734   1.000000
   59       -5.822815   1.000000
   60       -5.573403   1.000000
   61       -5.507070   1.000000
   62       -5.461195   1.000000
   63       -5.257120   1.000000
   64       -5.115383   1.000000
   65       -5.058468   1.000000
   66       -4.995647   1.000000
   67       -4.959070   1.000000
   68       -4.821566   1.000000
   69       -4.789786   1.000000
   70       -4.692316   1.000000
   71       -4.591244   1.000000
   72       -4.566053   1.000000
   73       -4.536427   1.000000
   74       -4.369755   1.000000
   75       -4.156286   1.000000
   76       -4.025426   1.000000
   77       -3.763147   0.998956
   78       -3.629762   0.983587
   79       -3.541584   0.934568
   80       -3.359207   0.587491
   81       -3.263173   0.323488
   82       -2.844020   0.000311
   83       -2.759061   0.000029
   84       -2.546594   0.000000
   85       -2.478820   0.000000
   86       -2.362849   0.000000
   87       -2.314683   0.000000
   88       -2.198159   0.000000
   89       -2.136170   0.000000
   90       -2.034097   0.000000
   91       -1.778763   0.000000
   92       -1.537877   0.000000
   93       -1.489668   0.000000
   94       -1.368205   0.000000
   95       -1.259025   0.000000
   96       -1.011538   0.000000
   97       -0.965120   0.000000
   98       -0.847332   0.000000
   99       -0.821959   0.000000
  100       -0.639023   0.000000
  101       -0.517410   0.000000
  102       -0.471502   0.000000
  103       -0.466415   0.000000
  104       -0.312032   0.000000
  105       -0.284870   0.000000
  106       -0.163170   0.000000
  107       -0.079736   0.000000
  108       -0.044031   0.000000
  109        0.075269   0.000000
  110        0.184721   0.000000
  111        0.372324   0.000000
  112        0.488663   0.000000
  113        0.680994   0.000000
  114        0.819846   0.000000
  115        0.835349   0.000000
  116        1.092573   0.000000
  117        1.305912   0.000000
  118        1.644396   0.000000
  119        1.835187   0.000000
  120        2.150779   0.000000
 
  0.1250000E+00  0.2775558E-16  0.0000000E+00  0.3125000E-01
    1      -17.779566   1.000000
    2      -16.798325   1.000000
    3      -16.713167   1.000000
    4      -16.636160   1.000000
    5      -16.555552   1.000000
    6      -16.430921   1.000000
    7      -16.371356   1.000000
    8      -16.302364   1.000000
    9      -16.150298   1.000000
   10      -16.091116   1.000000
   11      -16.044705   1.000000
   12      -15.933870   1.000000
   13      -15.879338   1.000000
   14      -15.683110   1.000000
   15      -15.596322   1.000000
   16      -15.542679   1.000000
   17      -15.325733   1.000000
   18      -15.260811   1.000000
   19       -9.286094   1.000000
   20       -9.168630   1.000000
   21       -9.018680   1.000000
   22       -8.913460   1.000000
   23       -8.810000   1.000000
   24       -8.747221   1.000000
   25       -8.676262   1.000000
   26       -8.570931   1.000000
   27       -8.458556   1.000000
   28       -8.394247   1.000000
   29       -8.371563   1.000000
   30       -8.299598   1.000000
   31       -8.192302   1.000000
   32       -8.126226   1.000000
   33       -8.105886   1.000000
   34       -7.954575   1.000000
   35       -7.831671   1.000000
   36       -7.714286   1.000000
   37       -7.636613   1.000000
   38       -7.577624   1.000000
   39       -7.516507   1.000000
   40       -7.449211   1.000000
   41       -7.291232   1.000000
   42       -7.236934   1.000000
   43       -7.122241   1.000000
   44       -6.955784   1.000000
   45       -6.862767   1.000000
   46       -6.763211   1.000000
   47       -6.676568   1.000000
   48       -6.616942   1.000000
   49       -6.565469   1.000000
   50       -6.530794   1.000000
   51       -6.454869   1.000000
   52       -6.414696   1.000000
   53       -6.324805   1.000000
   54       -6.253626   1.000000
   55       -6.190985   1.000000
   56       -6.080032   1.000000
   57       -5.975897   1.000000
   58       -5.873028   1.000000
   59       -5.783524   1.000000
   60       -5.580595   1.000000
   61       -5.540402   1.000000
   62       -5.461058   1.000000
   63       -5.370198   1.000000
   64       -5.275120   1.000000
   65       -5.036584   1.000000
   66       -4.971591   1.000000
   67       -4.933665   1.000000
   68       -4.887211   1.000000
   69       -4.717345   1.000000
   70       -4.647782   1.000000
   71       -4.609111   1.000000
   72       -4.546364   1.000000
   73       -4.460144   1.000000
   74       -4.326193   1.000000
   75       -4.129715   1.000000
   76       -4.085661   1.000000
   77       -3.799011   0.999567
   78       -3.697010   0.995469
   79       -3.592174   0.969149
   80       -3.313078   0.458155
   81       -3.236810   0.259665
   82       -2.809143   0.000122
   83       -2.724993   0.000010
   84       -2.539919   0.000000
   85       -2.470716   0.000000
   86       -2.352694   0.000000
   87       -2.293971   0.000000
   88       -2.164386   0.000000
   89       -2.140534   0.000000
   90       -2.009418   0.000000
   91       -1.789076   0.000000
   92       -1.550775   0.000000
   93       -1.479114   0.000000
   94       -1.364227   0.000000
   95       -1.254341   0.000000
   96       -1.026607   0.000000
   97       -0.960703   0.000000
   98       -0.885366   0.000000
   99       -0.843307   0.000000
  100       -0.694611   0.000000
  101       -0.594160   0.000000
  102       -0.512508   0.000000
  103       -0.463480   0.000000
  104       -0.446753   0.000000
  105       -0.334391   0.000000
  106       -0.191263   0.000000
  107       -0.118766   0.000000
  108        0.046628   0.000000
  109        0.096928   0.000000
  110        0.190351   0.000000
  111        0.356827   0.000000
  112        0.565397   0.000000
  113        0.664550   0.000000
  114        0.823515   0.000000
  115        0.895763   0.000000
  116        1.110524   0.000000
  117        1.265961   0.000000
  118        1.686164   0.000000
  119        1.876352   0.000000
  120        2.185516   0.000000
 
  0.2500000E+00  0.5551115E-16  0.0000000E+00  0.3125000E-01
    1      -17.706207   1.000000
    2      -16.997254   1.000000
    3      -16.738237   1.000000
    4      -16.679715   1.000000
    5      -16.589052   1.000000
    6      -16.415413   1.000000
    7      -16.310526   1.000000
    8      -16.243875   1.000000
    9      -16.143946   1.000000
   10      -16.083767   1.000000
   11      -15.977748   1.000000
   12      -15.906747   1.000000
   13      -15.785524   1.000000
   14      -15.708014   1.000000
   15      -15.618215   1.000000
   16      -15.557077   1.000000
   17      -15.339576   1.000000
   18      -15.268074   1.000000
   19       -9.494598   1.000000
   20       -9.257310   1.000000
   21       -9.130473   1.000000
   22       -9.000290   1.000000
   23       -8.912463   1.000000
   24       -8.806349   1.000000
   25       -8.635001   1.000000
   26       -8.517546   1.000000
   27       -8.440714   1.000000
   28       -8.359643   1.000000
   29       -8.312109   1.000000
   30       -8.215013   1.000000
   31       -8.136125   1.000000
   32       -8.072855   1.000000
   33       -7.967174   1.000000
   34       -7.833800   1.000000
   35       -7.758173   1.000000
   36       -7.672802   1.000000
   37       -7.595729   1.000000
   38       -7.516611   1.000000
   39       -7.497847   1.000000
   40       -7.374357   1.000000
   41       -7.341947   1.000000
   42       -7.203431   1.000000
   43       -7.112621   1.000000
   44       -7.011088   1.000000
   45       -6.848911   1.000000
   46       -6.773162   1.000000
   47       -6.653333   1.000000
   48       -6.638888   1.000000
   49       -6.582776   1.000000
   50       -6.546415   1.000000
   51       -6.405727   1.000000
   52       -6.374868   1.000000
   53       -6.351869   1.000000
   54       -6.226286   1.000000
   55       -6.134098   1.000000
   56       -6.081480   1.000000
   57       -5.954312   1.000000
   58       -5.889066   1.000000
   59       -5.754183   1.000000
   60       -5.684214   1.000000
   61       -5.659838   1.000000
   62       -5.568526   1.000000
   63       -5.496677   1.000000
   64       -5.418738   1.000000
   65       -5.191212   1.000000
   66       -4.921321   1.000000
   67       -4.861328   1.000000
   68       -4.806260   1.000000
   69       -4.674029   1.000000
   70       -4.642302   1.000000
   71       -4.576656   1.000000
   72       -4.495064   1.000000
   73       -4.382881   1.000000
   74       -4.285876   1.000000
   75       -4.220578   1.000000
   76       -4.066797   1.000000
   77       -3.877268   0.999949
   78       -3.802855   0.999608
   79       -3.607066   0.975794
   80       -3.305175   0.436060
   81       -3.168443   0.129701
   82       -2.751332   0.000023
   83       -2.634664   0.000000
   84       -2.511064   0.000000
   85       -2.455598   0.000000
   86       -2.337509   0.000000
   87       -2.238111   0.000000
   88       -2.145302   0.000000
   89       -2.069370   0.000000
   90       -1.945289   0.000000
   91       -1.796904   0.000000
   92       -1.576102   0.000000
   93       -1.470417   0.000000
   94       -1.364524   0.000000
   95       -1.257964   0.000000
   96       -1.105487   0.000000
   97       -0.984599   0.000000
   98       -0.945312   0.000000
   99       -0.911815   0.000000
  100       -0.813279   0.000000
  101       -0.683023   0.000000
  102       -0.602230   0.000000
  103       -0.561645   0.000000
  104       -0.509763   0.000000
  105       -0.480578   0.000000
  106       -0.252036   0.000000
  107       -0.201514   0.000000
  108        0.062059   0.000000
  109        0.128619   0.000000
  110        0.233378   0.000000
  111        0.377614   0.000000
  112        0.540175   0.000000
  113        0.717833   0.000000
  114        0.876292   0.000000
  115        0.994858   0.000000
  116        1.144813   0.000000
  117        1.244334   0.000000
  118        1.804858   0.000000
  119        1.992334   0.000000
  120        2.288556   0.000000
 
  0.3750000E+00  0.0000000E+00  0.0000000E+00  0.3125000E-01
    1      -17.589557   1.000000
    2      -17.208070   1.000000
    3      -16.768903   1.000000
    4      -16.699072   1.000000
    5      -16.601407   1.000000
    6      -16.425803   1.000000
    7      -16.285571   1.000000
    8      -16.192486   1.000000
    9      -16.111052   1.000000
   10      -16.059290   1.000000
   11      -15.928563   1.000000
   12      -15.875222   1.000000
   13      -15.787020   1.000000
   14      -15.701056   1.000000
   15      -15.626153   1.000000
   16      -15.544896   1.000000
   17      -15.361049   1.000000
   18      -15.276827   1.000000
   19       -9.701614   1.000000
   20       -9.326802   1.000000
   21       -9.193179   1.000000
   22       -9.044451   1.000000
   23       -8.930028   1.000000
   24       -8.846537   1.000000
   25       -8.537884   1.000000
   26       -8.486611   1.000000
   27       -8.422252   1.000000
   28       -8.374846   1.000000
   29       -8.280308   1.000000
   30       -8.207372   1.000000
   31       -8.137842   1.000000
   32       -8.025765   1.000000
   33       -7.981006   1.000000
   34       -7.769775   1.000000
   35       -7.757104   1.000000
   36       -7.684382   1.000000
   37       -7.560324   1.000000
   38       -7.458270   1.000000
   39       -7.384311   1.000000
   40       -7.268691   1.000000
   41       -7.239905   1.000000
   42       -7.169902   1.000000
   43       -7.071602   1.000000
   44       -6.962618   1.000000
   45       -6.845512   1.000000
   46       -6.786501   1.000000
   47       -6.674847   1.000000
   48       -6.634218   1.000000
   49       -6.588104   1.000000
   50       -6.474509   1.000000
   51       -6.401199   1.000000
   52       -6.349716   1.000000
   53       -6.313123   1.000000
   54       -6.154714   1.000000
   55       -6.122539   1.000000
   56       -6.071770   1.000000
   57       -5.991422   1.000000
   58       -5.927155   1.000000
   59       -5.887938   1.000000
   60       -5.825057   1.000000
   61       -5.738049   1.000000
   62       -5.637287   1.000000
   63       -5.604019   1.000000
   64       -5.487203   1.000000
   65       -5.208798   1.000000
   66       -4.903848   1.000000
   67       -4.853332   1.000000
   68       -4.774891   1.000000
   69       -4.744166   1.000000
   70       -4.646614   1.000000
   71       -4.594922   1.000000
   72       -4.464259   1.000000
   73       -4.363383   1.000000
   74       -4.279449   1.000000
   75       -4.152692   1.000000
   76       -4.076955   1.000000
   77       -3.931848   0.999990
   78       -3.797312   0.999548
   79       -3.600547   0.973050
   80       -3.316192   0.466901
   81       -3.125793   0.076447
   82       -2.717329   0.000008
   83       -2.561011   0.000000
   84       -2.468109   0.000000
   85       -2.422368   0.000000
   86       -2.322241   0.000000
   87       -2.196272   0.000000
   88       -2.116743   0.000000
   89       -1.957207   0.000000
   90       -1.884547   0.000000
   91       -1.774126   0.000000
   92       -1.596190   0.000000
   93       -1.490554   0.000000
   94       -1.389702   0.000000
   95       -1.301113   0.000000
   96       -1.210557   0.000000
   97       -1.046327   0.000000
   98       -1.034342   0.000000
   99       -0.925882   0.000000
  100       -0.879140   0.000000
  101       -0.755185   0.000000
  102       -0.691770   0.000000
  103       -0.650993   0.000000
  104       -0.589545   0.000000
  105       -0.513392   0.000000
  106       -0.334634   0.000000
  107       -0.246601   0.000000
  108        0.017877   0.000000
  109        0.137888   0.000000
  110        0.232771   0.000000
  111        0.370279   0.000000
  112        0.507902   0.000000
  113        0.778298   0.000000
  114        0.901683   0.000000
  115        1.073351   0.000000
  116        1.173292   0.000000
  117        1.316476   0.000000
  118        1.984078   0.000000
  119        2.168122   0.000000
  120        2.443393   0.000000
 
  0.5000000E+00  0.1110223E-15  0.0000000E+00  0.1562500E-01
    1      -17.478353   1.000000
    2      -17.352708   1.000000
    3      -16.781317   1.000000
    4      -16.706383   1.000000
    5      -16.601681   1.000000
    6      -16.433155   1.000000
    7      -16.280160   1.000000
    8      -16.184417   1.000000
    9      -16.070539   1.000000
   10      -16.054821   1.000000
   11      -15.893183   1.000000
   12      -15.864568   1.000000
   13      -15.820089   1.000000
   14      -15.721954   1.000000
   15      -15.604384   1.000000
   16      -15.527124   1.000000
   17      -15.374885   1.000000
   18      -15.280948   1.000000
   19       -9.775994   1.000000
   20       -9.361385   1.000000
   21       -9.219416   1.000000
   22       -9.066943   1.000000
   23       -8.889906   1.000000
   24       -8.861947   1.000000
   25       -8.502637   1.000000
   26       -8.473896   1.000000
   27       -8.443364   1.000000
   28       -8.383737   1.000000
   29       -8.275365   1.000000
   30       -8.175720   1.000000
   31       -8.095598   1.000000
   32       -8.026664   1.000000
   33       -8.018870   1.000000
   34       -7.823195   1.000000
   35       -7.804648   1.000000
   36       -7.692806   1.000000
   37       -7.477302   1.000000
   38       -7.426537   1.000000
   39       -7.349630   1.000000
   40       -7.232829   1.000000
   41       -7.203772   1.000000
   42       -7.068904   1.000000
   43       -7.040174   1.000000
   44       -6.982205   1.000000
   45       -6.883265   1.000000
   46       -6.695539   1.000000
   47       -6.689293   1.000000
   48       -6.604338   1.000000
   49       -6.571831   1.000000
   50       -6.460557   1.000000
   51       -6.407045   1.000000
   52       -6.322622   1.000000
   53       -6.287279   1.000000
   54       -6.233648   1.000000
   55       -6.168111   1.000000
   56       -6.106493   1.000000
   57       -6.032843   1.000000
   58       -5.924504   1.000000
   59       -5.892224   1.000000
   60       -5.829533   1.000000
   61       -5.712619   1.000000
   62       -5.646543   1.000000
   63       -5.608189   1.000000
   64       -5.549114   1.000000
   65       -5.177766   1.000000
   66       -5.139880   1.000000
   67       -4.846078   1.000000
   68       -4.759261   1.000000
   69       -4.722344   1.000000
   70       -4.636015   1.000000
   71       -4.577837   1.000000
   72       -4.454575   1.000000
   73       -4.334251   1.000000
   74       -4.264274   1.000000
   75       -4.170584   1.000000
   76       -4.089875   1.000000
   77       -3.906529   0.999979
   78       -3.788667   0.999439
   79       -3.589756   0.967939
   80       -3.326730   0.496591
   81       -3.112600   0.063920
   82       -2.708481   0.000006
   83       -2.538371   0.000000
   84       -2.451761   0.000000
   85       -2.398742   0.000000
   86       -2.309970   0.000000
   87       -2.188181   0.000000
   88       -2.089563   0.000000
   89       -1.896750   0.000000
   90       -1.867081   0.000000
   91       -1.756233   0.000000
   92       -1.593345   0.000000
   93       -1.525351   0.000000
   94       -1.412601   0.000000
   95       -1.324985   0.000000
   96       -1.246906   0.000000
   97       -1.088546   0.000000
   98       -1.064530   0.000000
   99       -0.938566   0.000000
  100       -0.896997   0.000000
  101       -0.785315   0.000000
  102       -0.718698   0.000000
  103       -0.696221   0.000000
  104       -0.599234   0.000000
  105       -0.520101   0.000000
  106       -0.368206   0.000000
  107       -0.272367   0.000000
  108       -0.002710   0.000000
  109        0.142114   0.000000
  110        0.227882   0.000000
  111        0.344482   0.000000
  112        0.505869   0.000000
  113        0.803069   0.000000
  114        0.901816   0.000000
  115        1.099459   0.000000
  116        1.198224   0.000000
  117        1.353506   0.000000
  118        2.185473   0.000000
  119        2.236940   0.000000
  120        2.375522   0.000000
 
  0.0000000E+00  0.1250000E+00  0.0000000E+00  0.3125000E-01
    1      -17.779617   1.000000
    2      -16.783563   1.000000
    3      -16.725600   1.000000
    4      -16.626062   1.000000
    5      -16.543618   1.000000
    6      -16.473095   1.000000
    7      -16.387902   1.000000
    8      -16.268283   1.000000
    9      -16.184005   1.000000
   10      -16.070532   1.000000
   11      -16.014139   1.000000
   12      -15.940474   1.000000
   13      -15.894195   1.000000
   14      -15.676129   1.000000
   15      -15.605447   1.000000
   16      -15.527183   1.000000
   17      -15.332830   1.000000
   18      -15.262264   1.000000
   19       -9.279280   1.000000
   20       -9.156276   1.000000
   21       -9.026470   1.000000
   22       -8.944941   1.000000
   23       -8.803228   1.000000
   24       -8.722781   1.000000
   25       -8.647631   1.000000
   26       -8.579020   1.000000
   27       -8.518778   1.000000
   28       -8.408965   1.000000
   29       -8.373402   1.000000
   30       -8.329120   1.000000
   31       -8.227867   1.000000
   32       -8.106961   1.000000
   33       -8.006008   1.000000
   34       -7.941569   1.000000
   35       -7.826665   1.000000
   36       -7.757593   1.000000
   37       -7.618648   1.000000
   38       -7.588879   1.000000
   39       -7.494727   1.000000
   40       -7.431801   1.000000
   41       -7.273063   1.000000
   42       -7.218446   1.000000
   43       -7.149249   1.000000
   44       -6.956846   1.000000
   45       -6.888002   1.000000
   46       -6.783419   1.000000
   47       -6.693582   1.000000
   48       -6.634834   1.000000
   49       -6.582761   1.000000
   50       -6.537959   1.000000
   51       -6.467572   1.000000
   52       -6.394086   1.000000
   53       -6.282537   1.000000
   54       -6.233682   1.000000
   55       -6.191422   1.000000
   56       -6.091404   1.000000
   57       -5.987085   1.000000
   58       -5.853288   1.000000
   59       -5.771710   1.000000
   60       -5.559634   1.000000
   61       -5.537480   1.000000
   62       -5.464639   1.000000
   63       -5.322771   1.000000
   64       -5.197990   1.000000
   65       -5.145600   1.000000
   66       -5.065855   1.000000
   67       -4.926552   1.000000
   68       -4.868486   1.000000
   69       -4.787823   1.000000
   70       -4.670846   1.000000
   71       -4.608586   1.000000
   72       -4.520140   1.000000
   73       -4.413456   1.000000
   74       -4.299808   1.000000
   75       -4.133871   1.000000
   76       -4.011852   0.999999
   77       -3.787932   0.999428
   78       -3.742580   0.998316
   79       -3.524169   0.917365
   80       -3.458222   0.821537
   81       -3.122577   0.073233
   82       -2.844689   0.000316
   83       -2.738085   0.000015
   84       -2.571246   0.000000
   85       -2.449476   0.000000
   86       -2.379876   0.000000
   87       -2.295370   0.000000
   88       -2.164826   0.000000
   89       -2.135078   0.000000
   90       -2.005567   0.000000
   91       -1.795316   0.000000
   92       -1.530917   0.000000
   93       -1.491889   0.000000
   94       -1.362608   0.000000
   95       -1.259508   0.000000
   96       -1.014458   0.000000
   97       -0.965885   0.000000
   98       -0.881449   0.000000
   99       -0.825458   0.000000
  100       -0.718882   0.000000
  101       -0.612847   0.000000
  102       -0.528349   0.000000
  103       -0.460384   0.000000
  104       -0.339827   0.000000
  105       -0.310661   0.000000
  106       -0.210128   0.000000
  107       -0.126109   0.000000
  108       -0.051149   0.000000
  109        0.083081   0.000000
  110        0.139034   0.000000
  111        0.418036   0.000000
  112        0.555412   0.000000
  113        0.718884   0.000000
  114        0.824367   0.000000
  115        0.886954   0.000000
  116        1.109492   0.000000
  117        1.276791   0.000000
  118        1.689206   0.000000
  119        1.873773   0.000000
  120        2.185989   0.000000
 
  0.1250000E+00  0.1250000E+00  0.0000000E+00  0.3125000E-01
    1      -17.731052   1.000000
    2      -16.879532   1.000000
    3      -16.830994   1.000000
    4      -16.675525   1.000000
    5      -16.499950   1.000000
    6      -16.421366   1.000000
    7      -16.371116   1.000000
    8      -16.273695   1.000000
    9      -16.156163   1.000000
   10      -16.043820   1.000000
   11      -16.001850   1.000000
   12      -15.872381   1.000000
   13      -15.849608   1.000000
   14      -15.702451   1.000000
   15      -15.616690   1.000000
   16      -15.547858   1.000000
   17      -15.339120   1.000000
   18      -15.263063   1.000000
   19       -9.362176   1.000000
   20       -9.326626   1.000000
   21       -9.120791   1.000000
   22       -9.056723   1.000000
   23       -8.795899   1.000000
   24       -8.741395   1.000000
   25       -8.627531   1.000000
   26       -8.557129   1.000000
   27       -8.459986   1.000000
   28       -8.359986   1.000000
   29       -8.330489   1.000000
   30       -8.249039   1.000000
   31       -8.148420   1.000000
   32       -8.097244   1.000000
   33       -7.983838   1.000000
   34       -7.897497   1.000000
   35       -7.769498   1.000000
   36       -7.711281   1.000000
   37       -7.576379   1.000000
   38       -7.532250   1.000000
   39       -7.471135   1.000000
   40       -7.363376   1.000000
   41       -7.310131   1.000000
   42       -7.225870   1.000000
   43       -7.151111   1.000000
   44       -6.970896   1.000000
   45       -6.859166   1.000000
   46       -6.778785   1.000000
   47       -6.726655   1.000000
   48       -6.639188   1.000000
   49       -6.619025   1.000000
   50       -6.486261   1.000000
   51       -6.445028   1.000000
   52       -6.381604   1.000000
   53       -6.330178   1.000000
   54       -6.266913   1.000000
   55       -6.144816   1.000000
   56       -6.091437   1.000000
   57       -5.950329   1.000000
   58       -5.853452   1.000000
   59       -5.757691   1.000000
   60       -5.684141   1.000000
   61       -5.576765   1.000000
   62       -5.497204   1.000000
   63       -5.422206   1.000000
   64       -5.330830   1.000000
   65       -5.163153   1.000000
   66       -5.080191   1.000000
   67       -4.948781   1.000000
   68       -4.849989   1.000000
   69       -4.737789   1.000000
   70       -4.610811   1.000000
   71       -4.532027   1.000000
   72       -4.484803   1.000000
   73       -4.366620   1.000000
   74       -4.240960   1.000000
   75       -4.172690   1.000000
   76       -4.076280   1.000000
   77       -3.919489   0.999986
   78       -3.755964   0.998763
   79       -3.537969   0.931246
   80       -3.367763   0.610874
   81       -3.131558   0.082474
   82       -2.788095   0.000067
   83       -2.679920   0.000002
   84       -2.564110   0.000000
   85       -2.431556   0.000000
   86       -2.388170   0.000000
   87       -2.261450   0.000000
   88       -2.146444   0.000000
   89       -2.077743   0.000000
   90       -1.963291   0.000000
   91       -1.792802   0.000000
   92       -1.549301   0.000000
   93       -1.483976   0.000000
   94       -1.377483   0.000000
   95       -1.254419   0.000000
   96       -1.062972   0.000000
   97       -0.977851   0.000000
   98       -0.941652   0.000000
   99       -0.868563   0.000000
  100       -0.811167   0.000000
  101       -0.644944   0.000000
  102       -0.615460   0.000000
  103       -0.542073   0.000000
  104       -0.442016   0.000000
  105       -0.396859   0.000000
  106       -0.246143   0.000000
  107       -0.206728   0.000000
  108        0.008669   0.000000
  109        0.089366   0.000000
  110        0.213415   0.000000
  111        0.388840   0.000000
  112        0.597167   0.000000
  113        0.736169   0.000000
  114        0.925056   0.000000
  115        0.967444   0.000000
  116        1.112060   0.000000
  117        1.201576   0.000000
  118        1.769337   0.000000
  119        1.952167   0.000000
  120        2.254938   0.000000
 
  0.2500000E+00  0.1250000E+00  0.0000000E+00  0.3125000E-01
    1      -17.636298   1.000000
    2      -17.085844   1.000000
    3      -16.899804   1.000000
    4      -16.667376   1.000000
    5      -16.510046   1.000000
    6      -16.393368   1.000000
    7      -16.309378   1.000000
    8      -16.250138   1.000000
    9      -16.141346   1.000000
   10      -16.048542   1.000000
   11      -15.964956   1.000000
   12      -15.838807   1.000000
   13      -15.767125   1.000000
   14      -15.720605   1.000000
   15      -15.628313   1.000000
   16      -15.570304   1.000000
   17      -15.349416   1.000000
   18      -15.267530   1.000000
   19       -9.601271   1.000000
   20       -9.403850   1.000000
   21       -9.219721   1.000000
   22       -9.087442   1.000000
   23       -8.828815   1.000000
   24       -8.706358   1.000000
   25       -8.563739   1.000000
   26       -8.508909   1.000000
   27       -8.420845   1.000000
   28       -8.327820   1.000000
   29       -8.286297   1.000000
   30       -8.216269   1.000000
   31       -8.163662   1.000000
   32       -8.096795   1.000000
   33       -8.008036   1.000000
   34       -7.859300   1.000000
   35       -7.764084   1.000000
   36       -7.657976   1.000000
   37       -7.538798   1.000000
   38       -7.460718   1.000000
   39       -7.389334   1.000000
   40       -7.327490   1.000000
   41       -7.232047   1.000000
   42       -7.140440   1.000000
   43       -7.104207   1.000000
   44       -6.971729   1.000000
   45       -6.849390   1.000000
   46       -6.792144   1.000000
   47       -6.730657   1.000000