       N       E                     dE             d eps       ncg     rms          rms(c)
DAV:   1     0.112384438404E+04    0.11238E+04   -0.35857E+04  8160   0.577E+02
DAV:   2    -0.274430188850E+01   -0.11266E+04   -0.10846E+04 11280   0.173E+02
DAV:   3    -0.199805065623E+03   -0.19706E+03   -0.18932E+03 10880   0.820E+01
DAV:   4    -0.209002378730E+03   -0.91973E+01   -0.89163E+01 12240   0.262E+01
DAV:   5    -0.209322014350E+03   -0.31964E+00   -0.31867E+00 11320   0.352E+00    0.275E+01
DAV:   6    -0.237932883942E+03   -0.28611E+02   -0.10687E+02 12360   0.601E+01    0.595E+01
DAV:   7    -0.196571458478E+03    0.41361E+02   -0.17573E+02 13520   0.153E+02    0.200E+01
DAV:   8    -0.189486979295E+03    0.70845E+01   -0.17858E+01 11840   0.127E+01    0.125E+01
DAV:   9    -0.188163390974E+03    0.13236E+01   -0.31170E+00 13520   0.626E+00    0.923E+00
DAV:  10    -0.186957839061E+03    0.12056E+01   -0.17346E+00 13280   0.769E+00    0.215E+00
DAV:  11    -0.187053253812E+03   -0.95415E-01   -0.58299E-01 13520   0.290E+00    0.372E+00
DAV:  12    -0.186994856633E+03    0.58397E-01   -0.75338E-01 12600   0.430E+00    0.361E+00
DAV:  13    -0.186888527279E+03    0.10633E+00   -0.30610E-01 13040   0.301E+00    0.188E+00
DAV:  14    -0.186851010117E+03    0.37517E-01   -0.10316E-01 13160   0.172E+00    0.849E-01
DAV:  15    -0.186849576948E+03    0.14332E-02   -0.28685E-02 12600   0.907E-01    0.852E-01
DAV:  16    -0.186843632208E+03    0.59447E-02   -0.12034E-02 13360   0.560E-01    0.291E-01
DAV:  17    -0.186842319673E+03    0.13125E-02   -0.46557E-03 12880   0.300E-01    0.185E-01
DAV:  18    -0.186842086218E+03    0.23345E-03   -0.18245E-03 11920   0.150E-01    0.130E-01
DAV:  19    -0.186841888118E+03    0.19810E-03   -0.82413E-04 11200   0.897E-02    0.602E-02
DAV:  20    -0.186842626355E+03   -0.73824E-03   -0.68440E-04  9040   0.762E-02    0.560E-02
DAV:  21    -0.186843405013E+03   -0.77866E-03   -0.23331E-04  8160   0.465E-02    0.338E-02
DAV:  22    -0.186844405609E+03   -0.10006E-02   -0.16994E-04  7440   0.415E-02    0.313E-02
DAV:  23    -0.186845568051E+03   -0.11624E-02   -0.10789E-04  7440   0.374E-02    0.121E-02
DAV:  24    -0.186846124502E+03   -0.55645E-03   -0.24533E-05  6800   0.142E-02    0.474E-03
DAV:  25    -0.186846517342E+03   -0.39284E-03   -0.15757E-05  5440   0.937E-03    0.312E-03
DAV:  26    -0.186846761320E+03   -0.24398E-03   -0.91805E-06  6800   0.687E-03    0.159E-03
DAV:  27    -0.186846847889E+03   -0.86569E-04   -0.32154E-06  7520   0.403E-03
   1 F= -.18684685E+03 E0= -.18667584E+03  d E =-.186847E+03
       N       E                     dE             d eps       ncg     rms          rms(c)
DAV:   1    -0.187499003010E+03   -0.65224E+00   -0.27189E+02  8160   0.350E+01    0.460E+00
DAV:   2    -0.189379880345E+03   -0.18809E+01   -0.19912E+01 12240   0.151E+01    0.911E+00
DAV:   3    -0.189353586069E+03    0.26294E-01   -0.46957E+00 12440   0.124E+01    0.635E+00
DAV:   4    -0.188753802985E+03    0.59978E+00   -0.56597E-01 11880   0.452E+00    0.192E+00
DAV:   5    -0.188868317708E+03   -0.11451E+00   -0.44243E-01 11760   0.374E+00    0.527E+00
DAV:   6    -0.188737509265E+03    0.13081E+00   -0.75580E-01 12640   0.434E+00    0.236E+00
DAV:   7    -0.188686058601E+03    0.51451E-01   -0.18439E-01 11880   0.194E+00    0.175E+00
DAV:   8    -0.188683943569E+03    0.21150E-02   -0.11997E-01 12440   0.196E+00    0.187E+00
DAV:   9    -0.188655746281E+03    0.28197E-01   -0.55959E-02 11680   0.120E+00    0.453E-01
DAV:  10    -0.188654812801E+03    0.93348E-03   -0.58206E-03 12880   0.317E-01    0.208E-01
DAV:  11    -0.188654375146E+03    0.43766E-03   -0.21870E-03 12520   0.157E-01    0.154E-01
DAV:  12    -0.188654389967E+03   -0.14821E-04   -0.86725E-04 11200   0.877E-02
   2 F= -.18865439E+03 E0= -.18851552E+03  d E =-.180754E+01
       N       E                     dE             d eps       ncg     rms          rms(c)
DAV:   1    -0.190575898998E+03   -0.19215E+01   -0.31010E+01  9200   0.142E+01    0.445E+00
DAV:   2    -0.190525232393E+03    0.50667E-01   -0.27682E+00 11520   0.944E+00    0.718E+00
DAV:   3    -0.190059486815E+03    0.46575E+00   -0.12890E+00 12320   0.860E+00    0.423E+00
DAV:   4    -0.189848320478E+03    0.21117E+00   -0.67389E-01 13000   0.429E+00    0.251E+00
DAV:   5    -0.189810865633E+03    0.37455E-01   -0.35542E-01 12240   0.299E+00    0.262E+00
DAV:   6    -0.189747230925E+03    0.63635E-01   -0.13456E-01 12720   0.235E+00    0.676E-01
DAV:   7    -0.189742419796E+03    0.48111E-02   -0.13205E-02 11600   0.548E-01    0.344E-01
DAV:   8    -0.189742702503E+03   -0.28271E-03   -0.55951E-03 12640   0.451E-01    0.368E-01
DAV:   9    -0.189741665395E+03    0.10371E-02   -0.22780E-03 11320   0.268E-01    0.113E-01
DAV:  10    -0.189741922007E+03   -0.25661E-03   -0.63404E-04  9920   0.929E-02    0.741E-02
DAV:  11    -0.189741840346E+03    0.81661E-04   -0.21719E-04  7960   0.511E-02
   3 F= -.18974184E+03 E0= -.18962548E+03  d E =-.108745E+01
       N       E                     dE             d eps       ncg     rms          rms(c)
DAV:   1    -0.191317152977E+03   -0.15752E+01   -0.75022E+01  8160   0.198E+01    0.461E+00
DAV:   2    -0.191117899200E+03    0.19925E+00   -0.53267E+00 13400   0.758E+00    0.444E+00
DAV:   3    -0.191311783455E+03   -0.19388E+00   -0.15050E+00 12240   0.911E+00    0.729E+00
DAV:   4    -0.190900351271E+03    0.41143E+00   -0.16847E+00 11880   0.852E+00    0.342E+00
DAV:   5    -0.190902617740E+03   -0.22665E-02   -0.65000E-01 11120   0.534E+00    0.354E+00
DAV:   6    -0.190732467334E+03    0.17015E+00   -0.20943E-01 12120   0.321E+00    0.652E-01
DAV:   7    -0.190732567090E+03   -0.99756E-04   -0.31369E-02 12480   0.760E-01    0.552E-01
DAV:   8    -0.190730278256E+03    0.22888E-02   -0.12128E-02 11680   0.692E-01    0.493E-01
DAV:   9    -0.190728137927E+03    0.21403E-02   -0.42806E-03 11520   0.448E-01    0.168E-01
DAV:  10    -0.190728404473E+03   -0.26655E-03   -0.13830E-03 10960   0.153E-01    0.113E-01
DAV:  11    -0.190728217600E+03    0.18687E-03   -0.63132E-04 10160   0.945E-02    0.429E-02
DAV:  12    -0.190728220833E+03   -0.32331E-05   -0.10128E-04  7120   0.356E-02
   4 F= -.19072822E+03 E0= -.19063063E+03  d E =-.986380E+00
       N       E                     dE             d eps       ncg     rms          rms(c)
DAV:   1    -0.192166251298E+03   -0.14380E+01   -0.17300E+02  8160   0.293E+01    0.580E+00
DAV:   2    -0.191885381192E+03    0.28087E+00   -0.97280E+00 10960   0.804E+00    0.402E+00
DAV:   3    -0.192364079950E+03   -0.47870E+00   -0.27968E+00 12160   0.109E+01    0.858E+00
DAV:   4    -0.191680939931E+03    0.68314E+00   -0.22615E+00 11600   0.108E+01    0.349E+00
DAV:   5    -0.191627317919E+03    0.53622E-01   -0.57404E-01 12200   0.565E+00    0.435E+00
DAV:   6    -0.191473524374E+03    0.15379E+00   -0.61846E-01 12320   0.519E+00    0.166E+00
DAV:   7    -0.191464751586E+03    0.87728E-02   -0.10940E-01 12600   0.199E+00    0.130E+00
DAV:   8    -0.191445844521E+03    0.18907E-01   -0.35478E-02 12320   0.144E+00    0.439E-01
DAV:   9    -0.191443278849E+03    0.25657E-02   -0.68021E-03 11280   0.450E-01    0.192E-01
DAV:  10    -0.191443443237E+03   -0.16439E-03   -0.27766E-03 11560   0.205E-01    0.102E-01
DAV:  11    -0.191443368720E+03    0.74517E-04   -0.58052E-04 10320   0.914E-02
   5 F= -.19144337E+03 E0= -.19135028E+03  d E =-.715148E+00
       N       E                     dE             d eps       ncg     rms          rms(c)
DAV:   1    -0.191522927207E+03   -0.79484E-01   -0.76941E+00  8160   0.582E+00    0.765E-01
DAV:   2    -0.191604173489E+03   -0.81246E-01   -0.34243E-01 13600   0.357E+00    0.249E+00
DAV:   3    -0.191534293809E+03    0.69880E-01   -0.12375E-01 12600   0.271E+00    0.384E-01
DAV:   4    -0.191537862101E+03   -0.35683E-02   -0.15236E-02 11600   0.836E-01    0.759E-01
DAV:   5    -0.191532439652E+03    0.54224E-02   -0.11160E-02 11520   0.748E-01    0.218E-01
DAV:   6    -0.191533273516E+03   -0.83386E-03   -0.39920E-03 11360   0.361E-01    0.332E-01
DAV:   7    -0.191532548612E+03    0.72490E-03   -0.39893E-03 11280   0.440E-01    0.222E-01
DAV:   8    -0.191531989774E+03    0.55884E-03   -0.10514E-03 10440   0.205E-01    0.367E-02
DAV:   9    -0.191532004343E+03   -0.14570E-04   -0.10562E-04  6560   0.400E-02
   6 F= -.19153200E+03 E0= -.19143714E+03  d E =-.886356E-01
       N       E                     dE             d eps       ncg     rms          rms(c)
DAV:   1    -0.191637899278E+03   -0.10591E+00   -0.19598E+01  8160   0.924E+00    0.108E+00
DAV:   2    -0.191776964613E+03   -0.13907E+00   -0.61307E-01 13120   0.455E+00    0.329E+00
DAV:   3    -0.191657827659E+03    0.11914E+00   -0.24062E-01 12400   0.373E+00    0.658E-01
DAV:   4    -0.191666681620E+03   -0.88540E-02   -0.38489E-02 12080   0.135E+00    0.121E+00
DAV:   5    -0.191652658888E+03    0.14023E-01   -0.28078E-02 11680   0.118E+00    0.331E-01
DAV:   6    -0.191655291569E+03   -0.26327E-02   -0.10851E-02 11560   0.642E-01    0.592E-01
DAV:   7    -0.191652637725E+03    0.26538E-02   -0.10229E-02 11600   0.708E-01    0.295E-01
DAV:   8    -0.191651533318E+03    0.11044E-02   -0.21078E-03 10800   0.271E-01    0.525E-02
DAV:   9    -0.191651529577E+03    0.37404E-05   -0.26166E-04  8160   0.571E-02
   7 F= -.19165153E+03 E0= -.19155584E+03  d E =-.119525E+00
       N       E                     dE             d eps       ncg     rms          rms(c)
DAV:   1    -0.191712911524E+03   -0.61378E-01   -0.65094E+00  8160   0.541E+00    0.713E-01
DAV:   2    -0.191763626265E+03   -0.50715E-01   -0.25412E-01 13560   0.290E+00    0.201E+00
DAV:   3    -0.191718481715E+03    0.45145E-01   -0.87815E-02 12440   0.227E+00    0.377E-01
DAV:   4    -0.191721476401E+03   -0.29947E-02   -0.14616E-02 12360   0.824E-01    0.737E-01
DAV:   5    -0.191716237232E+03    0.52392E-02   -0.11471E-02 10960   0.795E-01    0.255E-01
DAV:   6    -0.191715941817E+03    0.29541E-03   -0.32933E-03 10840   0.275E-01    0.147E-01
DAV:   7    -0.191715569377E+03    0.37244E-03   -0.12055E-03 10800   0.155E-01    0.975E-02
DAV:   8    -0.191715547009E+03    0.22368E-04   -0.49783E-04  8840   0.145E-01
   8 F= -.19171555E+03 E0= -.19161960E+03  d E =-.640174E-01
       N       E                     dE             d eps       ncg     rms          rms(c)
DAV:   1    -0.191781227381E+03   -0.65658E-01   -0.10654E+01  8160   0.692E+00    0.746E-01
DAV:   2    -0.191825516656E+03   -0.44289E-01   -0.34350E-01 12360   0.261E+00    0.166E+00
DAV:   3    -0.191799936314E+03    0.25580E-01   -0.89309E-02 12400   0.208E+00    0.670E-01
DAV:   4    -0.191802218778E+03   -0.22825E-02   -0.27162E-02 12400   0.111E+00    0.894E-01
DAV:   5    -0.191794163303E+03    0.80555E-02   -0.16368E-02 12040   0.940E-01    0.271E-01
DAV:   6    -0.191794591203E+03   -0.42790E-03   -0.57257E-03 10360   0.402E-01    0.298E-01
DAV:   7    -0.191794511411E+03    0.79792E-04   -0.50096E-03 11600   0.501E-01    0.340E-01
DAV:   8    -0.191793324320E+03    0.11871E-02   -0.19627E-03 10120   0.303E-01    0.480E-02
DAV:   9    -0.191793313664E+03    0.10656E-04   -0.13037E-04  6120   0.462E-02
   9 F= -.19179331E+03 E0= -.19169810E+03  d E =-.777667E-01
       N       E                     dE             d eps       ncg     rms          rms(c)
DAV:   1    -0.191791534237E+03    0.17901E-02   -0.20257E-01  8160   0.978E-01    0.143E-01
DAV:   2    -0.191791402854E+03    0.13138E-03   -0.55177E-03 10320   0.217E-01    0.106E-01
DAV:   3    -0.191791523494E+03   -0.12064E-03   -0.13629E-03 11000   0.238E-01    0.186E-01
DAV:   4    -0.191791167135E+03    0.35636E-03   -0.79817E-04  8800   0.217E-01    0.801E-02
DAV:   5    -0.191791288867E+03   -0.12173E-03   -0.63241E-04  8680   0.173E-01    0.142E-01
DAV:   6    -0.191791072062E+03    0.21680E-03   -0.42275E-04  8440   0.145E-01    0.267E-02
DAV:   7    -0.191791075746E+03   -0.36842E-05   -0.56365E-05  6240   0.420E-02
  10 F= -.19179108E+03 E0= -.19169566E+03  d E =0.223792E-02
       N       E                     dE             d eps       ncg     rms          rms(c)
DAV:   1    -0.191832525735E+03   -0.41454E-01   -0.31659E+00  8160   0.380E+00    0.411E-01
DAV:   2    -0.191843863297E+03   -0.11338E-01   -0.10114E-01 12040   0.127E+00    0.877E-01
DAV:   3    -0.191838279710E+03    0.55836E-02   -0.27423E-02 12200   0.107E+00    0.447E-01
DAV:   4    -0.191837528645E+03    0.75107E-03   -0.72829E-03 12320   0.575E-01    0.379E-01
DAV:   5    -0.191836002157E+03    0.15265E-02   -0.36641E-03 11280   0.486E-01    0.182E-01
DAV:   6    -0.191836048254E+03   -0.46097E-04   -0.21649E-03 10360   0.278E-01    0.180E-01
DAV:   7    -0.191836010274E+03    0.37980E-04   -0.16332E-03 10240   0.293E-01    0.194E-01
DAV:   8    -0.191835606322E+03    0.40395E-03   -0.61084E-04  8280   0.175E-01    0.252E-02
DAV:   9    -0.191835609500E+03   -0.31776E-05   -0.47801E-05  5800   0.272E-02
  11 F= -.19183561E+03 E0= -.19174093E+03  d E =-.445338E-01
       N       E                     dE             d eps       ncg     rms          rms(c)
DAV:   1    -0.191850528604E+03   -0.14922E-01   -0.34665E-01  8160   0.127E+00    0.162E-01
DAV:   2    -0.191852061179E+03   -0.15326E-02   -0.13439E-02 11800   0.479E-01    0.357E-01
DAV:   3    -0.191851074062E+03    0.98712E-03   -0.41436E-03 11520   0.423E-01    0.172E-01
DAV:   4    -0.191850923145E+03    0.15092E-03   -0.10244E-03  9680   0.214E-01    0.131E-01
DAV:   5    -0.191850768878E+03    0.15427E-03   -0.53821E-04  8760   0.190E-01    0.819E-02
DAV:   6    -0.191850729811E+03    0.39067E-04   -0.32598E-04  7440   0.116E-01
  12 F= -.19185073E+03 E0= -.19175631E+03  d E =-.151203E-01
       N       E                     dE             d eps       ncg     rms          rms(c)
DAV:   1    -0.191903254329E+03   -0.52485E-01   -0.50135E+00  8160   0.482E+00    0.562E-01
DAV:   2    -0.191924656018E+03   -0.21402E-01   -0.17847E-01 11240   0.167E+00    0.130E+00
DAV:   3    -0.191912463396E+03    0.12193E-01   -0.52444E-02 12440   0.149E+00    0.572E-01
DAV:   4    -0.191909398346E+03    0.30650E-02   -0.90196E-03 12240   0.567E-01    0.311E-01
DAV:   5    -0.191908898692E+03    0.49965E-03   -0.46905E-03 11800   0.525E-01    0.313E-01
DAV:   6    -0.191908695593E+03    0.20310E-03   -0.44317E-03 10920   0.473E-01    0.265E-01
DAV:   7    -0.191908238717E+03    0.45688E-03   -0.23088E-03 11200   0.353E-01    0.202E-01
DAV:   8    -0.191907785042E+03    0.45367E-03   -0.76327E-04  8800   0.205E-01    0.335E-02
DAV:   9    -0.191907778193E+03    0.68486E-05   -0.65678E-05  6560   0.362E-02
  13 F= -.19190778E+03 E0= -.19181421E+03  d E =-.570484E-01
       N       E                     dE             d eps       ncg     rms          rms(c)
DAV:   1    -0.191987318126E+03   -0.79533E-01   -0.16045E+01  8160   0.865E+00    0.102E+00
DAV:   2    -0.192073033634E+03   -0.85716E-01   -0.58985E-01 10960   0.319E+00    0.269E+00
DAV:   3    -0.192017202928E+03    0.55831E-01   -0.19714E-01 12320   0.292E+00    0.947E-01
DAV:   4    -0.192011019231E+03    0.61837E-02   -0.31410E-02 12200   0.110E+00    0.743E-01
DAV:   5    -0.192005892986E+03    0.51262E-02   -0.21514E-02 12040   0.113E+00    0.524E-01
DAV:   6    -0.192005571381E+03    0.32161E-03   -0.11926E-02 12480   0.778E-01    0.495E-01
DAV:   7    -0.192004382916E+03    0.11885E-02   -0.85670E-03 11680   0.717E-01    0.377E-01
DAV:   8    -0.192002595229E+03    0.17877E-02   -0.27262E-03 10800   0.391E-01    0.611E-02
DAV:   9    -0.192002568436E+03    0.26794E-04   -0.27921E-04  8640   0.642E-02
  14 F= -.19200257E+03 E0= -.19191042E+03  d E =-.947902E-01
       N       E                     dE             d eps       ncg     rms          rms(c)
DAV:   1    -0.192060416477E+03   -0.57821E-01   -0.19145E+01  8160   0.942E+00    0.115E+00
DAV:   2    -0.192182764127E+03   -0.12235E+00   -0.77920E-01 11320   0.379E+00    0.315E+00
DAV:   3    -0.192102864424E+03    0.79900E-01   -0.25866E-01 12240   0.346E+00    0.107E+00
DAV:   4    -0.192097711216E+03    0.51532E-02   -0.44209E-02 12200   0.148E+00    0.963E-01
DAV:   5    -0.192086522499E+03    0.11189E-01   -0.26349E-02 12400   0.131E+00    0.404E-01
DAV:   6    -0.192086761936E+03   -0.23944E-03   -0.10447E-02 12560   0.630E-01    0.435E-01
DAV:   7    -0.192086593016E+03    0.16892E-03   -0.92405E-03 12440   0.748E-01    0.470E-01
DAV:   8    -0.192084154887E+03    0.24381E-02   -0.36431E-03 11400   0.463E-01    0.684E-02
DAV:   9    -0.192084112869E+03    0.42018E-04   -0.33934E-04  9000   0.710E-02
  15 F= -.19208411E+03 E0= -.19199327E+03  d E =-.815444E-01
       N       E                     dE             d eps       ncg     rms          rms(c)
DAV:   1    -0.192091867823E+03   -0.77129E-02   -0.17676E+00  8160   0.288E+00    0.357E-01
DAV:   2    -0.192096612880E+03   -0.47451E-02   -0.57160E-02 11320   0.945E-01    0.551E-01
DAV:   3    -0.192094804833E+03    0.18080E-02   -0.11755E-02 12040   0.846E-01    0.411E-01
DAV:   4    -0.192093646043E+03    0.11588E-02   -0.41851E-03 11480   0.513E-01    0.290E-01
DAV:   5    -0.192093048974E+03    0.59707E-03   -0.31344E-03 10760   0.448E-01    0.204E-01
DAV:   6    -0.192092827622E+03    0.22135E-03   -0.17171E-03 12480   0.269E-01    0.151E-01
DAV:   7    -0.192092708358E+03    0.11926E-03   -0.90226E-04  9440   0.229E-01    0.119E-01
DAV:   8    -0.192092549278E+03    0.15908E-03   -0.24160E-04  6800   0.116E-01    0.210E-02
DAV:   9    -0.192092554264E+03   -0.49865E-05   -0.39118E-05  6520   0.246E-02
  16 F= -.19209255E+03 E0= -.19200361E+03  d E =-.844140E-02
       N       E                     dE             d eps       ncg     rms          rms(c)
DAV:   1    -0.192124369864E+03   -0.31821E-01   -0.17210E+01  8160   0.895E+00    0.108E+00
DAV:   2    -0.192217868627E+03   -0.93499E-01   -0.64282E-01 11440   0.341E+00    0.267E+00
DAV:   3    -0.192158619133E+03    0.59249E-01   -0.19286E-01 12240   0.316E+00    0.104E+00
DAV:   4    -0.192153086201E+03    0.55329E-02   -0.37473E-02 12120   0.138E+00    0.888E-01
DAV:   5    -0.192143490392E+03    0.95958E-02   -0.22525E-02 12360   0.124E+00    0.378E-01
DAV:   6    -0.192142986067E+03    0.50433E-03   -0.86676E-03 12200   0.538E-01    0.307E-01
DAV:   7    -0.192142573972E+03    0.41209E-03   -0.52669E-03 12040   0.528E-01    0.343E-01
DAV:   8    -0.192141342633E+03    0.12313E-02   -0.20815E-03 10720   0.370E-01    0.743E-02
DAV:   9    -0.192141275665E+03    0.66968E-04   -0.23638E-04  6800   0.735E-02
  17 F= -.19214128E+03 E0= -.19205296E+03  d E =-.487214E-01
       N       E                     dE             d eps       ncg     rms          rms(c)
DAV:   1    -0.192147416238E+03   -0.60736E-02   -0.47027E-01  8160   0.150E+00    0.187E-01
DAV:   2    -0.192148041805E+03   -0.62557E-03   -0.13436E-02 11440   0.384E-01    0.213E-01
DAV:   3    -0.192148224912E+03   -0.18311E-03   -0.29148E-03 12480   0.418E-01    0.261E-01
DAV:   4    -0.192147552022E+03    0.67289E-03   -0.14981E-03 10120   0.294E-01    0.121E-01
DAV:   5    -0.192147509185E+03    0.42837E-04   -0.66542E-04  9520   0.215E-01
  18 F= -.19214751E+03 E0= -.19206005E+03  d E =-.623352E-02
       N       E                     dE             d eps       ncg     rms          rms(c)
DAV:   1    -0.192149717816E+03   -0.21658E-02   -0.30503E-02  8160   0.403E-01    0.873E-02
DAV:   2    -0.192150985798E+03   -0.12680E-02   -0.28200E-03 12760   0.389E-01    0.345E-01
DAV:   3    -0.192149694428E+03    0.12914E-02   -0.15768E-03 10200   0.345E-01    0.497E-02
DAV:   4    -0.192149704437E+03   -0.10010E-04   -0.11905E-04  6560   0.730E-02
  19 F= -.19214970E+03 E0= -.19206221E+03  d E =-.219525E-02
       N       E                     dE             d eps       ncg     rms          rms(c)
DAV:   1    -0.192156473999E+03   -0.67796E-02   -0.33129E-01  8160   0.123E+00    0.159E-01
DAV:   2    -0.192158464038E+03   -0.19900E-02   -0.12328E-02 11240   0.509E-01    0.386E-01
DAV:   3    -0.192157059213E+03    0.14048E-02   -0.36388E-03 12360   0.472E-01    0.146E-01
DAV:   4    -0.192156993536E+03    0.65677E-04   -0.71015E-04  9360   0.190E-01
  20 F= -.19215699E+03 E0= -.19206958E+03  d E =-.728910E-02
       N       E                     dE             d eps       ncg     rms          rms(c)
DAV:   1    -0.192151308079E+03    0.57511E-02   -0.29212E-01  8160   0.119E+00    0.158E-01
DAV:   2    -0.192153461993E+03   -0.21539E-02   -0.12948E-02 12160   0.532E-01    0.368E-01
DAV:   3    -0.192151866360E+03    0.15956E-02   -0.36247E-03 12200   0.496E-01    0.123E-01
DAV:   4    -0.192151957295E+03   -0.90935E-04   -0.80768E-04  8920   0.211E-01
  21 F= -.19215196E+03 E0= -.19206558E+03  d E =0.503624E-02
       N       E                     dE             d eps       ncg     rms          rms(c)
DAV:   1    -0.192162261148E+03   -0.10395E-01   -0.71051E-01  8160   0.182E+00    0.215E-01
DAV:   2    -0.192164928424E+03   -0.26673E-02   -0.23716E-02 12000   0.636E-01    0.386E-01
DAV:   3    -0.192163510392E+03    0.14180E-02   -0.48028E-03 12360   0.569E-01    0.200E-01
DAV:   4    -0.192163525041E+03   -0.14650E-04   -0.14587E-03 10120   0.309E-01    0.220E-01
DAV:   5    -0.192163054289E+03    0.47075E-03   -0.96789E-04 10000   0.252E-01    0.765E-02
DAV:   6    -0.192163033809E+03    0.20481E-04   -0.32146E-04  9040   0.902E-02
  22 F= -.19216303E+03 E0= -.19207656E+03  d E =-.110765E-01
       N       E                     dE             d eps       ncg     rms          rms(c)
DAV:   1    -0.192163707492E+03   -0.65320E-03   -0.25704E-03  8600   0.117E-01    0.232E-02
DAV:   2    -0.192163734207E+03   -0.26715E-04   -0.12533E-04  7400   0.671E-02
  23 F= -.19216373E+03 E0= -.19207748E+03  d E =-.700398E-03
       N       E                     dE             d eps       ncg     rms          rms(c)
DAV:   1    -0.192172682497E+03   -0.89750E-02   -0.58903E-01  8160   0.167E+00    0.195E-01
DAV:   2    -0.192173450161E+03   -0.76766E-03   -0.11672E-02 11520   0.403E-01    0.261E-01
DAV:   3    -0.192173229221E+03    0.22094E-03   -0.29803E-03 11840   0.451E-01    0.243E-01
DAV:   4    -0.192172807637E+03    0.42158E-03   -0.13965E-03 10120   0.287E-01    0.147E-01
DAV:   5    -0.192172651880E+03    0.15576E-03   -0.87444E-04 10040   0.240E-01    0.108E-01
DAV:   6    -0.192172546251E+03    0.10563E-03   -0.36690E-04  8920   0.145E-01    0.519E-02
DAV:   7    -0.192172541764E+03    0.44866E-05   -0.13184E-04  7040   0.937E-02
  24 F= -.19217254E+03 E0= -.19208658E+03  d E =-.880756E-02
       N       E                     dE             d eps       ncg     rms          rms(c)
DAV:   1    -0.192192199736E+03   -0.19653E-01   -0.23342E+00  8160   0.332E+00    0.389E-01
DAV:   2    -0.192195993433E+03   -0.37937E-02   -0.53695E-02 11120   0.832E-01    0.477E-01
DAV:   3    -0.192194623353E+03    0.13701E-02   -0.11280E-02 12560   0.873E-01    0.385E-01
DAV:   4    -0.192193250688E+03    0.13727E-02   -0.35616E-03 12280   0.487E-01    0.233E-01
DAV:   5    -0.192193239722E+03    0.10966E-04   -0.26920E-03 10680   0.422E-01    0.265E-01
DAV:   6    -0.192192650970E+03    0.58875E-03   -0.16877E-03 10320   0.313E-01    0.100E-01
DAV:   7    -0.192192476627E+03    0.17434E-03   -0.34979E-04  8680   0.964E-02    0.194E-02
DAV:   8    -0.192192476758E+03   -0.13116E-06   -0.46072E-05  7440   0.298E-02
  25 F= -.19219248E+03 E0= -.19210644E+03  d E =-.199350E-01
       N       E                     dE             d eps       ncg     rms          rms(c)
DAV:   1    -0.192171759293E+03    0.20717E-01   -0.32231E+00  8160   0.389E+00    0.482E-01
DAV:   2    -0.192182569163E+03   -0.10810E-01   -0.77959E-02 11640   0.142E+00    0.954E-01
DAV:   3    -0.192173707407E+03    0.88618E-02   -0.22263E-02 12240   0.130E+00    0.414E-01
DAV:   4    -0.192173868962E+03   -0.16155E-03   -0.75151E-03 11840   0.677E-01    0.452E-01
DAV:   5    -0.192171760857E+03    0.21081E-02   -0.50322E-03 10800   0.588E-01    0.209E-01
DAV:   6    -0.192171302956E+03    0.45790E-03   -0.17440E-03 10760   0.263E-01    0.101E-01
DAV:   7    -0.192171143877E+03    0.15908E-03   -0.48022E-04 10880   0.123E-01    0.691E-02
DAV:   8    -0.192171110447E+03    0.33430E-04   -0.15121E-04  7360   0.996E-02
  26 F= -.19217111E+03 E0= -.19208471E+03  d E =0.213663E-01
       N       E                     dE             d eps       ncg     rms          rms(c)
DAV:   1    -0.192180329337E+03   -0.91855E-02   -0.43460E-01  8160   0.142E+00    0.190E-01
DAV:   2    -0.192182439333E+03   -0.21100E-02   -0.15777E-02 10680   0.652E-01    0.386E-01
DAV:   3    -0.192180747864E+03    0.16915E-02   -0.39452E-03 12400   0.509E-01    0.136E-01
DAV:   4    -0.192180831746E+03   -0.83883E-04   -0.90288E-04 10160   0.244E-01
  27 F= -.19218083E+03 E0= -.19209482E+03  d E =-.972130E-02
       N       E                     dE             d eps       ncg     rms          rms(c)
DAV:   1    -0.192188464227E+03   -0.77164E-02   -0.30006E-01  8160   0.120E+00    0.174E-01
DAV:   2    -0.192189643619E+03   -0.11794E-02   -0.89722E-03 11480   0.408E-01    0.331E-01
DAV:   3    -0.192188693670E+03    0.94995E-03   -0.30719E-03 12160   0.452E-01    0.173E-01
DAV:   4    -0.192188462557E+03    0.23111E-03   -0.69818E-04  9640   0.171E-01    0.786E-02
DAV:   5    -0.192188400211E+03    0.62347E-04   -0.39411E-04  9440   0.115E-01
  28 F= -.19218840E+03 E0= -.19210218E+03  d E =-.756846E-02
       N       E                     dE             d eps       ncg     rms          rms(c)
DAV:   1    -0.192194153305E+03   -0.56907E-02   -0.19198E-01  8160   0.949E-01    0.137E-01
DAV:   2    -0.192195851276E+03   -0.16980E-02   -0.75681E-03 12520   0.456E-01    0.387E-01
DAV:   3    -0.192194345436E+03    0.15058E-02   -0.25837E-03 12160   0.429E-01    0.961E-02
DAV:   4    -0.192194313282E+03    0.32155E-04   -0.30770E-04  8400   0.115E-01
  29 F= -.19219431E+03 E0= -.19210802E+03  d E =-.591307E-02
       N       E                     dE             d eps       ncg     rms          rms(c)
DAV:   1    -0.192195121663E+03   -0.77623E-03   -0.38933E-03  8760   0.184E-01    0.536E-02
DAV:   2    -0.192195404443E+03   -0.28278E-03   -0.64713E-04  9880   0.218E-01    0.153E-01
DAV:   3    -0.192195084533E+03    0.31991E-03   -0.38348E-04  8800   0.180E-01    0.240E-02
DAV:   4    -0.192195123434E+03   -0.38900E-04   -0.63501E-05  6120   0.673E-02
  30 F= -.19219512E+03 E0= -.19210897E+03  d E =-.810152E-03
       N       E                     dE             d eps       ncg     rms          rms(c)
DAV:   1    -0.192190766579E+03    0.43180E-02   -0.25998E-01  8160   0.112E+00    0.191E-01
DAV:   2    -0.192193131523E+03   -0.23649E-02   -0.11782E-02 12280   0.614E-01    0.492E-01
DAV:   3    -0.192190667035E+03    0.24645E-02   -0.46885E-03 11880   0.581E-01    0.146E-01
DAV:   4    -0.192190623208E+03    0.43827E-04   -0.10660E-03  9600   0.217E-01    0.149E-01
DAV:   5    -0.192190367581E+03    0.25563E-03   -0.63928E-04  8400   0.217E-01    0.701E-02
DAV:   6    -0.192190324616E+03    0.42965E-04   -0.22684E-04  7520   0.986E-02
  31 F= -.19219032E+03 E0= -.19210457E+03  d E =0.479882E-02
       N       E                     dE             d eps       ncg     rms          rms(c)
DAV:   1    -0.192207503859E+03   -0.17136E-01   -0.15165E+00  8160   0.268E+00    0.330E-01
DAV:   2    -0.192210648489E+03   -0.31446E-02   -0.44007E-02 11080   0.693E-01    0.407E-01
DAV:   3    -0.192209642565E+03    0.10059E-02   -0.88556E-03 12360   0.772E-01    0.338E-01
DAV:   4    -0.192208150067E+03    0.14925E-02   -0.23753E-03 11440   0.389E-01    0.127E-01
DAV:   5    -0.192208607243E+03   -0.45718E-03   -0.16742E-03 10560   0.330E-01    0.251E-01
DAV:   6    -0.192207973547E+03    0.63370E-03   -0.11293E-03 10080   0.284E-01    0.660E-02
DAV:   7    -0.192207908015E+03    0.65532E-04   -0.12730E-04  6240   0.693E-02
  32 F= -.19220791E+03 E0= -.19212154E+03  d E =-.175834E-01
       N       E                     dE             d eps       ncg     rms          rms(c)
DAV:   1    -0.192219281681E+03   -0.11308E-01   -0.64840E-01  8160   0.173E+00    0.218E-01
DAV:   2    -0.192221861687E+03   -0.25800E-02   -0.20951E-02 11200   0.626E-01    0.414E-01
DAV:   3    -0.192220126758E+03    0.17349E-02   -0.56629E-03 12400   0.579E-01    0.195E-01
DAV:   4    -0.192220170569E+03   -0.43811E-04   -0.14005E-03 10200   0.307E-01    0.205E-01
DAV:   5    -0.192219718905E+03    0.45166E-03   -0.84165E-04 10160   0.267E-01    0.792E-02
DAV:   6    -0.192219700727E+03    0.18177E-04   -0.28641E-04  8160   0.962E-02
  33 F= -.19221970E+03 E0= -.19213273E+03  d E =-.117927E-01
       N       E                     dE             d eps       ncg     rms          rms(c)
DAV:   1    -0.192223524483E+03   -0.38056E-02   -0.72894E-02  8160   0.582E-01    0.774E-02
DAV:   2    -0.192223876919E+03   -0.35244E-03   -0.24829E-03 10720   0.235E-01    0.160E-01
DAV:   3    -0.192223605962E+03    0.27096E-03   -0.71879E-04 10840   0.212E-01    0.661E-02
DAV:   4    -0.192223625309E+03   -0.19346E-04   -0.16103E-04  7080   0.108E-01
  34 F= -.19222363E+03 E0= -.19213654E+03  d E =-.392458E-02
       N       E                     dE             d eps       ncg     rms          rms(c)
DAV:   1    -0.192226381811E+03   -0.27758E-02   -0.45568E-02  8160   0.474E-01    0.777E-02
DAV:   2    -0.192226946227E+03   -0.56442E-03   -0.24072E-03 12320   0.272E-01    0.223E-01
DAV:   3    -0.192226416846E+03    0.52938E-03   -0.84437E-04  9480   0.245E-01    0.471E-02
DAV:   4    -0.192226401819E+03    0.15027E-04   -0.53887E-05  5840   0.435E-02
  35 F= -.19222640E+03 E0= -.19213931E+03  d E =-.277651E-02
       N       E                     dE             d eps       ncg     rms          rms(c)
DAV:   1    -0.192240589825E+03   -0.14173E-01   -0.10777E+00  8160   0.223E+00    0.290E-01
DAV:   2    -0.192246221370E+03   -0.56315E-02   -0.36009E-02 11200   0.907E-01    0.644E-01
DAV:   3    -0.192241621576E+03    0.45998E-02   -0.11358E-02 12440   0.821E-01    0.235E-01
DAV:   4    -0.192241831029E+03   -0.20945E-03   -0.22143E-03 10360   0.402E-01    0.269E-01
DAV:   5    -0.192241012379E+03    0.81865E-03   -0.14183E-03 10080   0.351E-01    0.983E-02
DAV:   6    -0.192240975238E+03    0.37142E-04   -0.51313E-04 10160   0.125E-01
  36 F= -.19224098E+03 E0= -.19215303E+03  d E =-.145734E-01
       N       E                     dE             d eps       ncg     rms          rms(c)
DAV:   1    -0.192253132073E+03   -0.12120E-01   -0.89081E-01  8160   0.203E+00    0.264E-01
DAV:   2    -0.192257171622E+03   -0.40395E-02   -0.30089E-02 11360   0.753E-01    0.533E-01
DAV:   3    -0.192254250066E+03    0.29216E-02   -0.90373E-03 12360   0.726E-01    0.239E-01
DAV:   4    -0.192254142480E+03    0.10759E-03   -0.17767E-03 11200   0.340E-01    0.216E-01
DAV:   5    -0.192253605045E+03    0.53743E-03   -0.10346E-03 10320   0.298E-01    0.907E-02
DAV:   6    -0.192253600181E+03    0.48641E-05   -0.48083E-04  9280   0.131E-01
  37 F= -.19225360E+03 E0= -.19216465E+03  d E =-.126249E-01
       N       E                     dE             d eps       ncg     rms          rms(c)
DAV:   1    -0.192284991673E+03   -0.31387E-01   -0.17750E+01  8160   0.907E+00    0.108E+00
DAV:   2    -0.192348808964E+03   -0.63817E-01   -0.57373E-01 11040   0.296E+00    0.189E+00
DAV:   3    -0.192312013440E+03    0.36796E-01   -0.14858E-01 12240   0.273E+00    0.992E-01
DAV:   4    -0.192309895259E+03    0.21182E-02   -0.34562E-02 12240   0.149E+00    0.959E-01
DAV:   5    -0.192300054259E+03    0.98410E-02   -0.20343E-02 10920   0.131E+00    0.397E-01
DAV:   6    -0.192299243488E+03    0.81077E-03   -0.83923E-03 11560   0.504E-01    0.251E-01
DAV:   7    -0.192297973095E+03    0.12704E-02   -0.28443E-03 11040   0.273E-01    0.131E-01
DAV:   8    -0.192297867256E+03    0.10584E-03   -0.65332E-04  9880   0.207E-01    0.844E-02
DAV:   9    -0.192297794590E+03    0.72666E-04   -0.19432E-04  7800   0.103E-01
  38 F= -.19229779E+03 E0= -.19220713E+03  d E =-.441944E-01
       N       E                     dE             d eps       ncg     rms          rms(c)
DAV:   1    -0.192301532820E+03   -0.36656E-02   -0.29943E-01  8160   0.115E+00    0.125E-01
DAV:   2    -0.192302689396E+03   -0.11566E-02   -0.11195E-02 11640   0.391E-01    0.205E-01
DAV:   3    -0.192302363377E+03    0.32602E-03   -0.18486E-03 12640   0.331E-01    0.146E-01
DAV:   4    -0.192302161687E+03    0.20169E-03   -0.39303E-04  8680   0.163E-01    0.623E-02
DAV:   5    -0.192302125750E+03    0.35937E-04   -0.16442E-04  7560   0.839E-02
  39 F= -.19230213E+03 E0= -.19221166E+03  d E =-.433116E-02
       N       E                     dE             d eps       ncg     rms          rms(c)
DAV:   1    -0.192310206639E+03   -0.80450E-02   -0.26454E+00  8160   0.344E+00    0.386E-01
DAV:   2    -0.192317220353E+03   -0.70137E-02   -0.84150E-02 11480   0.982E-01    0.495E-01
DAV:   3    -0.192316206420E+03    0.10139E-02   -0.15131E-02 11480   0.912E-01    0.447E-01
DAV:   4    -0.192314527874E+03    0.16785E-02   -0.47345E-03 12000   0.544E-01    0.265E-01
DAV:   5    -0.192313951941E+03    0.57593E-03   -0.21132E-03 10560   0.415E-01    0.172E-01
DAV:   6    -0.192313814515E+03    0.13743E-03   -0.12760E-03 10960   0.238E-01    0.104E-01
DAV:   7    -0.192313651900E+03    0.16261E-03   -0.47758E-04  9520   0.131E-01    0.656E-02
DAV:   8    -0.192313612706E+03    0.39194E-04   -0.12064E-04  7040   0.957E-02
  40 F= -.19231361E+03 E0= -.19222415E+03  d E =-.114870E-01
       N       E                     dE             d eps       ncg     rms          rms(c)
DAV:   1    -0.192317393671E+03   -0.37418E-02   -0.95048E-01  8160   0.207E+00    0.230E-01
DAV:   2    -0.192320663403E+03   -0.32697E-02   -0.35478E-02 12240   0.668E-01    0.331E-01
DAV:   3    -0.192320167717E+03    0.49569E-03   -0.51473E-03 12560   0.593E-01    0.277E-01
DAV:   4    -0.192319336038E+03    0.83168E-03   -0.14415E-03 11320   0.301E-01    0.930E-02
DAV:   5    -0.192319260332E+03    0.75706E-04   -0.61076E-04 10000   0.106E-01
  41 F= -.19231926E+03 E0= -.19223108E+03  d E =-.564763E-02
       N       E                     dE             d eps       ncg     rms          rms(c)
DAV:   1    -0.192324908770E+03   -0.55727E-02   -0.16665E+00  8160   0.275E+00    0.335E-01
DAV:   2    -0.192333310884E+03   -0.84021E-02   -0.58968E-02 12680   0.102E+00    0.722E-01
DAV:   3    -0.192327760364E+03    0.55505E-02   -0.15515E-02 11960   0.954E-01    0.287E-01
DAV:   4    -0.192327382549E+03    0.37782E-03   -0.23802E-03 11560   0.384E-01    0.219E-01
DAV:   5    -0.192326877400E+03    0.50515E-03   -0.14160E-03 11400   0.341E-01    0.125E-01
DAV:   6    -0.192326877375E+03    0.24914E-07   -0.78652E-04 10600   0.189E-01
  42 F= -.19232688E+03 E0= -.19224092E+03  d E =-.761704E-02
       N       E                     dE             d eps       ncg     rms          rms(c)
DAV:   1    -0.192330259190E+03   -0.33818E-02   -0.11719E+00  8160   0.231E+00    0.259E-01
DAV:   2    -0.192333501862E+03   -0.32427E-02   -0.38110E-02 12280   0.633E-01    0.328E-01
DAV:   3    -0.192332996190E+03    0.50567E-03   -0.64290E-03 11960   0.623E-01    0.290E-01
DAV:   4    -0.192332231113E+03    0.76508E-03   -0.19451E-03 11120   0.355E-01    0.152E-01
DAV:   5    -0.192332069048E+03    0.16206E-03   -0.80053E-04 10160   0.253E-01    0.115E-01
DAV:   6    -0.192332038527E+03    0.30522E-04   -0.53738E-04  9680   0.169E-01
  43 F= -.19233204E+03 E0= -.19224804E+03  d E =-.516115E-02
       N       E                     dE             d eps       ncg     rms          rms(c)
DAV:   1    -0.192333827159E+03   -0.17581E-02   -0.35119E+00  8160   0.400E+00    0.435E-01
DAV:   2    -0.192341407771E+03   -0.75806E-02   -0.10409E-01 12160   0.963E-01    0.441E-01
DAV:   3    -0.192341963520E+03   -0.55575E-03   -0.15328E-02 11080   0.954E-01    0.542E-01
DAV:   4    -0.192339036532E+03    0.29270E-02   -0.58926E-03 11960   0.641E-01    0.249E-01
DAV:   5    -0.192338667382E+03    0.36915E-03   -0.26674E-03 11800   0.425E-01    0.213E-01
DAV:   6    -0.192338457858E+03    0.20952E-03   -0.17289E-03 11000   0.326E-01    0.135E-01
DAV:   7    -0.192338174780E+03    0.28308E-03   -0.65004E-04 10560   0.159E-01    0.597E-02
DAV:   8    -0.192338151081E+03    0.23699E-04   -0.12551E-04  6640   0.971E-02
  44 F= -.19233815E+03 E0= -.19225830E+03  d E =-.611255E-02
       N       E                     dE             d eps       ncg     rms          rms(c)
DAV:   1    -0.192336592209E+03    0.15826E-02   -0.37511E-01  8160   0.131E+00    0.141E-01
DAV:   2    -0.192337309220E+03   -0.71701E-03   -0.11179E-02 12080   0.294E-01    0.120E-01
DAV:   3    -0.192337441753E+03   -0.13253E-03   -0.15214E-03 12400   0.292E-01    0.174E-01
DAV:   4    -0.192337076810E+03    0.36494E-03   -0.62664E-04  9320   0.204E-01    0.655E-02
DAV:   5    -0.192337113784E+03   -0.36975E-04   -0.30488E-04  8440   0.142E-01
  45 F= -.19233711E+03 E0= -.19225607E+03  d E =0.103730E-02
       N       E                     dE             d eps       ncg     rms          rms(c)
DAV:   1    -0.192338419445E+03   -0.13426E-02   -0.28395E-01  8160   0.114E+00    0.125E-01
DAV:   2    -0.192339165540E+03   -0.74610E-03   -0.89985E-03 12080   0.295E-01    0.142E-01
DAV:   3    -0.192338965175E+03    0.20037E-03   -0.14566E-03 11920   0.254E-01    0.130E-01
DAV:   4    -0.192338836443E+03    0.12873E-03   -0.46373E-04  9000   0.190E-01    0.786E-02
DAV:   5    -0.192338749121E+03    0.87323E-04   -0.14591E-04  5880   0.841E-02
  46 F= -.19233875E+03 E0= -.19225897E+03  d E =-.163534E-02
       N       E                     dE             d eps       ncg     rms          rms(c)
DAV:   1    -0.192338880048E+03   -0.43605E-04   -0.23992E-03  8760   0.131E-01    0.637E-02
DAV:   2    -0.192339660519E+03   -0.78047E-03   -0.14379E-03 11080   0.341E-01    0.256E-01
DAV:   3    -0.192338833858E+03    0.82666E-03   -0.91132E-04 10160   0.278E-01    0.318E-02
DAV:   4    -0.192338834343E+03   -0.48479E-06   -0.30861E-05  6120   0.431E-02
  47 F= -.19233883E+03 E0= -.19225909E+03  d E =-.852224E-04
