<?xml version="1.0" encoding="ISO-8859-1"?>
<modeling>
 <generator>
  <i name="program" type="string">vasp </i>
  <i name="version" type="string">5.4.1  </i>
  <i name="subversion" type="string">05Feb16 (build Jul 05 2020 17:13:04) complex                          parallel </i>
  <i name="platform" type="string">IFC91_ompi </i>
  <i name="date" type="string">2024 04 20 </i>
  <i name="time" type="string">11:57:25 </i>
 </generator>
 <incar>
  <i type="int" name="ISTART">     0</i>
  <i type="string" name="PREC">normal</i>
  <i type="string" name="ALGO"> Normal</i>
  <i type="int" name="ISPIN">     1</i>
  <i type="int" name="ICHARG">     2</i>
  <i type="int" name="IBRION">     1</i>
  <i type="int" name="NSW">   100</i>
  <i type="int" name="ISIF">     3</i>
  <i type="int" name="ISYM">     0</i>
  <i name="SYMPREC">      0.00000001</i>
  <i name="POTIM">      0.50000000</i>
  <i type="logical" name="LREAL"> F  </i>
  <i type="logical" name="LPLANE"> F  </i>
  <i type="int" name="ISMEAR">     0</i>
  <i type="logical" name="LWAVE"> F  </i>
  <i type="logical" name="LCHARG"> F  </i>
  <v type="int" name="KPOINT_BSE">    -1     0     0     0</v>
 </incar>
 <kpoints>
  <generation param="Gamma">
   <v type="int" name="divisions">       8        8        1 </v>
   <v name="usershift">      0.00000000       0.00000000       0.00000000 </v>
   <v name="genvec1">      0.12500000       0.00000000       0.00000000 </v>
   <v name="genvec2">     -0.00000000       0.12500000       0.00000000 </v>
   <v name="genvec3">      0.00000000       0.00000000       1.00000000 </v>
   <v name="shift">      0.00000000       0.00000000       0.00000000 </v>
  </generation>
  <varray name="kpointlist" >
   <v>       0.00000000       0.00000000       0.00000000 </v>
   <v>       0.12500000       0.00000000       0.00000000 </v>
   <v>       0.25000000       0.00000000       0.00000000 </v>
   <v>       0.37500000       0.00000000       0.00000000 </v>
   <v>       0.50000000       0.00000000       0.00000000 </v>
   <v>       0.00000000       0.12500000       0.00000000 </v>
   <v>       0.12500000       0.12500000       0.00000000 </v>
   <v>       0.25000000       0.12500000       0.00000000 </v>
   <v>       0.37500000       0.12500000       0.00000000 </v>
   <v>       0.50000000       0.12500000       0.00000000 </v>
   <v>      -0.37500000       0.12500000       0.00000000 </v>
   <v>      -0.25000000       0.12500000       0.00000000 </v>
   <v>      -0.12500000       0.12500000       0.00000000 </v>
   <v>       0.00000000       0.25000000       0.00000000 </v>
   <v>       0.12500000       0.25000000       0.00000000 </v>
   <v>       0.25000000       0.25000000       0.00000000 </v>
   <v>       0.37500000       0.25000000       0.00000000 </v>
   <v>       0.50000000       0.25000000       0.00000000 </v>
   <v>      -0.37500000       0.25000000       0.00000000 </v>
   <v>      -0.25000000       0.25000000       0.00000000 </v>
   <v>      -0.12500000       0.25000000       0.00000000 </v>
   <v>      -0.00000000       0.37500000       0.00000000 </v>
   <v>       0.12500000       0.37500000       0.00000000 </v>
   <v>       0.25000000       0.37500000       0.00000000 </v>
   <v>       0.37500000       0.37500000       0.00000000 </v>
   <v>       0.50000000       0.37500000       0.00000000 </v>
   <v>      -0.37500000       0.37500000       0.00000000 </v>
   <v>      -0.25000000       0.37500000       0.00000000 </v>
   <v>      -0.12500000       0.37500000       0.00000000 </v>
   <v>       0.00000000       0.50000000       0.00000000 </v>
   <v>       0.12500000       0.50000000       0.00000000 </v>
   <v>       0.25000000       0.50000000       0.00000000 </v>
   <v>       0.37500000       0.50000000       0.00000000 </v>
   <v>       0.50000000       0.50000000       0.00000000 </v>
  </varray>
  <varray name="weights" >
   <v>       0.01562500 </v>
   <v>       0.03125000 </v>
   <v>       0.03125000 </v>
   <v>       0.03125000 </v>
   <v>       0.01562500 </v>
   <v>       0.03125000 </v>
   <v>       0.03125000 </v>
   <v>       0.03125000 </v>
   <v>       0.03125000 </v>
   <v>       0.03125000 </v>
   <v>       0.03125000 </v>
   <v>       0.03125000 </v>
   <v>       0.03125000 </v>
   <v>       0.03125000 </v>
   <v>       0.03125000 </v>
   <v>       0.03125000 </v>
   <v>       0.03125000 </v>
   <v>       0.03125000 </v>
   <v>       0.03125000 </v>
   <v>       0.03125000 </v>
   <v>       0.03125000 </v>
   <v>       0.03125000 </v>
   <v>       0.03125000 </v>
   <v>       0.03125000 </v>
   <v>       0.03125000 </v>
   <v>       0.03125000 </v>
   <v>       0.03125000 </v>
   <v>       0.03125000 </v>
   <v>       0.03125000 </v>
   <v>       0.01562500 </v>
   <v>       0.03125000 </v>
   <v>       0.03125000 </v>
   <v>       0.03125000 </v>
   <v>       0.01562500 </v>
  </varray>
 </kpoints>
 <parameters>
  <separator name="general" >
   <i type="string" name="SYSTEM">unknown system</i>
   <i type="logical" name="LCOMPAT"> F  </i>
  </separator>
  <separator name="electronic" >
   <i type="string" name="PREC">normal</i>
   <i name="ENMAX">    280.00000000</i>
   <i name="ENAUG">    373.43800000</i>
   <i name="EDIFF">      0.00010000</i>
   <i type="int" name="IALGO">    38</i>
   <i type="int" name="IWAVPR">    11</i>
   <i type="int" name="NBANDS">   120</i>
   <i name="NELECT">    159.00000000</i>
   <i type="int" name="TURBO">     0</i>
   <i type="int" name="IRESTART">     0</i>
   <i type="int" name="NREBOOT">     0</i>
   <i type="int" name="NMIN">     0</i>
   <i name="EREF">      0.00000000</i>
   <separator name="electronic smearing" >
    <i type="int" name="ISMEAR">     0</i>
    <i name="SIGMA">      0.20000000</i>
    <i name="KSPACING">      0.50000000</i>
    <i type="logical" name="KGAMMA"> T  </i>
   </separator>
   <separator name="electronic projectors" >
    <i type="logical" name="LREAL"> F  </i>
    <v name="ROPT">      0.00000000      0.00000000      0.00000000      0.00000000</v>
    <i type="int" name="LMAXPAW">  -100</i>
    <i type="int" name="LMAXMIX">     2</i>
    <i type="logical" name="NLSPLINE"> F  </i>
   </separator>
   <separator name="electronic startup" >
    <i type="int" name="ISTART">     0</i>
    <i type="int" name="ICHARG">     2</i>
    <i type="int" name="INIWAV">     1</i>
   </separator>
   <separator name="electronic spin" >
    <i type="int" name="ISPIN">     1</i>
    <i type="logical" name="LNONCOLLINEAR"> F  </i>
    <v name="MAGMOM">      1.00000000      1.00000000      1.00000000      1.00000000      1.00000000      1.00000000      1.00000000      1.00000000      1.00000000      1.00000000      1.00000000      1.00000000      1.00000000      1.00000000      1.00000000      1.00000000      1.00000000      1.00000000      1.00000000      1.00000000
      1.00000000      1.00000000      1.00000000      1.00000000      1.00000000      1.00000000      1.00000000</v>
    <i name="NUPDOWN">     -1.00000000</i>
    <i type="logical" name="LSORBIT"> F  </i>
    <v name="SAXIS">      0.00000000      0.00000000      1.00000000</v>
    <i type="logical" name="LSPIRAL"> F  </i>
    <v name="QSPIRAL">      0.00000000      0.00000000      0.00000000</v>
    <i type="logical" name="LZEROZ"> F  </i>
   </separator>
   <separator name="electronic exchange-correlation" >
    <i type="logical" name="LASPH"> F  </i>
    <i type="logical" name="LMETAGGA"> F  </i>
   </separator>
   <separator name="electronic convergence" >
    <i type="int" name="NELM">    60</i>
    <i type="int" name="NELMDL">    -5</i>
    <i type="int" name="NELMIN">     2</i>
    <i name="ENINI">    280.00000000</i>
    <separator name="electronic convergence detail" >
     <i type="logical" name="LDIAG"> T  </i>
     <i type="logical" name="LSUBROT"> F  </i>
     <i name="WEIMIN">      0.00100000</i>
     <i name="EBREAK">      0.00000021</i>
     <i name="DEPER">      0.30000000</i>
     <i type="int" name="NRMM">     4</i>
     <i name="TIME">      0.40000000</i>
    </separator>
   </separator>
   <separator name="electronic mixer" >
    <i name="AMIX">      0.40000000</i>
    <i name="BMIX">      1.00000000</i>
    <i name="AMIN">      0.10000000</i>
    <i name="AMIX_MAG">      1.60000000</i>
    <i name="BMIX_MAG">      1.00000000</i>
    <separator name="electronic mixer details" >
     <i type="int" name="IMIX">     4</i>
     <i type="logical" name="MIXFIRST"> F  </i>
     <i type="int" name="MAXMIX">   -45</i>
     <i name="WC">    100.00000000</i>
     <i type="int" name="INIMIX">     1</i>
     <i type="int" name="MIXPRE">     1</i>
     <i type="int" name="MREMOVE">     5</i>
    </separator>
   </separator>
   <separator name="electronic dipolcorrection" >
    <i type="logical" name="LDIPOL"> F  </i>
    <i type="logical" name="LMONO"> F  </i>
    <i type="int" name="IDIPOL">     0</i>
    <i name="EPSILON">      1.00000000</i>
    <v name="DIPOL">   -100.00000000   -100.00000000   -100.00000000</v>
    <i name="EFIELD">      0.00000000</i>
   </separator>
  </separator>
  <separator name="grids" >
   <i type="int" name="NGX">    42</i>
   <i type="int" name="NGY">    42</i>
   <i type="int" name="NGZ">   126</i>
   <i type="int" name="NGXF">    84</i>
   <i type="int" name="NGYF">    84</i>
   <i type="int" name="NGZF">   252</i>
   <i type="logical" name="ADDGRID"> F  </i>
  </separator>
  <separator name="ionic" >
   <i type="int" name="NSW">   100</i>
   <i type="int" name="IBRION">     1</i>
   <i type="int" name="ISIF">     3</i>
   <i name="PSTRESS">      0.00000000</i>
   <i name="EDIFFG">      0.00100000</i>
   <i type="int" name="NFREE">     0</i>
   <i name="POTIM">      0.50000000</i>
   <i name="SMASS">     -3.00000000</i>
   <i name="SCALEE">      1.00000000</i>
  </separator>
  <separator name="ionic md" >
   <i name="TEBEG">      0.00010000</i>
   <i name="TEEND">      0.00010000</i>
   <i type="int" name="NBLOCK">     1</i>
   <i type="int" name="KBLOCK">   100</i>
   <i type="int" name="NPACO">   256</i>
   <i name="APACO">     16.00000000</i>
  </separator>
  <separator name="symmetry" >
   <i type="int" name="ISYM">     0</i>
   <i name="SYMPREC">      0.00000001</i>
  </separator>
  <separator name="dos" >
   <i type="logical" name="LORBIT"> F  </i>
   <v name="RWIGS">     -1.00000000     -1.00000000     -1.00000000     -1.00000000</v>
   <i type="int" name="NEDOS">   301</i>
   <i name="EMIN">     10.00000000</i>
   <i name="EMAX">    -10.00000000</i>
   <i name="EFERMI">      0.00000000</i>
  </separator>
  <separator name="writing" >
   <i type="int" name="NWRITE">     2</i>
   <i type="logical" name="LWAVE"> F  </i>
   <i type="logical" name="LCHARG"> F  </i>
   <i type="logical" name="LPARD"> F  </i>
   <i type="logical" name="LVTOT"> F  </i>
   <i type="logical" name="LVHAR"> F  </i>
   <i type="logical" name="LELF"> F  </i>
   <i type="logical" name="LOPTICS"> F  </i>
   <v name="STM">      0.00000000      0.00000000      0.00000000      0.00000000      0.00000000      0.00000000      0.00000000</v>
  </separator>
  <separator name="performance" >
   <i type="int" name="NPAR">    40</i>
   <i type="int" name="NSIM">     4</i>
   <i type="int" name="NBLK">    -1</i>
   <i type="logical" name="LPLANE"> F  </i>
   <i type="logical" name="LSCALAPACK"> T  </i>
   <i type="logical" name="LSCAAWARE"> F  </i>
   <i type="logical" name="LSCALU"> F  </i>
   <i type="logical" name="LASYNC"> F  </i>
   <i type="logical" name="LORBITALREAL"> F  </i>
  </separator>
  <separator name="miscellaneous" >
   <i type="int" name="IDIOT">     3</i>
   <i type="logical" name="LMUSIC"> F  </i>
   <v name="POMASS">     50.94100000     95.94000000    183.85000000     32.06600000</v>
   <v name="DARWINR">      0.00000000      0.00000000      0.00000000      0.00000000</v>
   <v name="DARWINV">      1.00000000      1.00000000      1.00000000      1.00000000</v>
   <i type="logical" name="LCORR"> T  </i>
  </separator>
  <i type="logical" name="GGA_COMPAT"> T  </i>
  <i type="logical" name="LBERRY"> F  </i>
  <i type="int" name="ICORELEVEL">     0</i>
  <i type="logical" name="LDAU"> F  </i>
  <i type="int" name="I_CONSTRAINED_M">     0</i>
  <separator name="electronic exchange-correlation" >
   <i type="string" name="GGA">--</i>
   <i type="int" name="VOSKOWN">     0</i>
   <i type="logical" name="LHFCALC"> F  </i>
   <i type="string" name="PRECFOCK"></i>
   <i type="logical" name="LSYMGRAD"> F  </i>
   <i type="logical" name="LHFONE"> F  </i>
   <i type="logical" name="LRHFCALC"> F  </i>
   <i type="logical" name="LTHOMAS"> F  </i>
   <i type="logical" name="LMODELHF"> F  </i>
   <i name="ENCUT4O">     -1.00000000</i>
   <i type="int" name="EXXOEP">     0</i>
   <i type="int" name="FOURORBIT">     0</i>
   <i name="AEXX">      0.00000000</i>
   <i name="HFALPHA">      0.00000000</i>
   <i name="MCALPHA">      0.00000000</i>
   <i name="ALDAX">      1.00000000</i>
   <i name="AGGAX">      1.00000000</i>
   <i name="ALDAC">      1.00000000</i>
   <i name="AGGAC">      1.00000000</i>
   <i type="int" name="NKREDX">     1</i>
   <i type="int" name="NKREDY">     1</i>
   <i type="int" name="NKREDZ">     1</i>
   <i type="logical" name="SHIFTRED"> F  </i>
   <i type="logical" name="ODDONLY"> F  </i>
   <i type="logical" name="EVENONLY"> F  </i>
   <i type="int" name="LMAXFOCK">     0</i>
   <i type="int" name="NMAXFOCKAE">     0</i>
   <i type="logical" name="LFOCKAEDFT"> F  </i>
   <i name="HFSCREEN">      0.00000000</i>
   <i name="HFSCREENC">      0.00000000</i>
   <i type="int" name="NBANDSGWLOW">     0</i>
  </separator>
  <separator name="vdW DFT" >
   <i type="logical" name="LUSE_VDW"> F  </i>
   <i name="Zab_VDW">     -0.84910000</i>
   <i name="PARAM1">      0.12340000</i>
   <i name="PARAM2">      1.00000000</i>
   <i name="PARAM3">      0.00000000</i>
  </separator>
  <separator name="model GW" >
   <i type="int" name="MODEL_GW">     0</i>
   <i name="MODEL_EPS0">     58.26239943</i>
   <i name="MODEL_ALPHA">      1.00000000</i>
  </separator>
  <separator name="linear response parameters" >
   <i type="logical" name="LEPSILON"> F  </i>
   <i type="logical" name="LRPA"> F  </i>
   <i type="logical" name="LNABLA"> F  </i>
   <i type="logical" name="LVEL"> F  </i>
   <i type="int" name="KINTER">     0</i>
   <i name="CSHIFT">      0.10000000</i>
   <i name="OMEGAMAX">     -1.00000000</i>
   <i name="DEG_THRESHOLD">      0.00200000</i>
  </separator>
  <separator name="orbital magnetization" >
   <i type="logical" name="NUCIND"> F  </i>
   <v name="MAGPOS">      0.00000000      0.00000000      0.00000000</v>
   <i type="logical" name="LNICSALL"> T  </i>
   <i type="logical" name="ORBITALMAG"> F  </i>
   <i type="logical" name="LMAGBLOCH"> F  </i>
   <i type="logical" name="LCHIMAG"> F  </i>
   <i type="logical" name="LGAUGE"> T  </i>
   <i type="int" name="MAGATOM">     0</i>
   <v name="MAGDIPOL">      0.00000000      0.00000000      0.00000000</v>
   <v name="AVECCONST">      0.00000000      0.00000000      0.00000000</v>
  </separator>
  <separator name="response functions" >
   <i type="logical" name="LADDER"> F  </i>
   <i type="logical" name="LFXC"> F  </i>
   <i type="logical" name="LHARTREE"> T  </i>
   <i type="int" name="IBSE">     0</i>
   <v type="int" name="KPOINT">    -1     0     0     0</v>
   <i type="logical" name="LTCTE"> F  </i>
   <i type="logical" name="LTETE"> F  </i>
   <i type="logical" name="LTRIPLET"> F  </i>
   <i type="logical" name="LFXCEPS"> F  </i>
   <i type="logical" name="LFXHEG"> F  </i>
   <i type="int" name="NATURALO">     0</i>
   <i type="logical" name="L2ORDER"> F  </i>
   <i type="logical" name="LUSEW"> F  </i>
   <i name="ENCUTGW">     -2.00000000</i>
   <i name="ENCUTGWSOFT">     -2.00000000</i>
   <i name="ENCUTLF">     -1.00000000</i>
   <i type="int" name="LMAXMP2">    -1</i>
   <i name="SCISSOR">      0.00000000</i>
   <i type="int" name="NOMEGA">     0</i>
   <i type="int" name="NOMEGAR">     0</i>
   <i type="int" name="NBANDSGW">    -1</i>
   <i type="int" name="NBANDSO">    -1</i>
   <i type="int" name="NBANDSV">    -1</i>
   <i type="int" name="NELM">     1</i>
   <i type="int" name="NELMHF">     1</i>
   <i type="int" name="DIM">     3</i>
   <i type="int" name="ANTIRES">     0</i>
   <i name="OMEGAMAX">    -30.00000000</i>
   <i name="OMEGAMIN">    -30.00000000</i>
   <i name="OMEGATL">   -200.00000000</i>
   <i type="int" name="OMEGAGRID">     0</i>
   <i name="CSHIFT">     -0.10000000</i>
   <i type="logical" name="SELFENERGY"> F  </i>
   <i type="logical" name="LSPECTRAL"> F  </i>
   <i type="logical" name="LSPECTRALGW"> F  </i>
   <i type="logical" name="LSINGLES"> F  </i>
   <i type="logical" name="LFERMIGW"> F  </i>
   <i type="logical" name="ODDONLYGW"> F  </i>
   <i type="logical" name="EVENONLYGW"> F  </i>
   <i type="int" name="NKREDLFX">     1</i>
   <i type="int" name="NKREDLFY">     1</i>
   <i type="int" name="NKREDLFZ">     1</i>
   <i type="int" name="MAXMEM">  1800</i>
   <i type="int" name="TELESCOPE">     0</i>
   <i type="int" name="TAUPAR">     1</i>
   <i type="int" name="OMEGAPAR">    -1</i>
   <i name="LAMBDA">      1.00000000</i>
  </separator>
  <separator name="External order field" >
   <i name="OFIELD_KAPPA">      0.00000000</i>
   <v name="OFIELD_K">      0.00000000      0.00000000      0.00000000</v>
   <i name="OFIELD_Q6_NEAR">      0.00000000</i>
   <i name="OFIELD_Q6_FAR">      0.00000000</i>
   <i name="OFIELD_A">      0.00000000</i>
  </separator>
 </parameters>
 <atominfo>
  <atoms>      27 </atoms>
  <types>       4 </types>
  <array name="atoms" >
   <dimension dim="1">ion</dimension>
   <field type="string">element</field>
   <field type="int">atomtype</field>
   <set>
    <rc><c>V </c><c>   1</c></rc>
    <rc><c>V </c><c>   1</c></rc>
    <rc><c>V </c><c>   1</c></rc>
    <rc><c>Mo</c><c>   2</c></rc>
    <rc><c>Mo</c><c>   2</c></rc>
    <rc><c>Mo</c><c>   2</c></rc>
    <rc><c>W </c><c>   3</c></rc>
    <rc><c>W </c><c>   3</c></rc>
    <rc><c>W </c><c>   3</c></rc>
    <rc><c>S </c><c>   4</c></rc>
    <rc><c>S </c><c>   4</c></rc>
    <rc><c>S </c><c>   4</c></rc>
    <rc><c>S </c><c>   4</c></rc>
    <rc><c>S </c><c>   4</c></rc>
    <rc><c>S </c><c>   4</c></rc>
    <rc><c>S </c><c>   4</c></rc>
    <rc><c>S </c><c>   4</c></rc>
    <rc><c>S </c><c>   4</c></rc>
    <rc><c>S </c><c>   4</c></rc>
    <rc><c>S </c><c>   4</c></rc>
    <rc><c>S </c><c>   4</c></rc>
    <rc><c>S </c><c>   4</c></rc>
    <rc><c>S </c><c>   4</c></rc>
    <rc><c>S </c><c>   4</c></rc>
    <rc><c>S </c><c>   4</c></rc>
    <rc><c>S </c><c>   4</c></rc>
    <rc><c>S </c><c>   4</c></rc>
   </set>
  </array>
  <array name="atomtypes" >
   <dimension dim="1">type</dimension>
   <field type="int">atomspertype</field>
   <field type="string">element</field>
   <field>mass</field>
   <field>valence</field>
   <field type="string">pseudopotential</field>
   <set>
    <rc><c>   3</c><c>V </c><c>     50.94100000</c><c>      5.00000000</c><c> PAW_PBE V 08Apr2002                    </c></rc>
    <rc><c>   3</c><c>Mo</c><c>     95.94000000</c><c>      6.00000000</c><c> PAW_PBE Mo 08Apr2002                   </c></rc>
    <rc><c>   3</c><c>W </c><c>    183.85000000</c><c>      6.00000000</c><c> PAW_PBE W 08Apr2002                    </c></rc>
    <rc><c>  18</c><c>S </c><c>     32.06600000</c><c>      6.00000000</c><c>  PAW_PBE S 17Jan2003                   </c></rc>
   </set>
  </array>
 </atominfo>
 <structure name="initialpos" >
  <crystal>
   <varray name="basis" >
    <v>       8.66999996       5.03999989       0.00000000 </v>
    <v>      -8.66999982       5.04000013       0.00000000 </v>
    <v>       0.00000000       0.00000000      30.00000000 </v>
   </varray>
   <i name="volume">   2621.80797419 </i>
   <varray name="rec_basis" >
    <v>       0.05767013       0.09920635       0.00000000 </v>
    <v>      -0.05767013       0.09920635       0.00000000 </v>
    <v>       0.00000000       0.00000000       0.03333333 </v>
   </varray>
  </crystal>
  <varray name="positions" >
   <v>       0.33333334       0.33333334       0.00000000 </v>
   <v>       0.66666669       0.66666669       0.00000000 </v>
   <v>       0.66666669       0.33333334       0.00000000 </v>
   <v>       0.00000000       0.00000000       0.00000000 </v>
   <v>       0.33333334       0.00000000       0.00000000 </v>
   <v>       1.00000000       0.33333334       0.00000000 </v>
   <v>       0.00000000       0.66666669       0.00000000 </v>
   <v>       0.33333334       0.66666669       0.00000000 </v>
   <v>       0.66666669       0.00000000       0.00000000 </v>
   <v>       0.11068511       0.22244981       0.95539999 </v>
   <v>       0.22244981       0.11068511       0.04460000 </v>
   <v>       0.11068511       0.55578315       0.95539999 </v>
   <v>       0.22244981       0.44401845       0.04460000 </v>
   <v>       0.11068511       0.88911647       0.95539999 </v>
   <v>       0.22244981       0.77735180       0.04460000 </v>
   <v>       0.44401845       0.22244981       0.95539999 </v>
   <v>       0.55578315       0.11068511       0.04460000 </v>
   <v>       0.44401845       0.55578315       0.95539999 </v>
   <v>       0.55578315       0.44401845       0.04460000 </v>
   <v>       0.44401845       0.88911647       0.95539999 </v>
   <v>       0.55578315       0.77735180       0.04460000 </v>
   <v>       0.77735180       0.22244981       0.95539999 </v>
   <v>       0.88911647       0.11068511       0.04460000 </v>
   <v>       0.77735180       0.55578315       0.95539999 </v>
   <v>       0.88911647       0.44401845       0.04460000 </v>
   <v>       0.77735180       0.88911647       0.95539999 </v>
   <v>       0.88911647       0.77735180       0.04460000 </v>
  </varray>
 </structure>
 <calculation>
  <scstep>
   <time name="dav">   21.63   21.80</time>
   <time name="total">   21.70   21.93</time>
   <energy>
    <i name="alphaZ">     81.65567618 </i>
    <i name="ewald">  41891.17178794 </i>
    <i name="hartreedc"> -47723.81659694 </i>
    <i name="XCdc">   -242.92514259 </i>
    <i name="pawpsdc">   3467.42045192 </i>
    <i name="pawaedc">  -2871.19716117 </i>
    <i name="eentropy">     -0.53355349 </i>
    <i name="bandstr">   -239.37360208 </i>
    <i name="atom">   6761.44252427 </i>
    <i name="e_fr_energy">   1123.84438404 </i>
    <i name="e_wo_entrp">   1124.37793753 </i>
    <i name="e_0_energy">   1124.11116078 </i>
   </energy>
  </scstep>
  <scstep>
   <time name="dav">   28.20   28.27</time>
   <time name="total">   28.21   28.29</time>
   <energy>
    <i name="e_fr_energy">     -2.74430189 </i>
    <i name="e_wo_entrp">     -2.54929693 </i>
    <i name="e_0_energy">     -2.64679941 </i>
   </energy>
  </scstep>
  <scstep>
   <time name="dav">   27.36   27.43</time>
   <time name="total">   27.36   27.43</time>
   <energy>
    <i name="e_fr_energy">   -199.80506562 </i>
    <i name="e_wo_entrp">   -199.55047457 </i>
    <i name="e_0_energy">   -199.67777010 </i>
   </energy>
  </scstep>
  <scstep>
   <time name="dav">   30.14   30.21</time>
   <time name="total">   30.14   30.22</time>
   <energy>
    <i name="e_fr_energy">   -209.00237873 </i>
    <i name="e_wo_entrp">   -208.71686645 </i>
    <i name="e_0_energy">   -208.85962259 </i>
   </energy>
  </scstep>
  <scstep>
   <time name="dav">   28.22   28.29</time>
   <time name="total">   28.70   28.82</time>
   <energy>
    <i name="e_fr_energy">   -209.32201435 </i>
    <i name="e_wo_entrp">   -209.03962770 </i>
    <i name="e_0_energy">   -209.18082103 </i>
   </energy>
  </scstep>
  <scstep>
   <time name="dav">   30.26   30.33</time>
   <time name="total">   30.78   30.87</time>
   <energy>
    <i name="e_fr_energy">   -237.93288394 </i>
    <i name="e_wo_entrp">   -237.67393663 </i>
    <i name="e_0_energy">   -237.80341029 </i>
   </energy>
  </scstep>
  <scstep>
   <time name="dav">   32.75   32.83</time>
   <time name="total">   33.25   33.34</time>
   <energy>
    <i name="e_fr_energy">   -196.57145848 </i>
    <i name="e_wo_entrp">   -196.23023614 </i>
    <i name="e_0_energy">   -196.40084731 </i>
   </energy>
  </scstep>
  <scstep>
   <time name="dav">   29.25   29.32</time>
   <time name="total">   29.78   29.86</time>
   <energy>
    <i name="e_fr_energy">   -189.48697929 </i>
    <i name="e_wo_entrp">   -189.17559292 </i>
    <i name="e_0_energy">   -189.33128611 </i>
   </energy>
  </scstep>
  <scstep>
   <time name="dav">   32.75   32.83</time>
   <time name="total">   33.27   33.36</time>
   <energy>
    <i name="e_fr_energy">   -188.16339097 </i>
    <i name="e_wo_entrp">   -187.84548106 </i>
    <i name="e_0_energy">   -188.00443602 </i>
   </energy>
  </scstep>
  <scstep>
   <time name="dav">   32.28   32.36</time>
   <time name="total">   32.83   32.91</time>
   <energy>
    <i name="e_fr_energy">   -186.95783906 </i>
    <i name="e_wo_entrp">   -186.60549979 </i>
    <i name="e_0_energy">   -186.78166943 </i>
   </energy>
  </scstep>
  <scstep>
   <time name="dav">   32.74   32.82</time>
   <time name="total">   33.28   33.37</time>
   <energy>
    <i name="e_fr_energy">   -187.05325381 </i>
    <i name="e_wo_entrp">   -186.71128069 </i>
    <i name="e_0_energy">   -186.88226725 </i>
   </energy>
  </scstep>
  <scstep>
   <time name="dav">   30.84   30.92</time>
   <time name="total">   31.39   31.47</time>
   <energy>
    <i name="e_fr_energy">   -186.99485663 </i>
    <i name="e_wo_entrp">   -186.66399579 </i>
    <i name="e_0_energy">   -186.82942621 </i>
   </energy>
  </scstep>
  <scstep>
   <time name="dav">   31.74   31.81</time>
   <time name="total">   32.27   32.36</time>
   <energy>
    <i name="e_fr_energy">   -186.88852728 </i>
    <i name="e_wo_entrp">   -186.55390437 </i>
    <i name="e_0_energy">   -186.72121583 </i>
   </energy>
  </scstep>
  <scstep>
   <time name="dav">   31.99   32.07</time>
   <time name="total">   32.54   32.62</time>
   <energy>
    <i name="e_fr_energy">   -186.85101012 </i>
    <i name="e_wo_entrp">   -186.50647016 </i>
    <i name="e_0_energy">   -186.67874014 </i>
   </energy>
  </scstep>
  <scstep>
   <time name="dav">   30.81   30.88</time>
   <time name="total">   31.35   31.43</time>
   <energy>
    <i name="e_fr_energy">   -186.84957695 </i>
    <i name="e_wo_entrp">   -186.50579657 </i>
    <i name="e_0_energy">   -186.67768676 </i>
   </energy>
  </scstep>
  <scstep>
   <time name="dav">   32.37   32.45</time>
   <time name="total">   32.92   33.01</time>
   <energy>
    <i name="e_fr_energy">   -186.84363221 </i>
    <i name="e_wo_entrp">   -186.50037206 </i>
    <i name="e_0_energy">   -186.67200213 </i>
   </energy>
  </scstep>
  <scstep>
   <time name="dav">   31.33   31.41</time>
   <time name="total">   31.87   31.95</time>
   <energy>
    <i name="e_fr_energy">   -186.84231967 </i>
    <i name="e_wo_entrp">   -186.50053710 </i>
    <i name="e_0_energy">   -186.67142839 </i>
   </energy>
  </scstep>
  <scstep>
   <time name="dav">   29.38   29.45</time>
   <time name="total">   29.93   30.01</time>
   <energy>
    <i name="e_fr_energy">   -186.84208622 </i>
    <i name="e_wo_entrp">   -186.49981360 </i>
    <i name="e_0_energy">   -186.67094991 </i>
   </energy>
  </scstep>
  <scstep>
   <time name="dav">   27.90   27.97</time>
   <time name="total">   28.44   28.51</time>
   <energy>
    <i name="e_fr_energy">   -186.84188812 </i>
    <i name="e_wo_entrp">   -186.49951729 </i>
    <i name="e_0_energy">   -186.67070271 </i>
   </energy>
  </scstep>
  <scstep>
   <time name="dav">   23.36   23.42</time>
   <time name="total">   23.91   23.97</time>
   <energy>
    <i name="e_fr_energy">   -186.84262636 </i>
    <i name="e_wo_entrp">   -186.50069325 </i>
    <i name="e_0_energy">   -186.67165980 </i>
   </energy>
  </scstep>
  <scstep>
   <time name="dav">   21.62   21.67</time>
   <time name="total">   22.16   22.22</time>
   <energy>
    <i name="e_fr_energy">   -186.84340501 </i>
    <i name="e_wo_entrp">   -186.50144435 </i>
    <i name="e_0_energy">   -186.67242468 </i>
   </energy>
  </scstep>
  <scstep>
   <time name="dav">   20.16   20.21</time>
   <time name="total">   20.70   20.76</time>
   <energy>
    <i name="e_fr_energy">   -186.84440561 </i>
    <i name="e_wo_entrp">   -186.50233554 </i>
    <i name="e_0_energy">   -186.67337058 </i>
   </energy>
  </scstep>
  <scstep>
   <time name="dav">   20.15   20.20</time>
   <time name="total">   20.69   20.75</time>
   <energy>
    <i name="e_fr_energy">   -186.84556805 </i>
    <i name="e_wo_entrp">   -186.50362117 </i>
    <i name="e_0_energy">   -186.67459461 </i>
   </energy>
  </scstep>
  <scstep>
   <time name="dav">   18.92   18.96</time>
   <time name="total">   19.47   19.52</time>
   <energy>
    <i name="e_fr_energy">   -186.84612450 </i>
    <i name="e_wo_entrp">   -186.50411656 </i>
    <i name="e_0_energy">   -186.67512053 </i>
   </energy>
  </scstep>
  <scstep>
   <time name="dav">   16.14   16.17</time>
   <time name="total">   16.67   16.72</time>
   <energy>
    <i name="e_fr_energy">   -186.84651734 </i>
    <i name="e_wo_entrp">   -186.50449366 </i>
    <i name="e_0_energy">   -186.67550550 </i>
   </energy>
  </scstep>
  <scstep>
   <time name="dav">   18.92   18.97</time>
   <time name="total">   19.47   19.53</time>
   <energy>
    <i name="e_fr_energy">   -186.84676132 </i>
    <i name="e_wo_entrp">   -186.50475469 </i>
    <i name="e_0_energy">   -186.67575801 </i>
   </energy>
  </scstep>
  <scstep>
   <time name="dav">   20.49   20.54</time>
   <time name="total">   20.53   20.58</time>
   <energy>
    <i name="alphaZ">     81.65567618 </i>
    <i name="ewald">  41891.17178794 </i>
    <i name="hartreedc"> -47833.66694030 </i>
    <i name="XCdc">   -231.60453931 </i>
    <i name="pawpsdc">   4192.08687047 </i>
    <i name="pawaedc">  -3610.08843931 </i>
    <i name="eentropy">     -0.34201235 </i>
    <i name="bandstr">  -1437.50177548 </i>
    <i name="atom">   6761.44252427 </i>
    <i name="e_fr_energy">   -186.84684789 </i>
    <i name="e_wo_entrp">   -186.50483554 </i>
    <i name="e_0_energy">   -186.67584172 </i>
   </energy>
  </scstep>
  <structure>
   <crystal>
    <varray name="basis" >
     <v>       8.66999996       5.03999989       0.00000000 </v>
     <v>      -8.66999982       5.04000013       0.00000000 </v>
     <v>       0.00000000       0.00000000      30.00000000 </v>
    </varray>
    <i name="volume">   2621.80797419 </i>
    <varray name="rec_basis" >
     <v>       0.05767013       0.09920635       0.00000000 </v>
     <v>      -0.05767013       0.09920635       0.00000000 </v>
     <v>       0.00000000       0.00000000       0.03333333 </v>
    </varray>
   </crystal>
   <varray name="positions" >
    <v>       0.33333334       0.33333334       0.00000000 </v>
    <v>       0.66666669       0.66666669       0.00000000 </v>
    <v>       0.66666669       0.33333334       0.00000000 </v>
    <v>       0.00000000       0.00000000       0.00000000 </v>
    <v>       0.33333334       0.00000000       0.00000000 </v>
    <v>       1.00000000       0.33333334       0.00000000 </v>
    <v>       0.00000000       0.66666669       0.00000000 </v>
    <v>       0.33333334       0.66666669       0.00000000 </v>
    <v>       0.66666669       0.00000000       0.00000000 </v>
    <v>       0.11068511       0.22244981       0.95539999 </v>
    <v>       0.22244981       0.11068511       0.04460000 </v>
    <v>       0.11068511       0.55578315       0.95539999 </v>
    <v>       0.22244981       0.44401845       0.04460000 </v>
    <v>       0.11068511       0.88911647       0.95539999 </v>
    <v>       0.22244981       0.77735180       0.04460000 </v>
    <v>       0.44401845       0.22244981       0.95539999 </v>
    <v>       0.55578315       0.11068511       0.04460000 </v>
    <v>       0.44401845       0.55578315       0.95539999 </v>
    <v>       0.55578315       0.44401845       0.04460000 </v>
    <v>       0.44401845       0.88911647       0.95539999 </v>
    <v>       0.55578315       0.77735180       0.04460000 </v>
    <v>       0.77735180       0.22244981       0.95539999 </v>
    <v>       0.88911647       0.11068511       0.04460000 </v>
    <v>       0.77735180       0.55578315       0.95539999 </v>
    <v>       0.88911647       0.44401845       0.04460000 </v>
    <v>       0.77735180       0.88911647       0.95539999 </v>
    <v>       0.88911647       0.77735180       0.04460000 </v>
   </varray>
  </structure>
  <varray name="forces" >
   <v>       0.10663428      -0.32786062       0.01409369 </v>
   <v>       0.07856515       0.07943899       0.02833161 </v>
   <v>       0.01259649      -0.12518902       0.04930744 </v>
   <v>      -0.00471717       0.32197722      -0.11867025 </v>
   <v>      -0.28241100      -0.14047064       0.06594909 </v>
   <v>       0.26534269      -0.13484862      -0.09243520 </v>
   <v>      -0.06307142       0.21696399       0.13581048 </v>
   <v>      -0.14405522      -0.17922038       0.06450490 </v>
   <v>      -0.00034815       0.34382109      -0.14721378 </v>
   <v>       0.51618562       0.67675364      -2.18912326 </v>
   <v>      -0.50495915       0.70506068       2.17645865 </v>
   <v>       0.07664388       0.09757174      -2.90403028 </v>
   <v>       0.65870414       0.17257387       2.10517884 </v>
   <v>       0.17098714      -0.15372266      -2.89353316 </v>
   <v>      -0.04940479      -0.13707801       2.98404830 </v>
   <v>      -0.32798737       0.67280845      -1.41979856 </v>
   <v>      -0.38067378       0.67542096       2.15184602 </v>
   <v>       0.74473520       0.00098058      -1.44328114 </v>
   <v>      -0.05679831       0.00519110       0.76264960 </v>
   <v>       0.29213867       0.03019321      -2.84037660 </v>
   <v>       0.58931124      -0.02410869       2.10461279 </v>
   <v>      -0.63978500      -0.16291054      -2.14767856 </v>
   <v>      -0.20129908      -0.15650372       2.88474273 </v>
   <v>      -0.24011156      -0.53511215      -1.41002320 </v>
   <v>      -0.62676317      -0.53178101       2.09958204 </v>
   <v>       0.35052073      -0.68578812      -2.15300129 </v>
   <v>      -0.33998006      -0.70416134       2.13204910 </v>
  </varray>
  <varray name="stress" >
   <v>       7.25787683       0.04957266      -1.51381346 </v>
   <v>       0.04957258       4.49774851       0.05221603 </v>
   <v>      -1.51381348       0.05221607      30.31642390 </v>
  </varray>
  <energy>
   <i name="e_fr_energy">   -186.84684789 </i>
   <i name="e_wo_entrp">   -186.67584172 </i>
   <i name="e_0_energy">     -0.34201235 </i>
  </energy>
  <time name="totalsc">  785.47  787.97</time>
 </calculation>
 <calculation>
  <scstep>
   <time name="dav">   21.53   21.58</time>
   <time name="total">   22.09   22.14</time>
   <energy>
    <i name="alphaZ">     78.92098921 </i>
    <i name="ewald">  39378.93179106 </i>
    <i name="hartreedc"> -45336.23749530 </i>
    <i name="XCdc">   -239.06932756 </i>
    <i name="pawpsdc">   4192.07233129 </i>
    <i name="pawaedc">  -3610.07403742 </i>
    <i name="eentropy">     -0.27932177 </i>
    <i name="bandstr">  -1413.20645678 </i>
    <i name="atom">   6761.44252427 </i>
    <i name="e_fr_energy">   -187.49900301 </i>
    <i name="e_wo_entrp">   -187.21968124 </i>
    <i name="e_0_energy">   -187.35934212 </i>
   </energy>
  </scstep>
  <scstep>
   <time name="dav">   30.10   30.17</time>
   <time name="total">   30.63   30.71</time>
   <energy>
    <i name="e_fr_energy">   -189.37988034 </i>
    <i name="e_wo_entrp">   -189.05447048 </i>
    <i name="e_0_energy">   -189.21717541 </i>
   </energy>
  </scstep>
  <scstep>
   <time name="dav">   30.34   30.42</time>
   <time name="total">   30.90   30.98</time>
   <energy>
    <i name="e_fr_energy">   -189.35358607 </i>
    <i name="e_wo_entrp">   -189.09653760 </i>
    <i name="e_0_energy">   -189.22506184 </i>
   </energy>
  </scstep>
  <scstep>
   <time name="dav">   29.20   29.27</time>
   <time name="total">   29.75   29.82</time>
   <energy>
    <i name="e_fr_energy">   -188.75380299 </i>
    <i name="e_wo_entrp">   -188.47309394 </i>
    <i name="e_0_energy">   -188.61344846 </i>
   </energy>
  </scstep>
  <scstep>
   <time name="dav">   28.96   29.03</time>
   <time name="total">   29.52   29.60</time>
   <energy>
    <i name="e_fr_energy">   -188.86831771 </i>
    <i name="e_wo_entrp">   -188.58149651 </i>
    <i name="e_0_energy">   -188.72490711 </i>
   </energy>
  </scstep>
  <scstep>
   <time name="dav">   30.78   30.86</time>
   <time name="total">   31.33   31.42</time>
   <energy>
    <i name="e_fr_energy">   -188.73750927 </i>
    <i name="e_wo_entrp">   -188.45600812 </i>
    <i name="e_0_energy">   -188.59675869 </i>
   </energy>
  </scstep>
  <scstep>
   <time name="dav">   29.24   29.31</time>
   <time name="total">   29.80   29.88</time>
   <energy>
    <i name="e_fr_energy">   -188.68605860 </i>
    <i name="e_wo_entrp">   -188.40452072 </i>
    <i name="e_0_energy">   -188.54528966 </i>
   </energy>
  </scstep>
  <scstep>
   <time name="dav">   30.41   30.49</time>
   <time name="total">   30.96   31.04</time>
   <energy>
    <i name="e_fr_energy">   -188.68394357 </i>
    <i name="e_wo_entrp">   -188.40160236 </i>
    <i name="e_0_energy">   -188.54277297 </i>
   </energy>
  </scstep>
  <scstep>
   <time name="dav">   28.81   28.88</time>
   <time name="total">   29.37   29.45</time>
   <energy>
    <i name="e_fr_energy">   -188.65574628 </i>
    <i name="e_wo_entrp">   -188.37649222 </i>
    <i name="e_0_energy">   -188.51611925 </i>
   </energy>
  </scstep>
  <scstep>
   <time name="dav">   31.32   31.39</time>
   <time name="total">   31.87   31.95</time>
   <energy>
    <i name="e_fr_energy">   -188.65481280 </i>
    <i name="e_wo_entrp">   -188.37655012 </i>
    <i name="e_0_energy">   -188.51568146 </i>
   </energy>
  </scstep>
  <scstep>
   <time name="dav">   30.65   30.73</time>
   <time name="total">   31.21   31.29</time>
   <energy>
    <i name="e_fr_energy">   -188.65437515 </i>
    <i name="e_wo_entrp">   -188.37678775 </i>
    <i name="e_0_energy">   -188.51558145 </i>
   </energy>
  </scstep>
  <scstep>
   <time name="dav">   27.84   27.90</time>
   <time name="total">   27.87   27.95</time>
   <energy>
    <i name="alphaZ">     78.92098921 </i>
    <i name="ewald">  39378.93179106 </i>
    <i name="hartreedc"> -45347.21943867 </i>
    <i name="XCdc">   -237.97742692 </i>
    <i name="pawpsdc">   3952.40518476 </i>
    <i name="pawaedc">  -3366.93042402 </i>
    <i name="eentropy">     -0.27773781 </i>
    <i name="bandstr">  -1407.94985185 </i>
    <i name="atom">   6761.44252427 </i>
    <i name="e_fr_energy">   -188.65438997 </i>
    <i name="e_wo_entrp">   -188.37665216 </i>
    <i name="e_0_energy">   -188.51552106 </i>
   </energy>
  </scstep>
  <structure>
   <crystal>
    <varray name="basis" >
     <v>       8.85471717       5.10753670       0.00000000 </v>
     <v>      -8.85325599       5.10502361       0.00000000 </v>
     <v>       0.00000000       0.00000000      30.00000000 </v>
    </varray>
    <i name="volume">   2712.65610186 </i>
    <varray name="rec_basis" >
     <v>       0.05645784       0.09791056       0.00000000 </v>
     <v>      -0.05648563       0.09792672       0.00000000 </v>
     <v>       0.00000000       0.00000000       0.03333333 </v>
    </varray>
   </crystal>
   <varray name="positions" >
    <v>       0.33206088       0.33146754       0.00002266 </v>
    <v>       0.66726546       0.66682830       0.00004556 </v>
    <v>       0.66610258       0.33269915       0.00007929 </v>
    <v>       0.00152785       0.00155410      -0.00019083 </v>
    <v>       0.33187534       0.00011342       0.00010605 </v>
    <v>       1.00009284       0.33194973      -0.00014864 </v>
    <v>       0.00086291       0.66788055       0.00021840 </v>
    <v>       0.33207481       0.66620973       0.00010373 </v>
    <v>       0.66831124       0.00164649      -0.00023673 </v>
    <v>       0.11536015       0.22425263       0.95187969 </v>
    <v>       0.22441934       0.11546439       0.04809994 </v>
    <v>       0.11136532       0.55603689       0.95073005 </v>
    <v>       0.22510836       0.44301177       0.04798531 </v>
    <v>       0.11042511       0.88790504       0.95074693 </v>
    <v>       0.22165631       0.77683320       0.04939861 </v>
    <v>       0.44632599       0.22658237       0.95311683 </v>
    <v>       0.55795661       0.11497676       0.04806036 </v>
    <v>       0.44609512       0.55371587       0.95307907 </v>
    <v>       0.55564998       0.44420132       0.04582641 </v>
    <v>       0.44497573       0.88844819       0.95083241 </v>
    <v>       0.55730733       0.77559685       0.04798440 </v>
    <v>       0.77479213       0.22345011       0.95194633 </v>
    <v>       0.88780740       0.11049613       0.04923892 </v>
    <v>       0.77412273       0.55389015       0.95313255 </v>
    <v>       0.88482762       0.44321712       0.04797631 </v>
    <v>       0.77504483       0.88485909       0.95193777 </v>
    <v>       0.88480049       0.77492758       0.04802852 </v>
   </varray>
  </structure>
  <varray name="forces" >
   <v>       0.05016623      -0.32846814      -0.01147408 </v>
   <v>       0.03253322       0.09810961       0.00334811 </v>
   <v>       0.09947823      -0.11428996       0.08463760 </v>
   <v>      -0.05802369       0.27810426      -0.03003808 </v>
   <v>      -0.09279510      -0.43894811      -0.03299167 </v>
   <v>       0.25516126      -0.21683385       0.03902709 </v>
   <v>       0.12768538       0.48684020       0.05891493 </v>
   <v>      -0.42463015      -0.18583222      -0.04713171 </v>
   <v>       0.03733946       0.39713682      -0.03541966 </v>
   <v>       0.04496327       0.08379383      -0.19480238 </v>
   <v>      -0.03674894       0.08615940       0.15034947 </v>
   <v>      -0.07823513       0.08476084       0.01387289 </v>
   <v>      -0.00587160       0.10980422      -0.01692935 </v>
   <v>       0.04943463      -0.12020326      -0.13723240 </v>
   <v>       0.06069296      -0.10706618       0.18060189 </v>
   <v>      -0.02613625       0.05745430       0.07618916 </v>
   <v>       0.10087866       0.04565879      -0.06662805 </v>
   <v>      -0.08426912      -0.00968584       0.24257645 </v>
   <v>      -0.00701509      -0.01139632      -0.19566833 </v>
   <v>       0.11084423      -0.00186288       0.10017282 </v>
   <v>      -0.10381160      -0.00498106      -0.14559919 </v>
   <v>       0.01238938      -0.10312066      -0.11105252 </v>
   <v>      -0.04685375      -0.11245492       0.09081025 </v>
   <v>       0.06030734       0.05473439       0.15887596 </v>
   <v>      -0.08017947       0.05442181      -0.13491371 </v>
   <v>      -0.10995333      -0.04116336       0.00864384 </v>
   <v>       0.11264898      -0.04067171      -0.04813935 </v>
  </varray>
  <varray name="stress" >
   <v>     -19.99239832       0.01074138       0.01093054 </v>
   <v>       0.01074137     -19.58186490       0.01024175 </v>
   <v>       0.01093045       0.01024171      -1.80498412 </v>
  </varray>
  <energy>
   <i name="e_fr_energy">   -188.65438997 </i>
   <i name="e_wo_entrp">   -188.51552106 </i>
   <i name="e_0_energy">     -0.27773781 </i>
  </energy>
  <time name="totalsc">  397.59  398.64</time>
 </calculation>
 <calculation>
  <scstep>
   <time name="dav">   23.67   23.73</time>
   <time name="total">   24.22   24.27</time>
   <energy>
    <i name="alphaZ">     82.34607223 </i>
    <i name="ewald">  41302.42558915 </i>
    <i name="hartreedc"> -47301.30323020 </i>
    <i name="XCdc">   -233.85653968 </i>
    <i name="pawpsdc">   3950.54985783 </i>
    <i name="pawaedc">  -3365.05335881 </i>
    <i name="eentropy">     -0.23210996 </i>
    <i name="bandstr">  -1386.89470384 </i>
    <i name="atom">   6761.44252427 </i>
    <i name="e_fr_energy">   -190.57589900 </i>
    <i name="e_wo_entrp">   -190.34378904 </i>
    <i name="e_0_energy">   -190.45984402 </i>
   </energy>
  </scstep>
  <scstep>
   <time name="dav">   28.47   28.53</time>
   <time name="total">   28.99   29.07</time>
   <energy>
    <i name="e_fr_energy">   -190.52523239 </i>
    <i name="e_wo_entrp">   -190.30798201 </i>
    <i name="e_0_energy">   -190.41660720 </i>
   </energy>
  </scstep>
  <scstep>
   <time name="dav">   30.09   30.16</time>
   <time name="total">   30.63   30.71</time>
   <energy>
    <i name="e_fr_energy">   -190.05948682 </i>
    <i name="e_wo_entrp">   -189.80972362 </i>
    <i name="e_0_energy">   -189.93460522 </i>
   </energy>
  </scstep>
  <scstep>
   <time name="dav">   31.54   31.62</time>
   <time name="total">   32.08   32.17</time>
   <energy>
    <i name="e_fr_energy">   -189.84832048 </i>
    <i name="e_wo_entrp">   -189.62563797 </i>
    <i name="e_0_energy">   -189.73697923 </i>
   </energy>
  </scstep>
  <scstep>
   <time name="dav">   29.89   29.96</time>
   <time name="total">   30.43   30.51</time>
   <energy>
    <i name="e_fr_energy">   -189.81086563 </i>
    <i name="e_wo_entrp">   -189.57010911 </i>
    <i name="e_0_energy">   -189.69048737 </i>
   </energy>
  </scstep>
  <scstep>
   <time name="dav">   30.97   31.04</time>
   <time name="total">   31.50   31.58</time>
   <energy>
    <i name="e_fr_energy">   -189.74723093 </i>
    <i name="e_wo_entrp">   -189.51616617 </i>
    <i name="e_0_energy">   -189.63169855 </i>
   </energy>
  </scstep>
  <scstep>
   <time name="dav">   28.63   28.70</time>
   <time name="total">   29.17   29.25</time>
   <energy>
    <i name="e_fr_energy">   -189.74241980 </i>
    <i name="e_wo_entrp">   -189.50948651 </i>
    <i name="e_0_energy">   -189.62595315 </i>
   </energy>
  </scstep>
  <scstep>
   <time name="dav">   30.77   30.85</time>
   <time name="total">   31.30   31.39</time>
   <energy>
    <i name="e_fr_energy">   -189.74270250 </i>
    <i name="e_wo_entrp">   -189.51033061 </i>
    <i name="e_0_energy">   -189.62651656 </i>
   </energy>
  </scstep>
  <scstep>
   <time name="dav">   28.03   28.10</time>
   <time name="total">   28.57   28.65</time>
   <energy>
    <i name="e_fr_energy">   -189.74166540 </i>
    <i name="e_wo_entrp">   -189.50916069 </i>
    <i name="e_0_energy">   -189.62541304 </i>
   </energy>
  </scstep>
  <scstep>
   <time name="dav">   25.15   25.21</time>
   <time name="total">   25.68   25.75</time>
   <energy>
    <i name="e_fr_energy">   -189.74192201 </i>
    <i name="e_wo_entrp">   -189.50915927 </i>
    <i name="e_0_energy">   -189.62554064 </i>
   </energy>
  </scstep>
  <scstep>
   <time name="dav">   21.41   21.47</time>
   <time name="total">   21.45   21.51</time>
   <energy>
    <i name="alphaZ">     82.34607223 </i>
    <i name="ewald">  41302.42558915 </i>
    <i name="hartreedc"> -47274.39447991 </i>
    <i name="XCdc">   -235.25049623 </i>
    <i name="pawpsdc">   4038.04356007 </i>
    <i name="pawaedc">  -3453.73719127 </i>
    <i name="eentropy">     -0.23272672 </i>
    <i name="bandstr">  -1410.38469195 </i>
    <i name="atom">   6761.44252427 </i>
    <i name="e_fr_energy">   -189.74184035 </i>
    <i name="e_wo_entrp">   -189.50911362 </i>
    <i name="e_0_energy">   -189.62547699 </i>
   </energy>
  </scstep>
  <structure>
   <crystal>
    <varray name="basis" >
     <v>       8.66673877       5.00140250       0.00000000 </v>
     <v>      -8.66519210       4.99873965       0.00000000 </v>
     <v>       0.00000000       0.00000000      30.00000000 </v>
    </varray>
    <i name="volume">   2599.82652639 </i>
    <varray name="rec_basis" >
     <v>       0.05768161       0.09998966       0.00000000 </v>
     <v>      -0.05771234       0.10000750       0.00000000 </v>
     <v>       0.00000000       0.00000000       0.03333333 </v>
    </varray>
   </crystal>
   <varray name="positions" >
    <v>       0.33156410       0.33087469       0.00001619 </v>
    <v>       0.66745929       0.66695991       0.00004745 </v>
    <v>       0.66600817       0.33241439       0.00012708 </v>
    <v>       0.00193359       0.00207093      -0.00020779 </v>
    <v>       0.33105861      -0.00052590       0.00008742 </v>
    <v>       0.99997724       0.33134592      -0.00012661 </v>
    <v>       0.00179244       0.66856593       0.00025166 </v>
    <v>       0.33136053       0.66630776       0.00007712 </v>
    <v>       0.66900559       0.00226952      -0.00025673 </v>
    <v>       0.11554212       0.22434860       0.95176970 </v>
    <v>       0.22452709       0.11564247       0.04818483 </v>
    <v>       0.11143108       0.55625235       0.95073789 </v>
    <v>       0.22528486       0.44319952       0.04797575 </v>
    <v>       0.11027303       0.88765835       0.95066945 </v>
    <v>       0.22153678       0.77659753       0.04950059 </v>
    <v>       0.44639628       0.22670268       0.95315985 </v>
    <v>       0.55812880       0.11495597       0.04802274 </v>
    <v>       0.44599847       0.55378044       0.95321603 </v>
    <v>       0.55562437       0.44418913       0.04571593 </v>
    <v>       0.44507865       0.88833905       0.95088897 </v>
    <v>       0.55719979       0.77568792       0.04790219 </v>
    <v>       0.77463295       0.22326720       0.95188363 </v>
    <v>       0.88757608       0.11035443       0.04929019 </v>
    <v>       0.77427118       0.55392324       0.95322225 </v>
    <v>       0.88484120       0.44338411       0.04790014 </v>
    <v>       0.77487141       0.88489602       0.95194265 </v>
    <v>       0.88484076       0.77475233       0.04800134 </v>
   </varray>
  </structure>
  <varray name="forces" >
   <v>       0.01070857      -0.35001104      -0.01603058 </v>
   <v>      -0.00688761       0.13537373      -0.00480936 </v>
   <v>       0.15897570      -0.10553073       0.07176823 </v>
   <v>      -0.08562344       0.24508158      -0.00073357 </v>
   <v>      -0.02225618      -0.54470604      -0.03985438 </v>
   <v>       0.25746065      -0.25156666       0.05394539 </v>
   <v>       0.18073122       0.57854180       0.02438699 </v>
   <v>      -0.52133759      -0.16184721      -0.05977170 </v>
   <v>       0.06723095       0.39816528       0.00307598 </v>
   <v>       0.09069967       0.15804151      -0.70702965 </v>
   <v>      -0.07712887       0.14702500       0.64485985 </v>
   <v>      -0.04579064       0.00414125      -0.53553369 </v>
   <v>       0.10994467       0.04455707       0.47566651 </v>
   <v>      -0.00021109      -0.06056173      -0.69630135 </v>
   <v>       0.02438131      -0.03253452       0.78800021 </v>
   <v>      -0.05925869       0.11485593      -0.36309004 </v>
   <v>      -0.01283429       0.09208020       0.41383161 </v>
   <v>       0.06709491      -0.01218269      -0.19322058 </v>
   <v>      -0.01642819      -0.01458158       0.21198660 </v>
   <v>       0.04114512       0.00549202      -0.43527077 </v>
   <v>       0.02875506      -0.00122798       0.33473634 </v>
   <v>      -0.11343129      -0.01877140      -0.63227704 </v>
   <v>       0.00426298      -0.04928431       0.64641215 </v>
   <v>      -0.00787246      -0.06599401      -0.27977342 </v>
   <v>      -0.07431414      -0.06893276       0.34495593 </v>
   <v>       0.01866069      -0.09753439      -0.49338559 </v>
   <v>      -0.01667702      -0.08808834       0.44345593 </v>
  </varray>
  <varray name="stress" >
   <v>     -10.20275925      -0.01287641      -0.01838995 </v>
   <v>      -0.01287617      -9.88948228      -0.00025563 </v>
   <v>      -0.01838996      -0.00025562       6.52035550 </v>
  </varray>
  <energy>
   <i name="e_fr_energy">   -189.74184035 </i>
   <i name="e_wo_entrp">   -189.62547699 </i>
   <i name="e_0_energy">     -0.23272672 </i>
  </energy>
  <time name="totalsc">  355.83  356.77</time>
 </calculation>
 <calculation>
  <scstep>
   <time name="dav">   21.50   21.56</time>
   <time name="total">   22.02   22.09</time>
   <energy>
    <i name="alphaZ">     85.83203234 </i>
    <i name="ewald">  42838.10173494 </i>
    <i name="hartreedc"> -48854.70509904 </i>
    <i name="XCdc">   -232.95752369 </i>
    <i name="pawpsdc">   4038.55864044 </i>
    <i name="pawaedc">  -3454.25314700 </i>
    <i name="eentropy">     -0.19037519 </i>
    <i name="bandstr">  -1373.14594004 </i>
    <i name="atom">   6761.44252427 </i>
    <i name="e_fr_energy">   -191.31715298 </i>
    <i name="e_wo_entrp">   -191.12677778 </i>
    <i name="e_0_energy">   -191.22196538 </i>
   </energy>
  </scstep>
  <scstep>
   <time name="dav">   32.45   32.53</time>
   <time name="total">   32.97   33.06</time>
   <energy>
    <i name="e_fr_energy">   -191.11789920 </i>
    <i name="e_wo_entrp">   -190.92917751 </i>
    <i name="e_0_energy">   -191.02353836 </i>
   </energy>
  </scstep>
  <scstep>
   <time name="dav">   29.90   29.97</time>
   <time name="total">   30.41   30.50</time>
   <energy>
    <i name="e_fr_energy">   -191.31178346 </i>
    <i name="e_wo_entrp">   -191.09673995 </i>
    <i name="e_0_energy">   -191.20426170 </i>
   </energy>
  </scstep>
  <scstep>
   <time name="dav">   29.18   29.25</time>
   <time name="total">   29.71   29.79</time>
   <energy>
    <i name="e_fr_energy">   -190.90035127 </i>
    <i name="e_wo_entrp">   -190.70283783 </i>
    <i name="e_0_energy">   -190.80159455 </i>
   </energy>
  </scstep>
  <scstep>
   <time name="dav">   27.59   27.66</time>
   <time name="total">   28.11   28.19</time>
   <energy>
    <i name="e_fr_energy">   -190.90261774 </i>
    <i name="e_wo_entrp">   -190.71883193 </i>
    <i name="e_0_energy">   -190.81072484 </i>
   </energy>
  </scstep>
  <scstep>
   <time name="dav">   29.68   29.75</time>
   <time name="total">   30.21   30.29</time>
   <energy>
    <i name="e_fr_energy">   -190.73246733 </i>
    <i name="e_wo_entrp">   -190.53687930 </i>
    <i name="e_0_energy">   -190.63467332 </i>
   </energy>
  </scstep>
  <scstep>
   <time name="dav">   30.42   30.49</time>
   <time name="total">   30.94   31.02</time>
   <energy>
    <i name="e_fr_energy">   -190.73256709 </i>
    <i name="e_wo_entrp">   -190.53769759 </i>
    <i name="e_0_energy">   -190.63513234 </i>
   </energy>
  </scstep>
  <scstep>
   <time name="dav">   28.84   28.91</time>
   <time name="total">   29.37   29.45</time>
   <energy>
    <i name="e_fr_energy">   -190.73027826 </i>
    <i name="e_wo_entrp">   -190.53537840 </i>
    <i name="e_0_energy">   -190.63282833 </i>
   </energy>
  </scstep>
  <scstep>
   <time name="dav">   28.45   28.52</time>
   <time name="total">   28.97   29.05</time>
   <energy>
    <i name="e_fr_energy">   -190.72813793 </i>
    <i name="e_wo_entrp">   -190.53316382 </i>
    <i name="e_0_energy">   -190.63065087 </i>
   </energy>
  </scstep>
  <scstep>
   <time name="dav">   27.30   27.36</time>
   <time name="total">   27.83   27.90</time>
   <energy>
    <i name="e_fr_energy">   -190.72840447 </i>
    <i name="e_wo_entrp">   -190.53331535 </i>
    <i name="e_0_energy">   -190.63085991 </i>
   </energy>
  </scstep>
  <scstep>
   <time name="dav">   25.70   25.76</time>
   <time name="total">   26.22   26.29</time>
   <energy>
    <i name="e_fr_energy">   -190.72821760 </i>
    <i name="e_wo_entrp">   -190.53308508 </i>
    <i name="e_0_energy">   -190.63065134 </i>
   </energy>
  </scstep>
  <scstep>
   <time name="dav">   19.58   19.63</time>
   <time name="total">   19.61   19.67</time>
   <energy>
    <i name="alphaZ">     85.83203234 </i>
    <i name="ewald">  42838.10173494 </i>
    <i name="hartreedc"> -48826.11936461 </i>
    <i name="XCdc">   -234.29617757 </i>
    <i name="pawpsdc">   4063.50097672 </i>
    <i name="pawaedc">  -3479.36866561 </i>
    <i name="eentropy">     -0.19517373 </i>
    <i name="bandstr">  -1399.62610759 </i>
    <i name="atom">   6761.44252427 </i>
    <i name="e_fr_energy">   -190.72822083 </i>
    <i name="e_wo_entrp">   -190.53304711 </i>
    <i name="e_0_energy">   -190.63063397 </i>
   </energy>
  </scstep>
  <structure>
   <crystal>
    <varray name="basis" >
     <v>       8.48431778       4.90045337       0.00000000 </v>
     <v>      -8.48366122       4.89933029       0.00000000 </v>
     <v>       0.00000000       0.00000000      30.00000000 </v>
    </varray>
    <i name="volume">   2494.23783977 </i>
    <varray name="rec_basis" >
     <v>       0.05892778       0.10203912       0.00000000 </v>
     <v>      -0.05894129       0.10204702       0.00000000 </v>
     <v>       0.00000000       0.00000000       0.03333333 </v>
    </varray>
   </crystal>
   <varray name="positions" >
    <v>       0.32930113       0.32864780      -0.00002086 </v>
    <v>       0.66831812       0.66798244       0.00003055 </v>
    <v>       0.66602949       0.33111531       0.00026460 </v>
    <v>       0.00303599       0.00387186      -0.00018435 </v>
    <v>       0.32740592      -0.00422202      -0.00000088 </v>
    <v>       0.99924885       0.32875045      -0.00000229 </v>
    <v>       0.00637235       0.67168770       0.00027271 </v>
    <v>       0.32838518       0.66737794      -0.00005731 </v>
    <v>       0.67178633       0.00447872      -0.00021758 </v>
    <v>       0.11711063       0.22513004       0.94987063 </v>
    <v>       0.22526283       0.11705219       0.04994018 </v>
    <v>       0.11113675       0.55619519       0.94916197 </v>
    <v>       0.22596466       0.44275079       0.04937942 </v>
    <v>       0.10997078       0.88750085       0.94875268 </v>
    <v>       0.22155526       0.77654464       0.05164823 </v>
    <v>       0.44699701       0.22782729       0.95203450 </v>
    <v>       0.55861091       0.11585908       0.04928814 </v>
    <v>       0.44637662       0.55323702       0.95244510 </v>
    <v>       0.55545222       0.44416282       0.04650171 </v>
    <v>       0.44517947       0.88834375       0.94953239 </v>
    <v>       0.55749657       0.77539439       0.04900384 </v>
    <v>       0.77413531       0.22395220       0.95013156 </v>
    <v>       0.88751476       0.11011476       0.05110079 </v>
    <v>       0.77342930       0.55333485       0.95226982 </v>
    <v>       0.88384121       0.44290397       0.04902253 </v>
    <v>       0.77437282       0.88389131       0.95049429 </v>
    <v>       0.88392398       0.77432912       0.04933752 </v>
   </varray>
  </structure>
  <varray name="forces" >
   <v>      -0.00078568      -0.29386419      -0.02257227 </v>
   <v>       0.00543180       0.11281516      -0.02069038 </v>
   <v>       0.16601943      -0.07654345       0.02040385 </v>
   <v>      -0.15609199       0.18985514       0.03057600 </v>
   <v>       0.05386212      -0.67707807      -0.02061915 </v>
   <v>       0.27857773      -0.34461865       0.02601772 </v>
   <v>       0.19416220       0.66446100      -0.02674097 </v>
   <v>      -0.63312766      -0.12831737      -0.03726659 </v>
   <v>       0.15096509       0.47712836       0.03212704 </v>
   <v>       0.04978602       0.06251350      -0.53216200 </v>
   <v>      -0.01163769       0.04688347       0.43513743 </v>
   <v>      -0.01359105      -0.08790178      -0.35379161 </v>
   <v>       0.03589420       0.00911730       0.27553157 </v>
   <v>      -0.06203289      -0.02443570      -0.52206820 </v>
   <v>      -0.01957943       0.02375613       0.72149948 </v>
   <v>       0.00168902      -0.02866706      -0.23619009 </v>
   <v>      -0.03234574      -0.02446129       0.22581881 </v>
   <v>      -0.01253488      -0.03429696      -0.09061703 </v>
   <v>      -0.01521606      -0.03222578       0.21824291 </v>
   <v>      -0.00596483       0.03870574      -0.25455627 </v>
   <v>      -0.03613851      -0.00120818       0.15059011 </v>
   <v>      -0.03646190       0.02698576      -0.46523059 </v>
   <v>       0.04752512       0.00882689       0.50214502 </v>
   <v>       0.03865214       0.02455278      -0.14513728 </v>
   <v>      -0.01638197       0.02192001       0.18140019 </v>
   <v>       0.02233284       0.01800315      -0.37227393 </v>
   <v>       0.00699257       0.02809409       0.28042623 </v>
  </varray>
  <varray name="stress" >
   <v>      -5.87924591       0.06822555      -0.01298127 </v>
   <v>       0.06822530      -5.72985356       0.08601647 </v>
   <v>      -0.01298129       0.08601653       4.54935523 </v>
  </varray>
  <energy>
   <i name="e_fr_energy">   -190.72822083 </i>
   <i name="e_wo_entrp">   -190.63063397 </i>
   <i name="e_0_energy">     -0.19517373 </i>
  </energy>
  <time name="totalsc">  378.19  379.19</time>
 </calculation>
 <calculation>
  <scstep>
   <time name="dav">   21.53   21.58</time>
   <time name="total">   22.04   22.10</time>
   <energy>
    <i name="alphaZ">     90.23461878 </i>
    <i name="ewald">  44693.43428516 </i>
    <i name="hartreedc"> -50737.08727067 </i>
    <i name="XCdc">   -231.80475581 </i>
    <i name="pawpsdc">   4063.44108130 </i>
    <i name="pawaedc">  -3479.30539191 </i>
    <i name="eentropy">     -0.17700311 </i>
    <i name="bandstr">  -1352.34433930 </i>
    <i name="atom">   6761.44252427 </i>
    <i name="e_fr_energy">   -192.16625130 </i>
    <i name="e_wo_entrp">   -191.98924819 </i>
    <i name="e_0_energy">   -192.07774974 </i>
   </energy>
  </scstep>
  <scstep>
   <time name="dav">   27.36   27.42</time>
   <time name="total">   27.87   27.95</time>
   <energy>
    <i name="e_fr_energy">   -191.88538119 </i>
    <i name="e_wo_entrp">   -191.69231455 </i>
    <i name="e_0_energy">   -191.78884787 </i>
   </energy>
  </scstep>
  <scstep>
   <time name="dav">   29.73   29.80</time>
   <time name="total">   30.23   30.31</time>
   <energy>
    <i name="e_fr_energy">   -192.36407995 </i>
    <i name="e_wo_entrp">   -192.18024795 </i>
    <i name="e_0_energy">   -192.27216395 </i>
   </energy>
  </scstep>
  <scstep>
   <time name="dav">   28.61   28.68</time>
   <time name="total">   29.13   29.21</time>
   <energy>
    <i name="e_fr_energy">   -191.68093993 </i>
    <i name="e_wo_entrp">   -191.50029688 </i>
    <i name="e_0_energy">   -191.59061841 </i>
   </energy>
  </scstep>
  <scstep>
   <time name="dav">   29.82   29.89</time>
   <time name="total">   30.33   30.41</time>
   <energy>
    <i name="e_fr_energy">   -191.62731792 </i>
    <i name="e_wo_entrp">   -191.43110297 </i>
    <i name="e_0_energy">   -191.52921045 </i>
   </energy>
  </scstep>
  <scstep>
   <time name="dav">   30.11   30.19</time>
   <time name="total">   30.63   30.71</time>
   <energy>
    <i name="e_fr_energy">   -191.47352437 </i>
    <i name="e_wo_entrp">   -191.28812069 </i>
    <i name="e_0_energy">   -191.38082253 </i>
   </energy>
  </scstep>
  <scstep>
   <time name="dav">   30.69   30.77</time>
   <time name="total">   31.20   31.28</time>
   <energy>
    <i name="e_fr_energy">   -191.46475159 </i>
    <i name="e_wo_entrp">   -191.28237357 </i>
    <i name="e_0_energy">   -191.37356258 </i>
   </energy>
  </scstep>
  <scstep>
   <time name="dav">   30.10   30.17</time>
   <time name="total">   30.62   30.70</time>
   <energy>
    <i name="e_fr_energy">   -191.44584452 </i>
    <i name="e_wo_entrp">   -191.25931765 </i>
    <i name="e_0_energy">   -191.35258109 </i>
   </energy>
  </scstep>
  <scstep>
   <time name="dav">   27.92   27.99</time>
   <time name="total">   28.43   28.51</time>
   <energy>
    <i name="e_fr_energy">   -191.44327885 </i>
    <i name="e_wo_entrp">   -191.25762032 </i>
    <i name="e_0_energy">   -191.35044958 </i>
   </energy>
  </scstep>
  <scstep>
   <time name="dav">   28.59   28.66</time>
   <time name="total">   29.11   29.19</time>
   <energy>
    <i name="e_fr_energy">   -191.44344324 </i>
    <i name="e_wo_entrp">   -191.25727652 </i>
    <i name="e_0_energy">   -191.35035988 </i>
   </energy>
  </scstep>
  <scstep>
   <time name="dav">   26.02   26.09</time>
   <time name="total">   26.06   26.13</time>
   <energy>
    <i name="alphaZ">     90.23461878 </i>
    <i name="ewald">  44693.43428516 </i>
    <i name="hartreedc"> -50702.74744468 </i>
    <i name="XCdc">   -233.32801402 </i>
    <i name="pawpsdc">   4086.82424602 </i>
    <i name="pawaedc">  -3502.79578148 </i>
    <i name="eentropy">     -0.18617648 </i>
    <i name="bandstr">  -1384.32162629 </i>
    <i name="atom">   6761.44252427 </i>
    <i name="e_fr_energy">   -191.44336872 </i>
    <i name="e_wo_entrp">   -191.25719223 </i>
    <i name="e_0_energy">   -191.35028048 </i>
   </energy>
  </scstep>
  <structure>
   <crystal>
    <varray name="basis" >
     <v>       8.27244106       4.78475170       0.00000000 </v>
     <v>      -8.26833292       4.77765179       0.00000000 </v>
     <v>       0.00000000       0.00000000      30.00000000 </v>
    </varray>
    <i name="volume">   2372.54288690 </i>
    <varray name="rec_basis" >
     <v>       0.06041179       0.10455027       0.00000000 </v>
     <v>      -0.06050156       0.10460221       0.00000000 </v>
     <v>       0.00000000       0.00000000       0.03333333 </v>
    </varray>
   </crystal>
   <varray name="positions" >
    <v>       0.32546452       0.32493226      -0.00011248 </v>
    <v>       0.66981435       0.66955760      -0.00005207 </v>
    <v>       0.66633768       0.32887528       0.00036129 </v>
    <v>       0.00428192       0.00729554      -0.00004937 </v>
    <v>       0.31940781      -0.01307720      -0.00010075 </v>
    <v>       0.99702346       0.32259424       0.00013189 </v>
    <v>       0.01613686       0.67853844       0.00015857 </v>
    <v>       0.32226076       0.67037014      -0.00023149 </v>
    <v>       0.67857745       0.00918366      -0.00006606 </v>
    <v>       0.11872637       0.22580521       0.94713337 </v>
    <v>       0.22597092       0.11818776       0.05228910 </v>
    <v>       0.10989991       0.55510481       0.94710021 </v>
    <v>       0.22646726       0.44221123       0.05108062 </v>
    <v>       0.10931809       0.88777812       0.94600989 </v>
    <v>       0.22181292       0.77711800       0.05518171 </v>
    <v>       0.44694823       0.22798321       0.95058329 </v>
    <v>       0.55823722       0.11628962       0.05077126 </v>
    <v>       0.44622537       0.55260254       0.95159471 </v>
    <v>       0.55495030       0.44391128       0.04777820 </v>
    <v>       0.44550821       0.88890046       0.94788336 </v>
    <v>       0.55752047       0.77536242       0.05018279 </v>
    <v>       0.77409210       0.22499847       0.94765826 </v>
    <v>       0.88809234       0.10992807       0.05374411 </v>
    <v>       0.77334501       0.55301911       0.95118059 </v>
    <v>       0.88343812       0.44282592       0.05031366 </v>
    <v>       0.77460874       0.88338490       0.94843776 </v>
    <v>       0.88374806       0.77453335       0.05103748 </v>
   </varray>
  </structure>
  <varray name="forces" >
   <v>       0.05801857      -0.13431782       0.00596655 </v>
   <v>       0.10338438       0.03238110       0.01810538 </v>
   <v>       0.04966212      -0.02363437       0.03179500 </v>
   <v>      -0.22380040       0.00173833      -0.00296996 </v>
   <v>       0.04745040      -0.40385312       0.01954380 </v>
   <v>       0.21013091      -0.32592971      -0.04364303 </v>
   <v>       0.01320268       0.35102197      -0.04773481 </v>
   <v>      -0.45966089      -0.03381345       0.05851645 </v>
   <v>       0.28647888       0.43984220       0.02713809 </v>
   <v>      -0.01998399      -0.04642163      -0.14991176 </v>
   <v>       0.08509256      -0.06930019       0.05389121 </v>
   <v>      -0.00026989      -0.17387714      -0.06426821 </v>
   <v>      -0.09367112      -0.00770549      -0.08642523 </v>
   <v>      -0.15775527      -0.00691638      -0.21084700 </v>
   <v>      -0.03079765       0.03712808       0.44308408 </v>
   <v>       0.09980391      -0.21642826       0.04183089 </v>
   <v>       0.01998943      -0.16670291      -0.14154781 </v>
   <v>      -0.22343168      -0.04607016       0.13408969 </v>
   <v>       0.01020327      -0.03827131       0.00833930 </v>
   <v>      -0.03527720       0.10997264       0.07586391 </v>
   <v>      -0.14014111       0.00219247      -0.16036927 </v>
   <v>       0.07760239       0.04723417      -0.13838940 </v>
   <v>       0.09337966       0.05499425       0.31707783 </v>
   <v>       0.12053180       0.18110631       0.07848292 </v>
   <v>       0.04912354       0.18269339      -0.15708772 </v>
   <v>      -0.03651585       0.12792191      -0.09648112 </v>
   <v>       0.09725054       0.12501511      -0.01404977 </v>
  </varray>
  <varray name="stress" >
   <v>      -0.09320085       0.04195864       0.29388792 </v>
   <v>       0.04195859       0.45437308       0.15563655 </v>
   <v>       0.29388785       0.15563654      -0.35528988 </v>
  </varray>
  <energy>
   <i name="e_fr_energy">   -191.44336872 </i>
   <i name="e_wo_entrp">   -191.35028048 </i>
   <i name="e_0_energy">     -0.18617648 </i>
  </energy>
  <time name="totalsc">  358.08  359.02</time>
 </calculation>
 <calculation>
  <scstep>
   <time name="dav">   21.55   21.60</time>
   <time name="total">   22.07   22.12</time>
   <energy>
    <i name="alphaZ">     90.14164019 </i>
    <i name="ewald">  44627.01271774 </i>
    <i name="hartreedc"> -50636.23717432 </i>
    <i name="XCdc">   -233.49528772 </i>
    <i name="pawpsdc">   4087.27593138 </i>
    <i name="pawaedc">  -3503.24588965 </i>
    <i name="eentropy">     -0.18745823 </i>
    <i name="bandstr">  -1384.22993088 </i>
    <i name="atom">   6761.44252427 </i>
    <i name="e_fr_energy">   -191.52292721 </i>
    <i name="e_wo_entrp">   -191.33546898 </i>
    <i name="e_0_energy">   -191.42919809 </i>
   </energy>
  </scstep>
  <scstep>
   <time name="dav">   32.88   32.96</time>
   <time name="total">   33.39   33.47</time>
   <energy>
    <i name="e_fr_energy">   -191.60417349 </i>
    <i name="e_wo_entrp">   -191.40420556 </i>
    <i name="e_0_energy">   -191.50418952 </i>
   </energy>
  </scstep>
  <scstep>
   <time name="dav">   30.72   30.79</time>
   <time name="total">   31.24   31.32</time>
   <energy>
    <i name="e_fr_energy">   -191.53429381 </i>
    <i name="e_wo_entrp">   -191.34569106 </i>
    <i name="e_0_energy">   -191.43999244 </i>
   </energy>
  </scstep>
  <scstep>
   <time name="dav">   28.61   28.68</time>
   <time name="total">   29.12   29.20</time>
   <energy>
    <i name="e_fr_energy">   -191.53786210 </i>
    <i name="e_wo_entrp">   -191.34700960 </i>
    <i name="e_0_energy">   -191.44243585 </i>
   </energy>
  </scstep>
  <scstep>
   <time name="dav">   28.43   28.50</time>
   <time name="total">   28.95   29.03</time>
   <energy>
    <i name="e_fr_energy">   -191.53243965 </i>
    <i name="e_wo_entrp">   -191.34263362 </i>
    <i name="e_0_energy">   -191.43753664 </i>
   </energy>
  </scstep>
  <scstep>
   <time name="dav">   28.18   28.25</time>
   <time name="total">   28.69   28.76</time>
   <energy>
    <i name="e_fr_energy">   -191.53327352 </i>
    <i name="e_wo_entrp">   -191.34332965 </i>
    <i name="e_0_energy">   -191.43830158 </i>
   </energy>
  </scstep>
  <scstep>
   <time name="dav">   27.95   28.02</time>
   <time name="total">   28.47   28.55</time>
   <energy>
    <i name="e_fr_energy">   -191.53254861 </i>
    <i name="e_wo_entrp">   -191.34268901 </i>
    <i name="e_0_energy">   -191.43761881 </i>
   </energy>
  </scstep>
  <scstep>
   <time name="dav">   26.27   26.34</time>
   <time name="total">   26.78   26.85</time>
   <energy>
    <i name="e_fr_energy">   -191.53198977 </i>
    <i name="e_wo_entrp">   -191.34226012 </i>
    <i name="e_0_energy">   -191.43712495 </i>
   </energy>
  </scstep>
  <scstep>
   <time name="dav">   18.48   18.52</time>
   <time name="total">   18.51   18.57</time>
   <energy>
    <i name="alphaZ">     90.14164019 </i>
    <i name="ewald">  44627.01271774 </i>
    <i name="hartreedc"> -50638.29113588 </i>
    <i name="XCdc">   -233.42533968 </i>
    <i name="pawpsdc">   4084.21239323 </i>
    <i name="pawaedc">  -3500.13537059 </i>
    <i name="eentropy">     -0.18973426 </i>
    <i name="bandstr">  -1382.29969937 </i>
    <i name="atom">   6761.44252427 </i>
    <i name="e_fr_energy">   -191.53200434 </i>
    <i name="e_wo_entrp">   -191.34227008 </i>
    <i name="e_0_energy">   -191.43713721 </i>
   </energy>
  </scstep>
  <structure>
   <crystal>
    <varray name="basis" >
     <v>       8.27127905       4.79157172       0.00000000 </v>
     <v>      -8.26612256       4.78264816       0.00000000 </v>
     <v>       0.00000000       0.00000000      30.00000000 </v>
    </varray>
    <i name="volume">   2374.99009862 </i>
    <varray name="rec_basis" >
     <v>       0.06041265       0.10441461       0.00000000 </v>
     <v>      -0.06052537       0.10447975       0.00000000 </v>
     <v>       0.00000000       0.00000000       0.03333333 </v>
    </varray>
   </crystal>
   <varray name="positions" >
    <v>       0.32496943       0.32409942      -0.00010267 </v>
    <v>       0.67027260       0.66941513      -0.00002286 </v>
    <v>       0.66636211       0.32861866       0.00041189 </v>
    <v>       0.00363792       0.00794511      -0.00005452 </v>
    <v>       0.31753998      -0.01521903      -0.00006916 </v>
    <v>       0.99600275       0.32036338       0.00006161 </v>
    <v>       0.01791025       0.68024435       0.00008249 </v>
    <v>       0.32077445       0.67152740      -0.00013730 </v>
    <v>       0.68159841       0.01054794      -0.00002308 </v>
    <v>       0.11842998       0.22562776       0.94690204 </v>
    <v>       0.22586750       0.11758843       0.05236779 </v>
    <v>       0.10902966       0.55423538       0.94700419 </v>
    <v>       0.22615520       0.44244689       0.05093650 </v>
    <v>       0.10882735       0.88820070       0.94568112 </v>
    <v>       0.22190908       0.77739214       0.05588006 </v>
    <v>       0.44615076       0.22660471       0.95065516 </v>
    <v>       0.55745899       0.11539207       0.05053954 </v>
    <v>       0.44534564       0.55302258       0.95181259 </v>
    <v>       0.55478913       0.44369002       0.04778730 </v>
    <v>       0.44595729       0.88955376       0.94801048 </v>
    <v>       0.55712432       0.77578119       0.04992179 </v>
    <v>       0.77455471       0.22500656       0.94744465 </v>
    <v>       0.88863752       0.10993345       0.05424324 </v>
    <v>       0.77460539       0.55358014       0.95131014 </v>
    <v>       0.88450000       0.44360195       0.05005762 </v>
    <v>       0.77514467       0.88413600       0.94829001 </v>
    <v>       0.88465938       0.77487838       0.05100926 </v>
   </varray>
  </structure>
  <varray name="forces" >
   <v>       0.09771680      -0.12611380      -0.01276808 </v>
   <v>       0.14734210       0.02692034      -0.00191698 </v>
   <v>       0.01734579      -0.02460956       0.04605538 </v>
   <v>      -0.23559922       0.00402925       0.00508489 </v>
   <v>      -0.02423931      -0.40987865       0.00209748 </v>
   <v>       0.22691034      -0.32583234      -0.01284037 </v>
   <v>       0.01272464       0.37939218      -0.02442867 </v>
   <v>      -0.44869063      -0.07656907      -0.00661117 </v>
   <v>       0.30285425       0.44128546       0.03177990 </v>
   <v>      -0.00033071      -0.02476844      -0.10601633 </v>
   <v>       0.04184811      -0.05264988       0.02048853 </v>
   <v>       0.00100954      -0.10422311       0.02270720 </v>
   <v>      -0.07375424      -0.00334311      -0.11078652 </v>
   <v>      -0.12232167      -0.00043754      -0.13372012 </v>
   <v>      -0.05999637       0.00065249       0.30282633 </v>
   <v>       0.07745758      -0.14756178       0.06781967 </v>
   <v>       0.03844701      -0.11081094      -0.17504873 </v>
   <v>      -0.17102145      -0.02270603       0.18852287 </v>
   <v>       0.00729868      -0.02386450      -0.03015667 </v>
   <v>      -0.00468393       0.10385796       0.13734387 </v>
   <v>      -0.10344674       0.01405604      -0.16477969 </v>
   <v>       0.05918860       0.02891110      -0.10194207 </v>
   <v>       0.06823875       0.05216121       0.27274843 </v>
   <v>       0.07709025       0.11813945       0.06782064 </v>
   <v>       0.03637167       0.12851145      -0.18782255 </v>
   <v>      -0.01628597       0.07717206      -0.08568514 </v>
   <v>       0.04852611       0.07827977      -0.01077207 </v>
  </varray>
  <varray name="stress" >
   <v>      -0.01873355      -0.02140339       0.10785854 </v>
   <v>      -0.02140333       0.11876860       0.05623069 </v>
   <v>       0.10785861       0.05623060      -1.34531683 </v>
  </varray>
  <energy>
   <i name="e_fr_energy">   -191.53200434 </i>
   <i name="e_wo_entrp">   -191.43713721 </i>
   <i name="e_0_energy">     -0.18973426 </i>
  </energy>
  <time name="totalsc">  289.08  289.83</time>
 </calculation>
 <calculation>
  <scstep>
   <time name="dav">   21.54   21.59</time>
   <time name="total">   22.05   22.10</time>
   <energy>
    <i name="alphaZ">     90.09299259 </i>
    <i name="ewald">  44609.05951943 </i>
    <i name="hartreedc"> -50619.31384033 </i>
    <i name="XCdc">   -233.45293638 </i>
    <i name="pawpsdc">   4084.08093392 </i>
    <i name="pawaedc">  -3500.00220435 </i>
    <i name="eentropy">     -0.18681230 </i>
    <i name="bandstr">  -1383.35807614 </i>
    <i name="atom">   6761.44252427 </i>
    <i name="e_fr_energy">   -191.63789928 </i>
    <i name="e_wo_entrp">   -191.45108698 </i>
    <i name="e_0_energy">   -191.54449313 </i>
   </energy>
  </scstep>
  <scstep>
   <time name="dav">   31.82   31.90</time>
   <time name="total">   32.33   32.42</time>
   <energy>
    <i name="e_fr_energy">   -191.77696461 </i>
    <i name="e_wo_entrp">   -191.56586031 </i>
    <i name="e_0_energy">   -191.67141246 </i>
   </energy>
  </scstep>
  <scstep>
   <time name="dav">   30.25   30.32</time>
   <time name="total">   30.76   30.84</time>
   <energy>
    <i name="e_fr_energy">   -191.65782766 </i>
    <i name="e_wo_entrp">   -191.46896914 </i>
    <i name="e_0_energy">   -191.56339840 </i>
   </energy>
  </scstep>
  <scstep>
   <time name="dav">   29.62   29.69</time>
   <time name="total">   30.14   30.22</time>
   <energy>
    <i name="e_fr_energy">   -191.66668162 </i>
    <i name="e_wo_entrp">   -191.47412254 </i>
    <i name="e_0_energy">   -191.57040208 </i>
   </energy>
  </scstep>
  <scstep>
   <time name="dav">   28.80   28.87</time>
   <time name="total">   29.32   29.39</time>
   <energy>
    <i name="e_fr_energy">   -191.65265889 </i>
    <i name="e_wo_entrp">   -191.46155753 </i>
    <i name="e_0_energy">   -191.55710821 </i>
   </energy>
  </scstep>
  <scstep>
   <time name="dav">   28.56   28.63</time>
   <time name="total">   29.07   29.15</time>
   <energy>
    <i name="e_fr_energy">   -191.65529157 </i>
    <i name="e_wo_entrp">   -191.46344997 </i>
    <i name="e_0_energy">   -191.55937077 </i>
   </energy>
  </scstep>
  <scstep>
   <time name="dav">   28.65   28.72</time>
   <time name="total">   29.16   29.24</time>
   <energy>
    <i name="e_fr_energy">   -191.65263773 </i>
    <i name="e_wo_entrp">   -191.46101520 </i>
    <i name="e_0_energy">   -191.55682646 </i>
   </energy>
  </scstep>
  <scstep>
   <time name="dav">   26.99   27.05</time>
   <time name="total">   27.50   27.57</time>
   <energy>
    <i name="e_fr_energy">   -191.65153332 </i>
    <i name="e_wo_entrp">   -191.46009338 </i>
    <i name="e_0_energy">   -191.55581335 </i>
   </energy>
  </scstep>
  <scstep>
   <time name="dav">   21.64   21.70</time>
   <time name="total">   21.68   21.74</time>
   <energy>
    <i name="alphaZ">     90.09299259 </i>
    <i name="ewald">  44609.05951943 </i>
    <i name="hartreedc"> -50620.97988941 </i>
    <i name="XCdc">   -233.36838738 </i>
    <i name="pawpsdc">   4089.15894358 </i>
    <i name="pawaedc">  -3505.15270696 </i>
    <i name="eentropy">     -0.19137051 </i>
    <i name="bandstr">  -1381.71315520 </i>
    <i name="atom">   6761.44252427 </i>
    <i name="e_fr_energy">   -191.65152958 </i>
    <i name="e_wo_entrp">   -191.46015907 </i>
[...]
      <set comment="kpoint 31">
       <r>  -17.5127    1.0000 </r>
       <r>  -17.2627    1.0000 </r>
       <r>  -16.9377    1.0000 </r>
       <r>  -16.6443    1.0000 </r>
       <r>  -16.5439    1.0000 </r>
       <r>  -16.4125    1.0000 </r>
       <r>  -16.3431    1.0000 </r>
       <r>  -16.2121    1.0000 </r>
       <r>  -16.0496    1.0000 </r>
       <r>  -15.9968    1.0000 </r>
       <r>  -15.9613    1.0000 </r>
       <r>  -15.9053    1.0000 </r>
       <r>  -15.7496    1.0000 </r>
       <r>  -15.6786    1.0000 </r>
       <r>  -15.5837    1.0000 </r>
       <r>  -15.5234    1.0000 </r>
       <r>  -15.4620    1.0000 </r>
       <r>  -15.2473    1.0000 </r>
       <r>   -9.7422    1.0000 </r>
       <r>   -9.4624    1.0000 </r>
       <r>   -9.2916    1.0000 </r>
       <r>   -9.0071    1.0000 </r>
       <r>   -8.8576    1.0000 </r>
       <r>   -8.7240    1.0000 </r>
       <r>   -8.6370    1.0000 </r>
       <r>   -8.4820    1.0000 </r>
       <r>   -8.4003    1.0000 </r>
       <r>   -8.3065    1.0000 </r>
       <r>   -8.2455    1.0000 </r>
       <r>   -8.1524    1.0000 </r>
       <r>   -8.1353    1.0000 </r>
       <r>   -8.0719    1.0000 </r>
       <r>   -8.0174    1.0000 </r>
       <r>   -7.9163    1.0000 </r>
       <r>   -7.7567    1.0000 </r>
       <r>   -7.7043    1.0000 </r>
       <r>   -7.6094    1.0000 </r>
       <r>   -7.4219    1.0000 </r>
       <r>   -7.3528    1.0000 </r>
       <r>   -7.2535    1.0000 </r>
       <r>   -7.1372    1.0000 </r>
       <r>   -7.0880    1.0000 </r>
       <r>   -7.0101    1.0000 </r>
       <r>   -6.8925    1.0000 </r>
       <r>   -6.8550    1.0000 </r>
       <r>   -6.7974    1.0000 </r>
       <r>   -6.6978    1.0000 </r>
       <r>   -6.6043    1.0000 </r>
       <r>   -6.5227    1.0000 </r>
       <r>   -6.5053    1.0000 </r>
       <r>   -6.4303    1.0000 </r>
       <r>   -6.3575    1.0000 </r>
       <r>   -6.2614    1.0000 </r>
       <r>   -6.1421    1.0000 </r>
       <r>   -6.1150    1.0000 </r>
       <r>   -6.0977    1.0000 </r>
       <r>   -5.9852    1.0000 </r>
       <r>   -5.9290    1.0000 </r>
       <r>   -5.8773    1.0000 </r>
       <r>   -5.7948    1.0000 </r>
       <r>   -5.7337    1.0000 </r>
       <r>   -5.6563    1.0000 </r>
       <r>   -5.5024    1.0000 </r>
       <r>   -5.3484    1.0000 </r>
       <r>   -5.3264    1.0000 </r>
       <r>   -5.1538    1.0000 </r>
       <r>   -5.0768    1.0000 </r>
       <r>   -4.9226    1.0000 </r>
       <r>   -4.8028    1.0000 </r>
       <r>   -4.6921    1.0000 </r>
       <r>   -4.5317    1.0000 </r>
       <r>   -4.3996    1.0000 </r>
       <r>   -4.3123    1.0000 </r>
       <r>   -4.2474    1.0000 </r>
       <r>   -4.1201    1.0000 </r>
       <r>   -4.0235    1.0000 </r>
       <r>   -3.9054    1.0000 </r>
       <r>   -3.6215    0.9811 </r>
       <r>   -3.5665    0.9542 </r>
       <r>   -3.3158    0.4657 </r>
       <r>   -2.8972    0.0012 </r>
       <r>   -2.7724    0.0000 </r>
       <r>   -2.7255    0.0000 </r>
       <r>   -2.5359    0.0000 </r>
       <r>   -2.4788    0.0000 </r>
       <r>   -2.4040    0.0000 </r>
       <r>   -2.2210    0.0000 </r>
       <r>   -2.1630    0.0000 </r>
       <r>   -1.9800    0.0000 </r>
       <r>   -1.8792    0.0000 </r>
       <r>   -1.7528    0.0000 </r>
       <r>   -1.5669    0.0000 </r>
       <r>   -1.4921    0.0000 </r>
       <r>   -1.3252    0.0000 </r>
       <r>   -1.2506    0.0000 </r>
       <r>   -1.2152    0.0000 </r>
       <r>   -1.1072    0.0000 </r>
       <r>   -1.0796    0.0000 </r>
       <r>   -0.9459    0.0000 </r>
       <r>   -0.8592    0.0000 </r>
       <r>   -0.7790    0.0000 </r>
       <r>   -0.7441    0.0000 </r>
       <r>   -0.6713    0.0000 </r>
       <r>   -0.5012    0.0000 </r>
       <r>   -0.4398    0.0000 </r>
       <r>   -0.3994    0.0000 </r>
       <r>   -0.2312    0.0000 </r>
       <r>   -0.1487    0.0000 </r>
       <r>   -0.0866    0.0000 </r>
       <r>    0.1411    0.0000 </r>
       <r>    0.4535    0.0000 </r>
       <r>    0.5884    0.0000 </r>
       <r>    0.7727    0.0000 </r>
       <r>    0.9747    0.0000 </r>
       <r>    1.1151    0.0000 </r>
       <r>    1.2542    0.0000 </r>
       <r>    1.3765    0.0000 </r>
       <r>    2.1340    0.0000 </r>
       <r>    2.2877    0.0000 </r>
       <r>    2.3871    0.0000 </r>
      </set>
      <set comment="kpoint 32">
       <r>  -17.5196    1.0000 </r>
       <r>  -17.2039    1.0000 </r>
       <r>  -17.0418    1.0000 </r>
       <r>  -16.6467    1.0000 </r>
       <r>  -16.4773    1.0000 </r>
       <r>  -16.3692    1.0000 </r>
       <r>  -16.2883    1.0000 </r>
       <r>  -16.2357    1.0000 </r>
       <r>  -16.1318    1.0000 </r>
       <r>  -16.0446    1.0000 </r>
       <r>  -15.9720    1.0000 </r>
       <r>  -15.8895    1.0000 </r>
       <r>  -15.7229    1.0000 </r>
       <r>  -15.6778    1.0000 </r>
       <r>  -15.5929    1.0000 </r>
       <r>  -15.5093    1.0000 </r>
       <r>  -15.4427    1.0000 </r>
       <r>  -15.2605    1.0000 </r>
       <r>   -9.6384    1.0000 </r>
       <r>   -9.5923    1.0000 </r>
       <r>   -9.3678    1.0000 </r>
       <r>   -8.9313    1.0000 </r>
       <r>   -8.7663    1.0000 </r>
       <r>   -8.6581    1.0000 </r>
       <r>   -8.6333    1.0000 </r>
       <r>   -8.4848    1.0000 </r>
       <r>   -8.3802    1.0000 </r>
       <r>   -8.3525    1.0000 </r>
       <r>   -8.2495    1.0000 </r>
       <r>   -8.1783    1.0000 </r>
       <r>   -8.1723    1.0000 </r>
       <r>   -8.0752    1.0000 </r>
       <r>   -8.0426    1.0000 </r>
       <r>   -7.9899    1.0000 </r>
       <r>   -7.7640    1.0000 </r>
       <r>   -7.6888    1.0000 </r>
       <r>   -7.5934    1.0000 </r>
       <r>   -7.4344    1.0000 </r>
       <r>   -7.3281    1.0000 </r>
       <r>   -7.2967    1.0000 </r>
       <r>   -7.1920    1.0000 </r>
       <r>   -7.0744    1.0000 </r>
       <r>   -6.9975    1.0000 </r>
       <r>   -6.8989    1.0000 </r>
       <r>   -6.8511    1.0000 </r>
       <r>   -6.7223    1.0000 </r>
       <r>   -6.6555    1.0000 </r>
       <r>   -6.6224    1.0000 </r>
       <r>   -6.5360    1.0000 </r>
       <r>   -6.4980    1.0000 </r>
       <r>   -6.4452    1.0000 </r>
       <r>   -6.3948    1.0000 </r>
       <r>   -6.2806    1.0000 </r>
       <r>   -6.1877    1.0000 </r>
       <r>   -6.1074    1.0000 </r>
       <r>   -6.0263    1.0000 </r>
       <r>   -5.9806    1.0000 </r>
       <r>   -5.9011    1.0000 </r>
       <r>   -5.8613    1.0000 </r>
       <r>   -5.7618    1.0000 </r>
       <r>   -5.6675    1.0000 </r>
       <r>   -5.6235    1.0000 </r>
       <r>   -5.4929    1.0000 </r>
       <r>   -5.4226    1.0000 </r>
       <r>   -5.3066    1.0000 </r>
       <r>   -5.0914    1.0000 </r>
       <r>   -5.0102    1.0000 </r>
       <r>   -4.9845    1.0000 </r>
       <r>   -4.8862    1.0000 </r>
       <r>   -4.7179    1.0000 </r>
       <r>   -4.6004    1.0000 </r>
       <r>   -4.4367    1.0000 </r>
       <r>   -4.3175    1.0000 </r>
       <r>   -4.2454    1.0000 </r>
       <r>   -4.1222    1.0000 </r>
       <r>   -4.0096    1.0000 </r>
       <r>   -3.8819    1.0000 </r>
       <r>   -3.6537    0.9894 </r>
       <r>   -3.5794    0.9623 </r>
       <r>   -3.2618    0.3201 </r>
       <r>   -2.9480    0.0036 </r>
       <r>   -2.7590    0.0000 </r>
       <r>   -2.6924    0.0000 </r>
       <r>   -2.5640    0.0000 </r>
       <r>   -2.4326    0.0000 </r>
       <r>   -2.3641    0.0000 </r>
       <r>   -2.2643    0.0000 </r>
       <r>   -2.1210    0.0000 </r>
       <r>   -1.9801    0.0000 </r>
       <r>   -1.8872    0.0000 </r>
       <r>   -1.8296    0.0000 </r>
       <r>   -1.5725    0.0000 </r>
       <r>   -1.4826    0.0000 </r>
       <r>   -1.3239    0.0000 </r>
       <r>   -1.2298    0.0000 </r>
       <r>   -1.2040    0.0000 </r>
       <r>   -1.0934    0.0000 </r>
       <r>   -1.0289    0.0000 </r>
       <r>   -0.9380    0.0000 </r>
       <r>   -0.9243    0.0000 </r>
       <r>   -0.7834    0.0000 </r>
       <r>   -0.7129    0.0000 </r>
       <r>   -0.6659    0.0000 </r>
       <r>   -0.5306    0.0000 </r>
       <r>   -0.4304    0.0000 </r>
       <r>   -0.3309    0.0000 </r>
       <r>   -0.2235    0.0000 </r>
       <r>   -0.1570    0.0000 </r>
       <r>   -0.0330    0.0000 </r>
       <r>    0.0990    0.0000 </r>
       <r>    0.4317    0.0000 </r>
       <r>    0.5460    0.0000 </r>
       <r>    0.7701    0.0000 </r>
       <r>    0.9004    0.0000 </r>
       <r>    1.0587    0.0000 </r>
       <r>    1.2799    0.0000 </r>
       <r>    1.4391    0.0000 </r>
       <r>    2.1036    0.0000 </r>
       <r>    2.2554    0.0000 </r>
       <r>    2.5635    0.0000 </r>
      </set>
      <set comment="kpoint 33">
       <r>  -17.4917    1.0000 </r>
       <r>  -17.3065    1.0000 </r>
       <r>  -16.9153    1.0000 </r>
       <r>  -16.6508    1.0000 </r>
       <r>  -16.5015    1.0000 </r>
       <r>  -16.4600    1.0000 </r>
       <r>  -16.2687    1.0000 </r>
       <r>  -16.1979    1.0000 </r>
       <r>  -16.1462    1.0000 </r>
       <r>  -16.0735    1.0000 </r>
       <r>  -15.9202    1.0000 </r>
       <r>  -15.8614    1.0000 </r>
       <r>  -15.7219    1.0000 </r>
       <r>  -15.6824    1.0000 </r>
       <r>  -15.6205    1.0000 </r>
       <r>  -15.5076    1.0000 </r>
       <r>  -15.4228    1.0000 </r>
       <r>  -15.2780    1.0000 </r>
       <r>   -9.7137    1.0000 </r>
       <r>   -9.4626    1.0000 </r>
       <r>   -9.3277    1.0000 </r>
       <r>   -8.8979    1.0000 </r>
       <r>   -8.8577    1.0000 </r>
       <r>   -8.7391    1.0000 </r>
       <r>   -8.6416    1.0000 </r>
       <r>   -8.6151    1.0000 </r>
       <r>   -8.3820    1.0000 </r>
       <r>   -8.2926    1.0000 </r>
       <r>   -8.2374    1.0000 </r>
       <r>   -8.2033    1.0000 </r>
       <r>   -8.0935    1.0000 </r>
       <r>   -8.0642    1.0000 </r>
       <r>   -8.0207    1.0000 </r>
       <r>   -7.9182    1.0000 </r>
       <r>   -7.7694    1.0000 </r>
       <r>   -7.7229    1.0000 </r>
       <r>   -7.5715    1.0000 </r>
       <r>   -7.4906    1.0000 </r>
       <r>   -7.3556    1.0000 </r>
       <r>   -7.2808    1.0000 </r>
       <r>   -7.1359    1.0000 </r>
       <r>   -7.0555    1.0000 </r>
       <r>   -7.0070    1.0000 </r>
       <r>   -6.8909    1.0000 </r>
       <r>   -6.8445    1.0000 </r>
       <r>   -6.7426    1.0000 </r>
       <r>   -6.6759    1.0000 </r>
       <r>   -6.5914    1.0000 </r>
       <r>   -6.5648    1.0000 </r>
       <r>   -6.4960    1.0000 </r>
       <r>   -6.4481    1.0000 </r>
       <r>   -6.3660    1.0000 </r>
       <r>   -6.2860    1.0000 </r>
       <r>   -6.1744    1.0000 </r>
       <r>   -6.1190    1.0000 </r>
       <r>   -6.0290    1.0000 </r>
       <r>   -5.9814    1.0000 </r>
       <r>   -5.9269    1.0000 </r>
       <r>   -5.8429    1.0000 </r>
       <r>   -5.7752    1.0000 </r>
       <r>   -5.7049    1.0000 </r>
       <r>   -5.6624    1.0000 </r>
       <r>   -5.5240    1.0000 </r>
       <r>   -5.3796    1.0000 </r>
       <r>   -5.2106    1.0000 </r>
       <r>   -5.1426    1.0000 </r>
       <r>   -5.0971    1.0000 </r>
       <r>   -4.8946    1.0000 </r>
       <r>   -4.7347    1.0000 </r>
       <r>   -4.7215    1.0000 </r>
       <r>   -4.6072    1.0000 </r>
       <r>   -4.4886    1.0000 </r>
       <r>   -4.3714    1.0000 </r>
       <r>   -4.2337    1.0000 </r>
       <r>   -4.1503    1.0000 </r>
       <r>   -4.0101    1.0000 </r>
       <r>   -3.8870    1.0000 </r>
       <r>   -3.7026    0.9960 </r>
       <r>   -3.5833    0.9645 </r>
       <r>   -3.2294    0.2429 </r>
       <r>   -2.9616    0.0048 </r>
       <r>   -2.7598    0.0000 </r>
       <r>   -2.6895    0.0000 </r>
       <r>   -2.5982    0.0000 </r>
       <r>   -2.3829    0.0000 </r>
       <r>   -2.3401    0.0000 </r>
       <r>   -2.2899    0.0000 </r>
       <r>   -2.0866    0.0000 </r>
       <r>   -1.9936    0.0000 </r>
       <r>   -1.8804    0.0000 </r>
       <r>   -1.8153    0.0000 </r>
       <r>   -1.6138    0.0000 </r>
       <r>   -1.4496    0.0000 </r>
       <r>   -1.3072    0.0000 </r>
       <r>   -1.2283    0.0000 </r>
       <r>   -1.1964    0.0000 </r>
       <r>   -1.1061    0.0000 </r>
       <r>   -1.0435    0.0000 </r>
       <r>   -0.9556    0.0000 </r>
       <r>   -0.8842    0.0000 </r>
       <r>   -0.7906    0.0000 </r>
       <r>   -0.6922    0.0000 </r>
       <r>   -0.6590    0.0000 </r>
       <r>   -0.5761    0.0000 </r>
       <r>   -0.4546    0.0000 </r>
       <r>   -0.2697    0.0000 </r>
       <r>   -0.2540    0.0000 </r>
       <r>   -0.0883    0.0000 </r>
       <r>   -0.0459    0.0000 </r>
       <r>    0.1013    0.0000 </r>
       <r>    0.4006    0.0000 </r>
       <r>    0.4731    0.0000 </r>
       <r>    0.7982    0.0000 </r>
       <r>    0.8586    0.0000 </r>
       <r>    1.0339    0.0000 </r>
       <r>    1.2879    0.0000 </r>
       <r>    1.5180    0.0000 </r>
       <r>    2.1324    0.0000 </r>
       <r>    2.2895    0.0000 </r>
       <r>    2.3921    0.0000 </r>
      </set>
      <set comment="kpoint 34">
       <r>  -17.4430    1.0000 </r>
       <r>  -17.3919    1.0000 </r>
       <r>  -16.7659    1.0000 </r>
       <r>  -16.6866    1.0000 </r>
       <r>  -16.6162    1.0000 </r>
       <r>  -16.4653    1.0000 </r>
       <r>  -16.2597    1.0000 </r>
       <r>  -16.1988    1.0000 </r>
       <r>  -16.1409    1.0000 </r>
       <r>  -16.0734    1.0000 </r>
       <r>  -15.8793    1.0000 </r>
       <r>  -15.8137    1.0000 </r>
       <r>  -15.7692    1.0000 </r>
       <r>  -15.6699    1.0000 </r>
       <r>  -15.6397    1.0000 </r>
       <r>  -15.5131    1.0000 </r>
       <r>  -15.4136    1.0000 </r>
       <r>  -15.2869    1.0000 </r>
       <r>   -9.7528    1.0000 </r>
       <r>   -9.3289    1.0000 </r>
       <r>   -9.2948    1.0000 </r>
       <r>   -8.9804    1.0000 </r>
       <r>   -8.8988    1.0000 </r>
       <r>   -8.7791    1.0000 </r>
       <r>   -8.7136    1.0000 </r>
       <r>   -8.6404    1.0000 </r>
       <r>   -8.3671    1.0000 </r>
       <r>   -8.2637    1.0000 </r>
       <r>   -8.2413    1.0000 </r>
       <r>   -8.1935    1.0000 </r>
       <r>   -8.0694    1.0000 </r>
       <r>   -8.0440    1.0000 </r>
       <r>   -7.9517    1.0000 </r>
       <r>   -7.9041    1.0000 </r>
       <r>   -7.7691    1.0000 </r>
       <r>   -7.7551    1.0000 </r>
       <r>   -7.5690    1.0000 </r>
       <r>   -7.4472    1.0000 </r>
       <r>   -7.4042    1.0000 </r>
       <r>   -7.3175    1.0000 </r>
       <r>   -7.0815    1.0000 </r>
       <r>   -7.0488    1.0000 </r>
       <r>   -7.0016    1.0000 </r>
       <r>   -6.8601    1.0000 </r>
       <r>   -6.8549    1.0000 </r>
       <r>   -6.7239    1.0000 </r>
       <r>   -6.6828    1.0000 </r>
       <r>   -6.6480    1.0000 </r>
       <r>   -6.5907    1.0000 </r>
       <r>   -6.5111    1.0000 </r>
       <r>   -6.3858    1.0000 </r>
       <r>   -6.3550    1.0000 </r>
       <r>   -6.2849    1.0000 </r>
       <r>   -6.1891    1.0000 </r>
       <r>   -6.1061    1.0000 </r>
       <r>   -6.0215    1.0000 </r>
       <r>   -6.0055    1.0000 </r>
       <r>   -5.9574    1.0000 </r>
       <r>   -5.8345    1.0000 </r>
       <r>   -5.7944    1.0000 </r>
       <r>   -5.7220    1.0000 </r>
       <r>   -5.7072    1.0000 </r>
       <r>   -5.5407    1.0000 </r>
       <r>   -5.3296    1.0000 </r>
       <r>   -5.2618    1.0000 </r>
       <r>   -5.1400    1.0000 </r>
       <r>   -5.0437    1.0000 </r>
       <r>   -4.8818    1.0000 </r>
       <r>   -4.7272    1.0000 </r>
       <r>   -4.6164    1.0000 </r>
       <r>   -4.5664    1.0000 </r>
       <r>   -4.5273    1.0000 </r>
       <r>   -4.4051    1.0000 </r>
       <r>   -4.2577    1.0000 </r>
       <r>   -4.1677    1.0000 </r>
       <r>   -4.0118    1.0000 </r>
       <r>   -3.8973    1.0000 </r>
       <r>   -3.7242    0.9975 </r>
       <r>   -3.5855    0.9657 </r>
       <r>   -3.2240    0.2311 </r>
       <r>   -2.9582    0.0045 </r>
       <r>   -2.7582    0.0000 </r>
       <r>   -2.6962    0.0000 </r>
       <r>   -2.6176    0.0000 </r>
       <r>   -2.3696    0.0000 </r>
       <r>   -2.3324    0.0000 </r>
       <r>   -2.2913    0.0000 </r>
       <r>   -2.0706    0.0000 </r>
       <r>   -1.9975    0.0000 </r>
       <r>   -1.8809    0.0000 </r>
       <r>   -1.7798    0.0000 </r>
       <r>   -1.6414    0.0000 </r>
       <r>   -1.4357    0.0000 </r>
       <r>   -1.2749    0.0000 </r>
       <r>   -1.2474    0.0000 </r>
       <r>   -1.1920    0.0000 </r>
       <r>   -1.1429    0.0000 </r>
       <r>   -1.0498    0.0000 </r>
       <r>   -0.9277    0.0000 </r>
       <r>   -0.8679    0.0000 </r>
       <r>   -0.7943    0.0000 </r>
       <r>   -0.7002    0.0000 </r>
       <r>   -0.6638    0.0000 </r>
       <r>   -0.6014    0.0000 </r>
       <r>   -0.4698    0.0000 </r>
       <r>   -0.2801    0.0000 </r>
       <r>   -0.2199    0.0000 </r>
       <r>   -0.0926    0.0000 </r>
       <r>    0.0122    0.0000 </r>
       <r>    0.0782    0.0000 </r>
       <r>    0.3299    0.0000 </r>
       <r>    0.4866    0.0000 </r>
       <r>    0.8257    0.0000 </r>
       <r>    0.8403    0.0000 </r>
       <r>    1.0290    0.0000 </r>
       <r>    1.2890    0.0000 </r>
       <r>    1.5545    0.0000 </r>
       <r>    2.2029    0.0000 </r>
       <r>    2.2560    0.0000 </r>
       <r>    2.3827    0.0000 </r>
      </set>
     </set>
    </set>
   </array>
  </eigenvalues>
  <separator name="orbital magnetization" >
   <v name="MAGDIPOLOUT">      0.00000000      0.00000000      0.00000000</v>
  </separator>
 </calculation>
 <structure name="finalpos" >
  <crystal>
   <varray name="basis" >
    <v>       8.36121948       4.84894436       0.00000000 </v>
    <v>      -8.34244002       4.81672789       0.00000000 </v>
    <v>       0.00000000       0.00000000      30.00000000 </v>
   </varray>
   <i name="volume">   2421.77239552 </i>
   <varray name="rec_basis" >
    <v>       0.05966780       0.10334299       0.00000000 </v>
    <v>      -0.06006689       0.10357562       0.00000000 </v>
    <v>       0.00000000       0.00000000       0.03333333 </v>
   </varray>
  </crystal>
  <varray name="positions" >
   <v>       0.31319526       0.31038755       0.00004898 </v>
   <v>       0.70056370       0.68398790      -0.00178910 </v>
   <v>       0.62757084       0.31376405       0.00261613 </v>
   <v>       0.00444735       0.00398737      -0.00046973 </v>
   <v>       0.30449123      -0.01040303       0.00089993 </v>
   <v>       1.01761272       0.31883827      -0.00070783 </v>
   <v>       0.01766074       0.69465972      -0.00032412 </v>
   <v>       0.29554253       0.65792751       0.00267749 </v>
   <v>       0.71049793       0.01714762      -0.00179609 </v>
   <v>       0.12029593       0.22199544       0.94424786 </v>
   <v>       0.22426177       0.11660257       0.05478277 </v>
   <v>       0.10372118       0.55362757       0.94710365 </v>
   <v>       0.22793848       0.44255763       0.05324372 </v>
   <v>       0.10942190       0.89072325       0.94320949 </v>
   <v>       0.21486564       0.77980184       0.05779723 </v>
   <v>       0.43646902       0.22031586       0.94873977 </v>
   <v>       0.55530364       0.10419425       0.04800876 </v>
   <v>       0.44632381       0.55841622       0.95913442 </v>
   <v>       0.55124315       0.44781785       0.04674076 </v>
   <v>       0.45136664       0.89138664       0.95600711 </v>
   <v>       0.55764013       0.77885509       0.04422586 </v>
   <v>       0.77973891       0.22955094       0.94994130 </v>
   <v>       0.90008523       0.11477402       0.05537513 </v>
   <v>       0.77405646       0.55091607       0.95160836 </v>
   <v>       0.88102745       0.44017679       0.04034101 </v>
   <v>       0.78354645       0.88735204       0.94510651 </v>
   <v>       0.88932636       0.77885344       0.05323052 </v>
  </varray>
 </structure>
</modeling>
