   27   27  100    1
  0.9710400E+02  0.1002848E-08  0.1002848E-08  0.3000000E-08  0.5000000E-15
  1.000000000000000E-004
  CAR 
 unknown system                          
    159     34    120
 
  0.0000000E+00  0.0000000E+00  0.0000000E+00  0.1562500E-01
    1      -17.826790   1.000000
    2      -16.767160   1.000000
    3      -16.640024   1.000000
    4      -16.620822   1.000000
    5      -16.582136   1.000000
    6      -16.489647   1.000000
    7      -16.422729   1.000000
    8      -16.238751   1.000000
    9      -16.134313   1.000000
   10      -16.117995   1.000000
   11      -16.100296   1.000000
   12      -15.954436   1.000000
   13      -15.881545   1.000000
   14      -15.762613   1.000000
   15      -15.607001   1.000000
   16      -15.401002   1.000000
   17      -15.388224   1.000000
   18      -15.179920   1.000000
   19       -9.352139   1.000000
   20       -9.027769   1.000000
   21       -8.976318   1.000000
   22       -8.920995   1.000000
   23       -8.748452   1.000000
   24       -8.668753   1.000000
   25       -8.601889   1.000000
   26       -8.588113   1.000000
   27       -8.533514   1.000000
   28       -8.503874   1.000000
   29       -8.467089   1.000000
   30       -8.445180   1.000000
   31       -8.343202   1.000000
   32       -8.124600   1.000000
   33       -8.075808   1.000000
   34       -7.993236   1.000000
   35       -7.808488   1.000000
   36       -7.761789   1.000000
   37       -7.691666   1.000000
   38       -7.592205   1.000000
   39       -7.486296   1.000000
   40       -7.410768   1.000000
   41       -7.352834   1.000000
   42       -7.221654   1.000000
   43       -7.083961   1.000000
   44       -6.882838   1.000000
   45       -6.813566   1.000000
   46       -6.791979   1.000000
   47       -6.776964   1.000000
   48       -6.650495   1.000000
   49       -6.538132   1.000000
   50       -6.498583   1.000000
   51       -6.413844   1.000000
   52       -6.353933   1.000000
   53       -6.307527   1.000000
   54       -6.251499   1.000000
   55       -6.219793   1.000000
   56       -6.158877   1.000000
   57       -6.050597   1.000000
   58       -5.975478   1.000000
   59       -5.837582   1.000000
   60       -5.541642   1.000000
   61       -5.403668   1.000000
   62       -5.324962   1.000000
   63       -5.263834   1.000000
   64       -5.214624   1.000000
   65       -5.097195   1.000000
   66       -4.999845   1.000000
   67       -4.965191   1.000000
   68       -4.836223   1.000000
   69       -4.816402   1.000000
   70       -4.695153   1.000000
   71       -4.667150   1.000000
   72       -4.626291   1.000000
   73       -4.548215   1.000000
   74       -4.370813   1.000000
   75       -4.074323   1.000000
   76       -3.983536   0.999997
   77       -3.845378   0.999791
   78       -3.579041   0.950089
   79       -3.506755   0.871724
   80       -3.452070   0.772739
   81       -3.211018   0.169385
   82       -2.949684   0.002520
   83       -2.838039   0.000163
   84       -2.707888   0.000003
   85       -2.561366   0.000000
   86       -2.401833   0.000000
   87       -2.380191   0.000000
   88       -2.298671   0.000000
   89       -2.226109   0.000000
   90       -2.171377   0.000000
   91       -1.709524   0.000000
   92       -1.533456   0.000000
   93       -1.452423   0.000000
   94       -1.268778   0.000000
   95       -1.133806   0.000000
   96       -1.050239   0.000000
   97       -0.957550   0.000000
   98       -0.896942   0.000000
   99       -0.714814   0.000000
  100       -0.670785   0.000000
  101       -0.586670   0.000000
  102       -0.522648   0.000000
  103       -0.502884   0.000000
  104       -0.349539   0.000000
  105       -0.229151   0.000000
  106       -0.174475   0.000000
  107       -0.111362   0.000000
  108       -0.027200   0.000000
  109        0.033130   0.000000
  110        0.208904   0.000000
  111        0.344624   0.000000
  112        0.643171   0.000000
  113        0.772040   0.000000
  114        0.864333   0.000000
  115        0.914098   0.000000
  116        0.957642   0.000000
  117        1.272641   0.000000
  118        1.645702   0.000000
  119        1.834887   0.000000
  120        2.152860   0.000000
 
  0.1250000E+00  0.2775558E-16  0.0000000E+00  0.3125000E-01
    1      -17.802779   1.000000
    2      -16.795411   1.000000
    3      -16.761339   1.000000
    4      -16.618063   1.000000
    5      -16.558252   1.000000
    6      -16.503552   1.000000
    7      -16.378371   1.000000
    8      -16.257674   1.000000
    9      -16.136293   1.000000
   10      -16.082665   1.000000
   11      -16.034429   1.000000
   12      -15.943859   1.000000
   13      -15.867982   1.000000
   14      -15.756579   1.000000
   15      -15.616499   1.000000
   16      -15.411585   1.000000
   17      -15.396374   1.000000
   18      -15.183071   1.000000
   19       -9.344085   1.000000
   20       -9.154390   1.000000
   21       -9.069708   1.000000
   22       -9.016509   1.000000
   23       -8.789656   1.000000
   24       -8.714992   1.000000
   25       -8.646000   1.000000
   26       -8.559530   1.000000
   27       -8.538476   1.000000
   28       -8.504198   1.000000
   29       -8.404443   1.000000
   30       -8.286143   1.000000
   31       -8.245374   1.000000
   32       -8.074107   1.000000
   33       -8.023078   1.000000
   34       -7.915861   1.000000
   35       -7.782527   1.000000
   36       -7.751797   1.000000
   37       -7.625330   1.000000
   38       -7.598218   1.000000
   39       -7.513595   1.000000
   40       -7.450011   1.000000
   41       -7.331279   1.000000
   42       -7.176343   1.000000
   43       -7.136413   1.000000
   44       -6.959700   1.000000
   45       -6.859527   1.000000
   46       -6.780563   1.000000
   47       -6.725940   1.000000
   48       -6.663962   1.000000
   49       -6.518546   1.000000
   50       -6.459218   1.000000
   51       -6.427705   1.000000
   52       -6.398371   1.000000
   53       -6.300820   1.000000
   54       -6.253811   1.000000
   55       -6.245854   1.000000
   56       -6.122135   1.000000
   57       -6.042935   1.000000
   58       -5.956550   1.000000
   59       -5.797097   1.000000
   60       -5.519156   1.000000
   61       -5.436199   1.000000
   62       -5.424248   1.000000
   63       -5.325891   1.000000
   64       -5.237453   1.000000
   65       -5.086337   1.000000
   66       -5.036692   1.000000
   67       -4.949843   1.000000
   68       -4.905417   1.000000
   69       -4.807671   1.000000
   70       -4.730964   1.000000
   71       -4.647959   1.000000
   72       -4.589030   1.000000
   73       -4.473179   1.000000
   74       -4.284460   1.000000
   75       -4.066516   1.000000
   76       -3.941532   0.999987
   77       -3.881786   0.999924
   78       -3.691549   0.992682
   79       -3.585153   0.954385
   80       -3.445463   0.758406
   81       -3.118375   0.053516
   82       -2.929846   0.001616
   83       -2.808945   0.000072
   84       -2.687111   0.000002
   85       -2.557005   0.000000
   86       -2.408273   0.000000
   87       -2.352171   0.000000
   88       -2.287068   0.000000
   89       -2.222006   0.000000
   90       -2.144464   0.000000
   91       -1.709075   0.000000
   92       -1.540904   0.000000
   93       -1.449441   0.000000
   94       -1.272560   0.000000
   95       -1.122856   0.000000
   96       -1.043219   0.000000
   97       -0.987778   0.000000
   98       -0.897096   0.000000
   99       -0.787668   0.000000
  100       -0.729585   0.000000
  101       -0.636995   0.000000
  102       -0.570618   0.000000
  103       -0.535385   0.000000
  104       -0.404023   0.000000
  105       -0.308267   0.000000
  106       -0.190177   0.000000
  107       -0.127454   0.000000
  108       -0.020938   0.000000
  109        0.143718   0.000000
  110        0.172326   0.000000
  111        0.394951   0.000000
  112        0.549240   0.000000
  113        0.714925   0.000000
  114        0.902771   0.000000
  115        0.950892   0.000000
  116        1.004584   0.000000
  117        1.318205   0.000000
  118        1.688562   0.000000
  119        1.875126   0.000000
  120        2.187741   0.000000
 
  0.2500000E+00  0.5551115E-16  0.0000000E+00  0.3125000E-01
    1      -17.732789   1.000000
    2      -16.996869   1.000000
    3      -16.754445   1.000000
    4      -16.671938   1.000000
    5      -16.611403   1.000000
    6      -16.466192   1.000000
    7      -16.354237   1.000000
    8      -16.207189   1.000000
    9      -16.136772   1.000000
   10      -16.020269   1.000000
   11      -15.996624   1.000000
   12      -15.896819   1.000000
   13      -15.802256   1.000000
   14      -15.753485   1.000000
   15      -15.631066   1.000000
   16      -15.445849   1.000000
   17      -15.408497   1.000000
   18      -15.192167   1.000000
   19       -9.494396   1.000000
   20       -9.271060   1.000000
   21       -9.181922   1.000000
   22       -9.114390   1.000000
   23       -8.900849   1.000000
   24       -8.782868   1.000000
   25       -8.592767   1.000000
   26       -8.554174   1.000000
   27       -8.510269   1.000000
   28       -8.424505   1.000000
   29       -8.311213   1.000000
   30       -8.233454   1.000000
   31       -8.115964   1.000000
   32       -8.065923   1.000000
   33       -7.908818   1.000000
   34       -7.877888   1.000000
   35       -7.721733   1.000000
   36       -7.650611   1.000000
   37       -7.591388   1.000000
   38       -7.558865   1.000000
   39       -7.458591   1.000000
   40       -7.386224   1.000000
   41       -7.319056   1.000000
   42       -7.202216   1.000000
   43       -7.113615   1.000000
   44       -7.006296   1.000000
   45       -6.875437   1.000000
   46       -6.771638   1.000000
   47       -6.725434   1.000000
   48       -6.667956   1.000000
   49       -6.571481   1.000000
   50       -6.474776   1.000000
   51       -6.417102   1.000000
   52       -6.371853   1.000000
   53       -6.319385   1.000000
   54       -6.257526   1.000000
   55       -6.177546   1.000000
   56       -6.114013   1.000000
   57       -5.974115   1.000000
   58       -5.920635   1.000000
   59       -5.755933   1.000000
   60       -5.664650   1.000000
   61       -5.614144   1.000000
   62       -5.501829   1.000000
   63       -5.423981   1.000000
   64       -5.301755   1.000000
   65       -5.181508   1.000000
   66       -5.018517   1.000000
   67       -4.940329   1.000000
   68       -4.895888   1.000000
   69       -4.797889   1.000000
   70       -4.755201   1.000000
   71       -4.595325   1.000000
   72       -4.486462   1.000000
   73       -4.349656   1.000000
   74       -4.272599   1.000000
   75       -4.120106   1.000000
   76       -3.962394   0.999993
   77       -3.885312   0.999931
   78       -3.792578   0.999199
   79       -3.638811   0.980697
   80       -3.424534   0.709933
   81       -3.024055   0.011345
   82       -2.890902   0.000641
   83       -2.753152   0.000014
   84       -2.622620   0.000000
   85       -2.547807   0.000000
   86       -2.420830   0.000000
   87       -2.311105   0.000000
   88       -2.243866   0.000000
   89       -2.186181   0.000000
   90       -2.075683   0.000000
   91       -1.701078   0.000000
   92       -1.563036   0.000000
   93       -1.452656   0.000000
   94       -1.280426   0.000000
   95       -1.118777   0.000000
   96       -1.094451   0.000000
   97       -1.022125   0.000000
   98       -0.953995   0.000000
   99       -0.905117   0.000000
  100       -0.861285   0.000000
  101       -0.746052   0.000000
  102       -0.664839   0.000000
  103       -0.562507   0.000000
  104       -0.470328   0.000000
  105       -0.424889   0.000000
  106       -0.254253   0.000000
  107       -0.148738   0.000000
  108       -0.062913   0.000000
  109        0.094726   0.000000
  110        0.229245   0.000000
  111        0.408018   0.000000
  112        0.538258   0.000000
  113        0.612690   0.000000
  114        0.945188   0.000000
  115        1.003811   0.000000
  116        1.117462   0.000000
  117        1.424484   0.000000
  118        1.808784   0.000000
  119        1.989793   0.000000
  120        2.291229   0.000000
 
  0.3750000E+00  0.0000000E+00  0.0000000E+00  0.3125000E-01
    1      -17.626776   1.000000
    2      -17.195673   1.000000
    3      -16.744264   1.000000
    4      -16.712173   1.000000
    5      -16.654988   1.000000
    6      -16.455665   1.000000
    7      -16.347291   1.000000
    8      -16.169612   1.000000
    9      -16.090768   1.000000
   10      -16.002569   1.000000
   11      -15.941414   1.000000
   12      -15.873974   1.000000
   13      -15.785485   1.000000
   14      -15.722420   1.000000
   15      -15.632722   1.000000
   16      -15.469657   1.000000
   17      -15.423254   1.000000
   18      -15.203619   1.000000
   19       -9.699901   1.000000
   20       -9.346573   1.000000
   21       -9.227353   1.000000
   22       -9.108813   1.000000
   23       -8.988808   1.000000
   24       -8.821175   1.000000
   25       -8.559440   1.000000
   26       -8.510882   1.000000
   27       -8.434487   1.000000
   28       -8.339674   1.000000
   29       -8.291238   1.000000
   30       -8.225828   1.000000
   31       -8.144333   1.000000
   32       -8.047443   1.000000
   33       -7.936560   1.000000
   34       -7.831164   1.000000
   35       -7.777467   1.000000
   36       -7.660732   1.000000
   37       -7.581092   1.000000
   38       -7.457543   1.000000
   39       -7.362202   1.000000
   40       -7.279565   1.000000
   41       -7.206263   1.000000
   42       -7.145032   1.000000
   43       -7.051799   1.000000
   44       -6.960165   1.000000
   45       -6.843697   1.000000
   46       -6.822181   1.000000
   47       -6.722683   1.000000
   48       -6.671188   1.000000
   49       -6.548357   1.000000
   50       -6.472044   1.000000
   51       -6.413860   1.000000
   52       -6.384614   1.000000
   53       -6.321941   1.000000
   54       -6.209601   1.000000
   55       -6.117930   1.000000
   56       -6.058729   1.000000
   57       -5.967929   1.000000
   58       -5.913008   1.000000
   59       -5.868723   1.000000
   60       -5.802759   1.000000
   61       -5.760347   1.000000
   62       -5.584492   1.000000
   63       -5.534175   1.000000
   64       -5.344397   1.000000
   65       -5.195666   1.000000
   66       -5.013574   1.000000
   67       -4.934215   1.000000
   68       -4.874741   1.000000
   69       -4.800107   1.000000
   70       -4.749252   1.000000
   71       -4.608719   1.000000
   72       -4.528588   1.000000
   73       -4.406035   1.000000
   74       -4.190368   1.000000
   75       -4.082906   1.000000
   76       -4.025186   0.999999
   77       -3.891275   0.999942
   78       -3.731397   0.996766
   79       -3.597462   0.962132
   80       -3.447100   0.762002
   81       -2.972850   0.004137
   82       -2.855550   0.000260
   83       -2.712093   0.000004
   84       -2.562191   0.000000
   85       -2.535872   0.000000
   86       -2.418925   0.000000
   87       -2.278849   0.000000
   88       -2.188619   0.000000
   89       -2.137978   0.000000
   90       -1.985982   0.000000
   91       -1.674266   0.000000
   92       -1.597084   0.000000
   93       -1.480651   0.000000
   94       -1.326650   0.000000
   95       -1.207109   0.000000
   96       -1.121931   0.000000
   97       -1.098497   0.000000
   98       -1.041009   0.000000
   99       -0.957918   0.000000
  100       -0.925829   0.000000
  101       -0.831988   0.000000
  102       -0.710757   0.000000
  103       -0.593935   0.000000
  104       -0.534263   0.000000
  105       -0.457667   0.000000
  106       -0.338333   0.000000
  107       -0.186128   0.000000
  108       -0.134072   0.000000
  109       -0.019693   0.000000
  110        0.253698   0.000000
  111        0.380242   0.000000
  112        0.512093   0.000000
  113        0.654896   0.000000
  114        0.969890   0.000000
  115        1.067684   0.000000
  116        1.203400   0.000000
  117        1.523423   0.000000
  118        1.989477   0.000000
  119        2.165687   0.000000
  120        2.458051   0.000000
 
  0.5000000E+00  0.1110223E-15  0.0000000E+00  0.1562500E-01
    1      -17.546524   1.000000
    2      -17.308759   1.000000
    3      -16.739465   1.000000
    4      -16.725784   1.000000
    5      -16.671610   1.000000
    6      -16.455482   1.000000
    7      -16.343894   1.000000
    8      -16.170602   1.000000
    9      -16.043143   1.000000
   10      -15.994267   1.000000
   11      -15.940583   1.000000
   12      -15.851512   1.000000
   13      -15.777986   1.000000
   14      -15.737574   1.000000
   15      -15.624379   1.000000
   16      -15.469183   1.000000
   17      -15.431174   1.000000
   18      -15.209248   1.000000
   19       -9.775478   1.000000
   20       -9.384185   1.000000
   21       -9.249985   1.000000
   22       -9.084705   1.000000
   23       -9.008511   1.000000
   24       -8.832786   1.000000
   25       -8.548629   1.000000
   26       -8.503502   1.000000
   27       -8.408327   1.000000
   28       -8.338719   1.000000
   29       -8.254208   1.000000
   30       -8.175214   1.000000
   31       -8.152366   1.000000
   32       -8.039414   1.000000
   33       -7.970950   1.000000
   34       -7.913110   1.000000
   35       -7.782867   1.000000
   36       -7.718547   1.000000
   37       -7.551279   1.000000
   38       -7.400373   1.000000
   39       -7.332851   1.000000
   40       -7.256301   1.000000
   41       -7.116723   1.000000
   42       -7.067086   1.000000
   43       -7.008938   1.000000
   44       -6.952314   1.000000
   45       -6.868149   1.000000
   46       -6.761376   1.000000
   47       -6.714382   1.000000
   48       -6.655636   1.000000
   49       -6.568175   1.000000
   50       -6.500702   1.000000
   51       -6.415998   1.000000
   52       -6.367750   1.000000
   53       -6.292235   1.000000
   54       -6.257837   1.000000
   55       -6.120135   1.000000
   56       -6.087116   1.000000
   57       -5.973043   1.000000
   58       -5.919242   1.000000
   59       -5.863917   1.000000
   60       -5.820392   1.000000
   61       -5.780496   1.000000
   62       -5.604576   1.000000
   63       -5.486945   1.000000
   64       -5.356617   1.000000
   65       -5.307882   1.000000
   66       -5.119835   1.000000
   67       -4.919835   1.000000
   68       -4.892656   1.000000
   69       -4.803420   1.000000
   70       -4.751503   1.000000
   71       -4.613607   1.000000
   72       -4.512522   1.000000
   73       -4.384120   1.000000
   74       -4.199982   1.000000
   75       -4.070536   1.000000
   76       -4.035069   0.999999
   77       -3.847789   0.999804
   78       -3.713786   0.995319
   79       -3.563939   0.938090
   80       -3.473488   0.815768
   81       -2.956509   0.002923
   82       -2.839686   0.000170
   83       -2.697254   0.000002
   84       -2.563012   0.000000
   85       -2.517121   0.000000
   86       -2.400510   0.000000
   87       -2.266283   0.000000
   88       -2.164840   0.000000
   89       -2.115177   0.000000
   90       -1.940113   0.000000
   91       -1.662630   0.000000
   92       -1.602622   0.000000
   93       -1.517217   0.000000
   94       -1.363791   0.000000
   95       -1.218118   0.000000
   96       -1.186916   0.000000
   97       -1.133650   0.000000
   98       -1.052891   0.000000
   99       -0.979490   0.000000
  100       -0.943594   0.000000
  101       -0.853910   0.000000
  102       -0.724124   0.000000
  103       -0.605198   0.000000
  104       -0.557955   0.000000
  105       -0.466930   0.000000
  106       -0.367547   0.000000
  107       -0.210413   0.000000
  108       -0.156283   0.000000
  109       -0.080228   0.000000
  110        0.253952   0.000000
  111        0.375433   0.000000
  112        0.493385   0.000000
  113        0.687489   0.000000
  114        0.974859   0.000000
  115        1.095615   0.000000
  116        1.236064   0.000000
  117        1.561812   0.000000
  118        2.189043   0.000000
  119        2.257563   0.000000
  120        2.378466   0.000000
 
  0.0000000E+00  0.1250000E+00  0.0000000E+00  0.3125000E-01
    1      -17.803104   1.000000
    2      -16.786599   1.000000
    3      -16.748979   1.000000
    4      -16.647113   1.000000
    5      -16.588381   1.000000
    6      -16.431214   1.000000
    7      -16.410842   1.000000
    8      -16.263155   1.000000
    9      -16.138011   1.000000
   10      -16.095423   1.000000
   11      -16.003278   1.000000
   12      -15.956962   1.000000
   13      -15.868987   1.000000
   14      -15.755678   1.000000
   15      -15.614061   1.000000
   16      -15.416565   1.000000
   17      -15.391116   1.000000
   18      -15.185209   1.000000
   19       -9.349833   1.000000
   20       -9.176958   1.000000
   21       -9.029551   1.000000
   22       -9.006397   1.000000
   23       -8.790654   1.000000
   24       -8.723368   1.000000
   25       -8.649808   1.000000
   26       -8.583815   1.000000
   27       -8.547174   1.000000
   28       -8.505345   1.000000
   29       -8.407811   1.000000
   30       -8.274847   1.000000
   31       -8.238748   1.000000
   32       -8.075948   1.000000
   33       -8.006704   1.000000
   34       -7.894614   1.000000
   35       -7.798673   1.000000
   36       -7.750171   1.000000
   37       -7.665757   1.000000
   38       -7.580341   1.000000
   39       -7.483457   1.000000
   40       -7.460955   1.000000
   41       -7.304726   1.000000
   42       -7.220942   1.000000
   43       -7.138518   1.000000
   44       -6.946031   1.000000
   45       -6.839840   1.000000
   46       -6.787960   1.000000
   47       -6.734539   1.000000
   48       -6.684489   1.000000
   49       -6.505269   1.000000
   50       -6.453213   1.000000
   51       -6.425710   1.000000
   52       -6.399755   1.000000
   53       -6.333181   1.000000
   54       -6.256269   1.000000
   55       -6.218463   1.000000
   56       -6.109525   1.000000
   57       -6.044008   1.000000
   58       -5.963151   1.000000
   59       -5.796760   1.000000
   60       -5.516487   1.000000
   61       -5.447155   1.000000
   62       -5.409095   1.000000
   63       -5.324499   1.000000
   64       -5.254928   1.000000
   65       -5.077564   1.000000
   66       -5.031888   1.000000
   67       -4.941773   1.000000
   68       -4.886844   1.000000
   69       -4.812802   1.000000
   70       -4.731461   1.000000
   71       -4.675499   1.000000
   72       -4.604402   1.000000
   73       -4.454809   1.000000
   74       -4.281609   1.000000
   75       -4.071927   1.000000
   76       -3.948034   0.999990
   77       -3.861490   0.999865
   78       -3.696401   0.993349
   79       -3.631938   0.978296
   80       -3.407830   0.668247
   81       -3.115591   0.051407
   82       -2.936631   0.001885
   83       -2.795538   0.000049
   84       -2.711341   0.000004
   85       -2.550825   0.000000
   86       -2.390611   0.000000
   87       -2.365816   0.000000
   88       -2.294544   0.000000
   89       -2.218970   0.000000
   90       -2.138467   0.000000
   91       -1.714566   0.000000
   92       -1.535080   0.000000
   93       -1.443724   0.000000
   94       -1.274414   0.000000
   95       -1.125122   0.000000
   96       -1.052972   0.000000
   97       -0.961442   0.000000
   98       -0.908379   0.000000
   99       -0.775827   0.000000
  100       -0.725808   0.000000
  101       -0.623938   0.000000
  102       -0.608053   0.000000
  103       -0.535110   0.000000
  104       -0.406950   0.000000
  105       -0.371843   0.000000
  106       -0.143490   0.000000
  107       -0.091718   0.000000
  108       -0.006665   0.000000
  109        0.096425   0.000000
  110        0.203045   0.000000
  111        0.407828   0.000000
  112        0.523853   0.000000
  113        0.747536   0.000000
  114        0.880222   0.000000
  115        0.938890   0.000000
  116        1.048365   0.000000
  117        1.281830   0.000000
  118        1.688584   0.000000
  119        1.875157   0.000000
  120        2.187865   0.000000
 
  0.1250000E+00  0.1250000E+00  0.0000000E+00  0.3125000E-01
    1      -17.757051   1.000000
    2      -16.897771   1.000000
    3      -16.795084   1.000000
    4      -16.739708   1.000000
    5      -16.502404   1.000000
    6      -16.442850   1.000000
    7      -16.383370   1.000000
    8      -16.269775   1.000000
    9      -16.110456   1.000000
   10      -16.041137   1.000000
   11      -15.972280   1.000000
   12      -15.928054   1.000000
   13      -15.834886   1.000000
   14      -15.757584   1.000000
   15      -15.629122   1.000000
   16      -15.435805   1.000000
   17      -15.401886   1.000000
   18      -15.187764   1.000000
   19       -9.393112   1.000000
   20       -9.290782   1.000000
   21       -9.194348   1.000000
   22       -9.118403   1.000000
   23       -8.828901   1.000000
   24       -8.700744   1.000000
   25       -8.621352   1.000000
   26       -8.568251   1.000000
   27       -8.514996   1.000000
   28       -8.456024   1.000000
   29       -8.317164   1.000000
   30       -8.259372   1.000000
   31       -8.122079   1.000000
   32       -8.045359   1.000000
   33       -8.039028   1.000000
   34       -7.834877   1.000000
   35       -7.763536   1.000000
   36       -7.700491   1.000000
   37       -7.581661   1.000000
   38       -7.564442   1.000000
   39       -7.471390   1.000000
   40       -7.365700   1.000000
   41       -7.335086   1.000000
   42       -7.234984   1.000000
   43       -7.109738   1.000000
   44       -6.996568   1.000000
   45       -6.856529   1.000000
   46       -6.819234   1.000000
   47       -6.698367   1.000000
   48       -6.675272   1.000000
   49       -6.529217   1.000000
   50       -6.493939   1.000000
   51       -6.392232   1.000000
   52       -6.367388   1.000000
   53       -6.324421   1.000000
   54       -6.258680   1.000000
   55       -6.232608   1.000000
   56       -6.089620   1.000000
   57       -6.047004   1.000000
   58       -5.926689   1.000000
   59       -5.784447   1.000000
   60       -5.594363   1.000000
   61       -5.577289   1.000000
   62       -5.443532   1.000000
   63       -5.345794   1.000000
   64       -5.306913   1.000000
   65       -5.110668   1.000000
   66       -5.038434   1.000000
   67       -4.993471   1.000000
   68       -4.933190   1.000000
   69       -4.795150   1.000000
   70       -4.688634   1.000000
   71       -4.633336   1.000000
   72       -4.556378   1.000000
   73       -4.377820   1.000000
   74       -4.192133   1.000000
   75       -4.119870   1.000000
   76       -4.009445   0.999999
   77       -3.868577   0.999889
   78       -3.763783   0.998422
   79       -3.638367   0.980549
   80       -3.456902   0.782913
   81       -3.025495   0.011651
   82       -2.873515   0.000414
   83       -2.775369   0.000027
   84       -2.654691   0.000001
   85       -2.535122   0.000000
   86       -2.385833   0.000000
   87       -2.341104   0.000000
   88       -2.276987   0.000000
   89       -2.199201   0.000000
   90       -2.103260   0.000000
   91       -1.705733   0.000000
   92       -1.547870   0.000000
   93       -1.427226   0.000000
   94       -1.298606   0.000000
   95       -1.112998   0.000000
   96       -1.059836   0.000000
   97       -1.006657   0.000000
   98       -0.931181   0.000000
   99       -0.896906   0.000000
  100       -0.822816   0.000000
  101       -0.730049   0.000000
  102       -0.650685   0.000000
  103       -0.596678   0.000000
  104       -0.453785   0.000000
  105       -0.395978   0.000000
  106       -0.187663   0.000000
  107       -0.124507   0.000000
  108       -0.035801   0.000000
  109        0.118940   0.000000
  110        0.197528   0.000000
  111        0.397065   0.000000
  112        0.517598   0.000000
  113        0.676538   0.000000
  114        0.919586   0.000000
  115        0.959675   0.000000
  116        1.155551   0.000000
  117        1.334183   0.000000
  118        1.768878   0.000000
  119        1.954072   0.000000
  120        2.256800   0.000000
 
  0.2500000E+00  0.1250000E+00  0.0000000E+00  0.3125000E-01
    1      -17.668932   1.000000
    2      -17.082264   1.000000
    3      -16.875703   1.000000
    4      -16.737570   1.000000
    5      -16.477304   1.000000
    6      -16.449937   1.000000
    7      -16.362736   1.000000
    8      -16.210418   1.000000
    9      -16.108948   1.000000
   10      -16.028416   1.000000
   11      -15.940427   1.000000
   12      -15.872810   1.000000
   13      -15.778728   1.000000
   14      -15.750274   1.000000
   15      -15.647772   1.000000
   16      -15.456760   1.000000
   17      -15.416152   1.000000
   18      -15.195274   1.000000
   19       -9.586361   1.000000
   20       -9.406837   1.000000
   21       -9.303443   1.000000
   22       -9.136302   1.000000
   23       -8.864652   1.000000
   24       -8.684617   1.000000
   25       -8.545905   1.000000
   26       -8.502242   1.000000
   27       -8.452946   1.000000
   28       -8.394573   1.000000
   29       -8.271805   1.000000
   30       -8.266410   1.000000
   31       -8.145176   1.000000
   32       -8.067153   1.000000
   33       -7.959941   1.000000
   34       -7.912859   1.000000
   35       -7.808467   1.000000
   36       -7.636046   1.000000
   37       -7.587045   1.000000
   38       -7.438800   1.000000
   39       -7.420160   1.000000
   40       -7.290711   1.000000
   41       -7.225780   1.000000
   42       -7.163367   1.000000
   43       -7.044775   1.000000
   44       -6.972214   1.000000
   45       -6.869247   1.000000
   46       -6.809002   1.000000
   47       -6.720088   1.000000