       N       E                     dE             d eps       ncg     rms          rms(c)
DAV:   1     0.112446315470E+04    0.11245E+04   -0.35856E+04  8160   0.577E+02
DAV:   2    -0.503720470489E+01   -0.11295E+04   -0.10896E+04 11400   0.173E+02
DAV:   3    -0.199995344396E+03   -0.19496E+03   -0.18771E+03 10920   0.817E+01
DAV:   4    -0.208962966922E+03   -0.89676E+01   -0.86896E+01 12320   0.258E+01
DAV:   5    -0.209246611378E+03   -0.28364E+00   -0.28279E+00 11440   0.337E+00    0.274E+01
DAV:   6    -0.236617040570E+03   -0.27370E+02   -0.10798E+02 12840   0.603E+01    0.592E+01
DAV:   7    -0.196792823157E+03    0.39824E+02   -0.17628E+02 13160   0.152E+02    0.205E+01
DAV:   8    -0.190229930474E+03    0.65629E+01   -0.21350E+01 11840   0.135E+01    0.139E+01
DAV:   9    -0.188312252222E+03    0.19177E+01   -0.35944E+00 11880   0.636E+00    0.940E+00
DAV:  10    -0.187163975087E+03    0.11483E+01   -0.18136E+00 13320   0.748E+00    0.373E+00
DAV:  11    -0.187003215447E+03    0.16076E+00   -0.73074E-01 12600   0.269E+00    0.227E+00
DAV:  12    -0.187099446525E+03   -0.96231E-01   -0.54343E-01 13360   0.383E+00    0.469E+00
DAV:  13    -0.186940322564E+03    0.15912E+00   -0.53482E-01 13120   0.387E+00    0.199E+00
DAV:  14    -0.186900775744E+03    0.39547E-01   -0.96965E-02 13160   0.160E+00    0.831E-01
DAV:  15    -0.186898168646E+03    0.26071E-02   -0.41944E-02 12920   0.110E+00    0.993E-01
DAV:  16    -0.186891832572E+03    0.63361E-02   -0.18489E-02 13040   0.760E-01    0.518E-01
DAV:  17    -0.186889376201E+03    0.24564E-02   -0.67534E-03 13000   0.318E-01    0.235E-01
DAV:  18    -0.186888407875E+03    0.96833E-03   -0.38080E-03 12800   0.280E-01    0.208E-01
DAV:  19    -0.186888055589E+03    0.35229E-03   -0.10728E-03 11680   0.163E-01    0.481E-02
DAV:  20    -0.186888806456E+03   -0.75087E-03   -0.72513E-04  9080   0.594E-02    0.529E-02
DAV:  21    -0.186889362928E+03   -0.55647E-03   -0.23627E-04  8400   0.455E-02    0.288E-02
DAV:  22    -0.186890525311E+03   -0.11624E-02   -0.17784E-04  7480   0.393E-02    0.338E-02
DAV:  23    -0.186891749425E+03   -0.12241E-02   -0.13018E-04  7560   0.409E-02    0.125E-02
DAV:  24    -0.186892342938E+03   -0.59351E-03   -0.26239E-05  6800   0.132E-02    0.645E-03
DAV:  25    -0.186892728973E+03   -0.38603E-03   -0.15134E-05  5560   0.977E-03    0.420E-03
DAV:  26    -0.186892969505E+03   -0.24053E-03   -0.91182E-06  6840   0.694E-03    0.157E-03
DAV:  27    -0.186893069148E+03   -0.99643E-04   -0.35246E-06  7240   0.415E-03
   1 F= -.18689307E+03 E0= -.18672237E+03  d E =-.186893E+03
       N       E                     dE             d eps       ncg     rms          rms(c)
DAV:   1    -0.187533462091E+03   -0.64049E+00   -0.27208E+02  8160   0.351E+01    0.463E+00
DAV:   2    -0.189427951617E+03   -0.18945E+01   -0.20152E+01 12280   0.153E+01    0.879E+00
DAV:   3    -0.189395180520E+03    0.32771E-01   -0.40304E+00 12400   0.120E+01    0.665E+00
DAV:   4    -0.188788016022E+03    0.60716E+00   -0.61024E-01 12480   0.466E+00    0.174E+00
DAV:   5    -0.188895454408E+03   -0.10744E+00   -0.46314E-01 12080   0.334E+00    0.529E+00
DAV:   6    -0.188752751140E+03    0.14270E+00   -0.73613E-01 12800   0.427E+00    0.200E+00
DAV:   7    -0.188722624669E+03    0.30126E-01   -0.11714E-01 11840   0.145E+00    0.119E+00
DAV:   8    -0.188711791252E+03    0.10833E-01   -0.57782E-02 13240   0.131E+00    0.116E+00
DAV:   9    -0.188701945315E+03    0.98459E-02   -0.19232E-02 11880   0.778E-01    0.326E-01
DAV:  10    -0.188701310823E+03    0.63449E-03   -0.35411E-03 11720   0.207E-01    0.213E-01
DAV:  11    -0.188700733558E+03    0.57727E-03   -0.24346E-03 12440   0.180E-01    0.107E-01
DAV:  12    -0.188700852440E+03   -0.11888E-03   -0.90545E-04 11360   0.953E-02    0.854E-02
DAV:  13    -0.188700784636E+03    0.67805E-04   -0.23746E-04  7960   0.558E-02
   2 F= -.18870078E+03 E0= -.18856175E+03  d E =-.180772E+01
       N       E                     dE             d eps       ncg     rms          rms(c)
DAV:   1    -0.190619750365E+03   -0.19189E+01   -0.31250E+01  8960   0.142E+01    0.442E+00
DAV:   2    -0.190566067335E+03    0.53683E-01   -0.27484E+00 11200   0.942E+00    0.719E+00
DAV:   3    -0.190105935282E+03    0.46013E+00   -0.13295E+00 12360   0.857E+00    0.420E+00
DAV:   4    -0.189897282035E+03    0.20865E+00   -0.72168E-01 12800   0.424E+00    0.252E+00
DAV:   5    -0.189876439505E+03    0.20843E-01   -0.38039E-01 12280   0.315E+00    0.283E+00
DAV:   6    -0.189799595666E+03    0.76844E-01   -0.15020E-01 12640   0.248E+00    0.711E-01
DAV:   7    -0.189793163255E+03    0.64324E-02   -0.13819E-02 11560   0.518E-01    0.207E-01
DAV:   8    -0.189793592312E+03   -0.42906E-03   -0.35016E-03 12040   0.275E-01    0.283E-01
DAV:   9    -0.189793207522E+03    0.38479E-03   -0.18038E-03 10680   0.280E-01    0.159E-01
DAV:  10    -0.189793400263E+03   -0.19274E-03   -0.77969E-04  9680   0.133E-01    0.107E-01
DAV:  11    -0.189793199807E+03    0.20046E-03   -0.35349E-04  8760   0.686E-02    0.218E-02
DAV:  12    -0.189793216963E+03   -0.17156E-04   -0.59159E-05  7160   0.249E-02
   3 F= -.18979322E+03 E0= -.18967478E+03  d E =-.109243E+01
       N       E                     dE             d eps       ncg     rms          rms(c)
DAV:   1    -0.191372490422E+03   -0.15793E+01   -0.78062E+01  8160   0.201E+01    0.460E+00
DAV:   2    -0.191206269497E+03    0.16622E+00   -0.54114E+00 13200   0.783E+00    0.472E+00
DAV:   3    -0.191316010533E+03   -0.10974E+00   -0.16077E+00 12200   0.911E+00    0.653E+00
DAV:   4    -0.190941966153E+03    0.37404E+00   -0.13737E+00 12440   0.753E+00    0.301E+00
DAV:   5    -0.190897830510E+03    0.44136E-01   -0.45590E-01 12560   0.405E+00    0.295E+00
DAV:   6    -0.190806364799E+03    0.91466E-01   -0.21432E-01 12280   0.321E+00    0.123E+00
DAV:   7    -0.190792325319E+03    0.14039E-01   -0.47019E-02 12720   0.112E+00    0.438E-01
DAV:   8    -0.190791604896E+03    0.72042E-03   -0.10602E-02 11440   0.594E-01    0.506E-01
DAV:   9    -0.190789425643E+03    0.21793E-02   -0.43099E-03 11320   0.449E-01    0.149E-01
DAV:  10    -0.190789692296E+03   -0.26665E-03   -0.12514E-03 11400   0.134E-01    0.921E-02
DAV:  11    -0.190789571157E+03    0.12114E-03   -0.48203E-04  9720   0.803E-02    0.450E-02
DAV:  12    -0.190789568220E+03    0.29368E-05   -0.10349E-04  7000   0.395E-02
   4 F= -.19078957E+03 E0= -.19068462E+03  d E =-.996351E+00
       N       E                     dE             d eps       ncg     rms          rms(c)
DAV:   1    -0.192094988954E+03   -0.13054E+01   -0.16083E+02  8160   0.283E+01    0.557E+00
DAV:   2    -0.191862250152E+03    0.23274E+00   -0.92174E+00 11480   0.806E+00    0.388E+00
DAV:   3    -0.192062126590E+03   -0.19988E+00   -0.20597E+00 11200   0.869E+00    0.805E+00
DAV:   4    -0.191747425409E+03    0.31470E+00   -0.28792E+00 11480   0.107E+01    0.445E+00
DAV:   5    -0.191572571704E+03    0.17485E+00   -0.74169E-01 12360   0.548E+00    0.321E+00
DAV:   6    -0.191447383330E+03    0.12519E+00   -0.27403E-01 12280   0.376E+00    0.126E+00
DAV:   7    -0.191433136511E+03    0.14247E-01   -0.61889E-02 12280   0.131E+00    0.511E-01
DAV:   8    -0.191428981347E+03    0.41552E-02   -0.10441E-02 10720   0.482E-01    0.239E-01
DAV:   9    -0.191430387833E+03   -0.14065E-02   -0.51575E-03 12720   0.490E-01    0.424E-01
DAV:  10    -0.191428892195E+03    0.14956E-02   -0.37385E-03 11200   0.380E-01    0.641E-02
DAV:  11    -0.191428961304E+03   -0.69109E-04   -0.37844E-04  9600   0.723E-02
   5 F= -.19142896E+03 E0= -.19132354E+03  d E =-.639393E+00
       N       E                     dE             d eps       ncg     rms          rms(c)
DAV:   1    -0.191477970172E+03   -0.49078E-01   -0.40540E+00  8160   0.426E+00    0.591E-01
DAV:   2    -0.191530820898E+03   -0.52851E-01   -0.24774E-01 13280   0.268E+00    0.199E+00
DAV:   3    -0.191489042864E+03    0.41778E-01   -0.88717E-02 12440   0.209E+00    0.383E-01
DAV:   4    -0.191490624634E+03   -0.15818E-02   -0.12331E-02 11400   0.698E-01    0.588E-01
DAV:   5    -0.191487176222E+03    0.34484E-02   -0.74184E-03 10280   0.570E-01    0.176E-01
DAV:   6    -0.191487159228E+03    0.16994E-04   -0.17295E-03 10440   0.171E-01    0.126E-01
DAV:   7    -0.191486864641E+03    0.29459E-03   -0.92149E-04 10200   0.126E-01    0.717E-02
DAV:   8    -0.191486862886E+03    0.17546E-05   -0.29209E-04  7840   0.111E-01
   6 F= -.19148686E+03 E0= -.19137910E+03  d E =-.579016E-01
       N       E                     dE             d eps       ncg     rms          rms(c)
DAV:   1    -0.191539969011E+03   -0.53104E-01   -0.47651E+00  8160   0.462E+00    0.579E-01
DAV:   2    -0.191575029044E+03   -0.35060E-01   -0.17873E-01 13600   0.204E+00    0.161E+00
DAV:   3    -0.191546890726E+03    0.28138E-01   -0.68935E-02 12440   0.187E+00    0.436E-01
DAV:   4    -0.191546556004E+03    0.33472E-03   -0.90462E-03 11080   0.549E-01    0.451E-01
DAV:   5    -0.191545107465E+03    0.14485E-02   -0.71850E-03 10720   0.554E-01    0.286E-01
DAV:   6    -0.191544473435E+03    0.63403E-03   -0.24949E-03  9920   0.269E-01    0.115E-01
DAV:   7    -0.191544305389E+03    0.16805E-03   -0.78271E-04 10520   0.116E-01    0.631E-02
DAV:   8    -0.191544318070E+03   -0.12681E-04   -0.29989E-04  8320   0.114E-01
   7 F= -.19154432E+03 E0= -.19143467E+03  d E =-.574552E-01
       N       E                     dE             d eps       ncg     rms          rms(c)
DAV:   1    -0.191550130029E+03   -0.58246E-02   -0.66031E-02  8160   0.566E-01    0.979E-02
DAV:   2    -0.191550517586E+03   -0.38756E-03   -0.35434E-03 11520   0.264E-01    0.195E-01
DAV:   3    -0.191550152626E+03    0.36496E-03   -0.11694E-03 10240   0.246E-01    0.801E-02
DAV:   4    -0.191550123793E+03    0.28832E-04   -0.27889E-04  6200   0.106E-01
   8 F= -.19155012E+03 E0= -.19144051E+03  d E =-.580572E-02
       N       E                     dE             d eps       ncg     rms          rms(c)
DAV:   1    -0.191529775748E+03    0.20377E-01   -0.66477E+00  8160   0.575E+00    0.119E+00
DAV:   2    -0.191560840839E+03   -0.31065E-01   -0.43820E-01 12720   0.306E+00    0.209E+00
DAV:   3    -0.191518526819E+03    0.42314E-01   -0.15392E-01 12280   0.284E+00    0.107E+00
DAV:   4    -0.191515452680E+03    0.30741E-02   -0.72155E-02 11560   0.159E+00    0.122E+00
DAV:   5    -0.191506702014E+03    0.87507E-02   -0.62802E-02 10760   0.154E+00    0.767E-01
DAV:   6    -0.191499113026E+03    0.75890E-02   -0.17176E-02 10280   0.722E-01    0.144E-01
DAV:   7    -0.191499204123E+03   -0.91097E-04   -0.31966E-03 11920   0.249E-01    0.168E-01
DAV:   8    -0.191499112236E+03    0.91888E-04   -0.15471E-03 10520   0.262E-01    0.158E-01
DAV:   9    -0.191498852918E+03    0.25932E-03   -0.44671E-04  8520   0.140E-01    0.302E-02
DAV:  10    -0.191498889557E+03   -0.36639E-04   -0.80540E-05  6200   0.328E-02
   9 F= -.19149889E+03 E0= -.19139034E+03  d E =0.512342E-01
       N       E                     dE             d eps       ncg     rms          rms(c)
DAV:   1    -0.191474223267E+03    0.24630E-01   -0.95282E-01  8160   0.209E+00    0.315E-01
DAV:   2    -0.191479638652E+03   -0.54154E-02   -0.43788E-02 13560   0.975E-01    0.666E-01
DAV:   3    -0.191474928483E+03    0.47102E-02   -0.13474E-02 12360   0.834E-01    0.245E-01
DAV:   4    -0.191474770169E+03    0.15831E-03   -0.33979E-03 11200   0.346E-01    0.269E-01
DAV:   5    -0.191474302408E+03    0.46776E-03   -0.31193E-03  9920   0.363E-01    0.188E-01
DAV:   6    -0.191473959014E+03    0.34339E-03   -0.12223E-03  9680   0.193E-01    0.632E-02
DAV:   7    -0.191473996469E+03   -0.37455E-04   -0.38830E-04  7600   0.116E-01
  10 F= -.19147400E+03 E0= -.19136611E+03  d E =0.248931E-01
       N       E                     dE             d eps       ncg     rms          rms(c)
DAV:   1    -0.191713001671E+03   -0.23904E+00   -0.39657E+01  8160   0.138E+01    0.224E+00
DAV:   2    -0.192042451077E+03   -0.32945E+00   -0.18057E+00 13600   0.728E+00    0.603E+00
DAV:   3    -0.191703112684E+03    0.33934E+00   -0.93935E-01 12240   0.687E+00    0.151E+00
DAV:   4    -0.191715710642E+03   -0.12598E-01   -0.18252E-01 12320   0.270E+00    0.239E+00
DAV:   5    -0.191669220224E+03    0.46490E-01   -0.17787E-01 11320   0.279E+00    0.127E+00
DAV:   6    -0.191652239131E+03    0.16981E-01   -0.59479E-02 11680   0.128E+00    0.507E-01
DAV:   7    -0.191654663510E+03   -0.24244E-02   -0.24729E-02 11960   0.984E-01    0.768E-01
DAV:   8    -0.191649143984E+03    0.55195E-02   -0.13438E-02 11600   0.763E-01    0.185E-01
DAV:   9    -0.191648597739E+03    0.54625E-03   -0.12243E-03 10200   0.160E-01    0.678E-02
DAV:  10    -0.191648591423E+03    0.63157E-05   -0.42950E-04  9680   0.651E-02
  11 F= -.19164859E+03 E0= -.19154037E+03  d E =-.174595E+00
       N       E                     dE             d eps       ncg     rms          rms(c)
DAV:   1    -0.191612114309E+03    0.36483E-01   -0.58366E+00  8160   0.527E+00    0.932E-01
DAV:   2    -0.191648106890E+03   -0.35993E-01   -0.28234E-01 12720   0.276E+00    0.197E+00
DAV:   3    -0.191604089999E+03    0.44017E-01   -0.10227E-01 12240   0.237E+00    0.665E-01
DAV:   4    -0.191603574574E+03    0.51542E-03   -0.33820E-02 11400   0.104E+00    0.805E-01
DAV:   5    -0.191600629598E+03    0.29450E-02   -0.28877E-02 12240   0.115E+00    0.683E-01
DAV:   6    -0.191595489455E+03    0.51401E-02   -0.12892E-02 11080   0.674E-01    0.167E-01
DAV:   7    -0.191595753060E+03   -0.26360E-03   -0.32081E-03 12680   0.311E-01    0.240E-01
DAV:   8    -0.191595269264E+03    0.48380E-03   -0.16797E-03 10200   0.268E-01    0.905E-02
DAV:   9    -0.191595189703E+03    0.79561E-04   -0.19294E-04  5920   0.800E-02
  12 F= -.19159519E+03 E0= -.19148474E+03  d E =0.534017E-01
       N       E                     dE             d eps       ncg     rms          rms(c)
DAV:   1    -0.191682580693E+03   -0.87311E-01   -0.89953E+00  8160   0.640E+00    0.828E-01
DAV:   2    -0.191736335147E+03   -0.53754E-01   -0.32025E-01 13600   0.283E+00    0.210E+00
DAV:   3    -0.191691422453E+03    0.44913E-01   -0.11399E-01 12240   0.245E+00    0.590E-01
DAV:   4    -0.191691848602E+03   -0.42615E-03   -0.24491E-02 12320   0.914E-01    0.769E-01
DAV:   5    -0.191687207430E+03    0.46412E-02   -0.20231E-02 11880   0.965E-01    0.438E-01
DAV:   6    -0.191685511559E+03    0.16959E-02   -0.67938E-03 11560   0.467E-01    0.211E-01
DAV:   7    -0.191686186847E+03   -0.67529E-03   -0.46281E-03 11560   0.441E-01    0.361E-01
DAV:   8    -0.191684899629E+03    0.12872E-02   -0.24110E-03  9760   0.330E-01    0.542E-02
DAV:   9    -0.191684881773E+03    0.17856E-04   -0.12854E-04  5680   0.509E-02
  13 F= -.19168488E+03 E0= -.19157826E+03  d E =-.896921E-01
       N       E                     dE             d eps       ncg     rms          rms(c)
DAV:   1    -0.191708590195E+03   -0.23691E-01   -0.58547E-01  8160   0.166E+00    0.240E-01
DAV:   2    -0.191713979933E+03   -0.53897E-02   -0.28262E-02 13080   0.882E-01    0.698E-01
DAV:   3    -0.191709348787E+03    0.46311E-02   -0.11233E-02 11160   0.735E-01    0.202E-01
DAV:   4    -0.191709655411E+03   -0.30662E-03   -0.28902E-03 10080   0.359E-01    0.278E-01
DAV:   5    -0.191708839957E+03    0.81545E-03   -0.16128E-03  9600   0.291E-01    0.797E-02
DAV:   6    -0.191708797324E+03    0.42633E-04   -0.42275E-04  8120   0.860E-02
  14 F= -.19170880E+03 E0= -.19160338E+03  d E =-.239156E-01
       N       E                     dE             d eps       ncg     rms          rms(c)
DAV:   1    -0.191701178539E+03    0.76614E-02   -0.35318E-01  8160   0.128E+00    0.177E-01
DAV:   2    -0.191702898912E+03   -0.17204E-02   -0.12338E-02 12720   0.543E-01    0.410E-01
DAV:   3    -0.191701260194E+03    0.16387E-02   -0.51293E-03 11440   0.496E-01    0.174E-01
DAV:   4    -0.191701230112E+03    0.30082E-04   -0.15412E-03  9520   0.249E-01    0.179E-01
DAV:   5    -0.191701031936E+03    0.19818E-03   -0.11259E-03  9560   0.230E-01    0.115E-01
DAV:   6    -0.191700864963E+03    0.16697E-03   -0.40424E-04  7760   0.119E-01    0.252E-02
DAV:   7    -0.191700871501E+03   -0.65379E-05   -0.81363E-05  6920   0.368E-02
  15 F= -.19170087E+03 E0= -.19159474E+03  d E =0.792582E-02
       N       E                     dE             d eps       ncg     rms          rms(c)
DAV:   1    -0.191776146902E+03   -0.75282E-01   -0.64517E+00  8160   0.540E+00    0.626E-01
DAV:   2    -0.191806963697E+03   -0.30817E-01   -0.20187E-01 13440   0.207E+00    0.155E+00
DAV:   3    -0.191785469630E+03    0.21494E-01   -0.68793E-02 12040   0.182E+00    0.598E-01
DAV:   4    -0.191785986165E+03   -0.51654E-03   -0.20008E-02 12240   0.928E-01    0.690E-01
DAV:   5    -0.191781222606E+03    0.47636E-02   -0.10870E-02 12120   0.777E-01    0.252E-01
DAV:   6    -0.191780641608E+03    0.58100E-03   -0.33328E-03 10760   0.291E-01    0.147E-01
DAV:   7    -0.191781037770E+03   -0.39616E-03   -0.24142E-03 12360   0.333E-01    0.261E-01
DAV:   8    -0.191780322713E+03    0.71506E-03   -0.11624E-03  9520   0.254E-01    0.410E-02
DAV:   9    -0.191780316396E+03    0.63172E-05   -0.77924E-05  5880   0.404E-02
  16 F= -.19178032E+03 E0= -.19167978E+03  d E =-.794449E-01
       N       E                     dE             d eps       ncg     rms          rms(c)
DAV:   1    -0.191833244962E+03   -0.52922E-01   -0.31017E+00  8160   0.375E+00    0.436E-01
DAV:   2    -0.191849603829E+03   -0.16359E-01   -0.10652E-01 12320   0.146E+00    0.113E+00
DAV:   3    -0.191838777355E+03    0.10826E-01   -0.35632E-02 11880   0.129E+00    0.430E-01
DAV:   4    -0.191838544887E+03    0.23247E-03   -0.85867E-03 11320   0.625E-01    0.425E-01
DAV:   5    -0.191836627326E+03    0.19176E-02   -0.40327E-03 11080   0.507E-01    0.163E-01
DAV:   6    -0.191836407446E+03    0.21988E-03   -0.14292E-03 11560   0.189E-01    0.846E-02
DAV:   7    -0.191836305025E+03    0.10242E-03   -0.50244E-04  9920   0.890E-02    0.459E-02
DAV:   8    -0.191836295081E+03    0.99436E-05   -0.11194E-04  7560   0.785E-02
  17 F= -.19183630E+03 E0= -.19173948E+03  d E =-.559787E-01
       N       E                     dE             d eps       ncg     rms          rms(c)
DAV:   1    -0.191952699159E+03   -0.11639E+00   -0.83025E+01  8160   0.196E+01    0.209E+00
DAV:   2    -0.192294478098E+03   -0.34178E+00   -0.27407E+00 11520   0.658E+00    0.502E+00
DAV:   3    -0.192139105418E+03    0.15537E+00   -0.89517E-01 12040   0.636E+00    0.215E+00
DAV:   4    -0.192104584029E+03    0.34521E-01   -0.14091E-01 12520   0.281E+00    0.163E+00
DAV:   5    -0.192073646739E+03    0.30937E-01   -0.65380E-02 11520   0.227E+00    0.870E-01
DAV:   6    -0.192067418737E+03    0.62280E-02   -0.37709E-02 12720   0.109E+00    0.486E-01
DAV:   7    -0.192065140135E+03    0.22786E-02   -0.15325E-02 12720   0.768E-01    0.480E-01
DAV:   8    -0.192062880199E+03    0.22599E-02   -0.54431E-03 12680   0.612E-01    0.177E-01
DAV:   9    -0.192062498974E+03    0.38122E-03   -0.11043E-03 11400   0.196E-01    0.775E-02
DAV:  10    -0.192062356715E+03    0.14226E-03   -0.49909E-04  9920   0.790E-02    0.437E-02
DAV:  11    -0.192062365256E+03   -0.85413E-05   -0.15632E-04  7040   0.458E-02
  18 F= -.19206237E+03 E0= -.19197734E+03  d E =-.226070E+00
       N       E                     dE             d eps       ncg     rms          rms(c)
DAV:   1    -0.192031170063E+03    0.31187E-01   -0.69602E+00  8160   0.555E+00    0.538E-01
DAV:   2    -0.192045500811E+03   -0.14331E-01   -0.13513E-01 12760   0.138E+00    0.998E-01
DAV:   3    -0.192038014336E+03    0.74865E-02   -0.33858E-02 12360   0.139E+00    0.635E-01
DAV:   4    -0.192033930955E+03    0.40834E-02   -0.10771E-02 12280   0.639E-01    0.241E-01
DAV:   5    -0.192033713641E+03    0.21731E-03   -0.43584E-03 12640   0.438E-01    0.270E-01
DAV:   6    -0.192033334266E+03    0.37938E-03   -0.30195E-03 11400   0.476E-01    0.206E-01
DAV:   7    -0.192032871800E+03    0.46247E-03   -0.10240E-03 10680   0.242E-01    0.939E-02
DAV:   8    -0.192032809805E+03    0.61995E-04   -0.30362E-04  8880   0.142E-01
  19 F= -.19203281E+03 E0= -.19194493E+03  d E =0.295555E-01
       N       E                     dE             d eps       ncg     rms          rms(c)
DAV:   1    -0.192058734420E+03   -0.25863E-01   -0.52713E+01  8160   0.155E+01    0.159E+00
DAV:   2    -0.192232822531E+03   -0.17409E+00   -0.16703E+00 11120   0.467E+00    0.305E+00
DAV:   3    -0.192182356480E+03    0.50466E-01   -0.39769E-01 12000   0.449E+00    0.180E+00
DAV:   4    -0.192145758137E+03    0.36598E-01   -0.72073E-02 12600   0.190E+00    0.844E-01
DAV:   5    -0.192141805870E+03    0.39523E-02   -0.32082E-02 12080   0.157E+00    0.813E-01
DAV:   6    -0.192136338960E+03    0.54669E-02   -0.24041E-02 12640   0.114E+00    0.400E-01
DAV:   7    -0.192134048253E+03    0.22907E-02   -0.79627E-03 12640   0.538E-01    0.284E-01
DAV:   8    -0.192133378570E+03    0.66968E-03   -0.26469E-03 12600   0.413E-01    0.150E-01
DAV:   9    -0.192133096972E+03    0.28160E-03   -0.66389E-04 10240   0.171E-01    0.588E-02
DAV:  10    -0.192133015602E+03    0.81371E-04   -0.31763E-04  9400   0.608E-02
  20 F= -.19213302E+03 E0= -.19204984E+03  d E =-.100206E+00
       N       E                     dE             d eps       ncg     rms          rms(c)
DAV:   1    -0.192127259186E+03    0.58378E-02   -0.40360E+00  8160   0.426E+00    0.432E-01
DAV:   2    -0.192136042661E+03   -0.87835E-02   -0.96900E-02 11080   0.111E+00    0.696E-01
DAV:   3    -0.192133609664E+03    0.24330E-02   -0.21506E-02 12640   0.111E+00    0.552E-01
DAV:   4    -0.192130396793E+03    0.32129E-02   -0.70431E-03 12400   0.562E-01    0.169E-01
DAV:   5    -0.192130284310E+03    0.11248E-03   -0.21207E-03 11840   0.263E-01    0.189E-01
DAV:   6    -0.192130319113E+03   -0.34804E-04   -0.17844E-03 11680   0.363E-01    0.197E-01
DAV:   7    -0.192129903582E+03    0.41553E-03   -0.75198E-04  9440   0.227E-01    0.639E-02
DAV:   8    -0.192129865616E+03    0.37967E-04   -0.12371E-04  6600   0.973E-02
  21 F= -.19212987E+03 E0= -.19204498E+03  d E =0.314999E-02
       N       E                     dE             d eps       ncg     rms          rms(c)
DAV:   1    -0.192141469683E+03   -0.11566E-01   -0.10139E+00  8160   0.215E+00    0.236E-01
DAV:   2    -0.192144137923E+03   -0.26682E-02   -0.35547E-02 11720   0.569E-01    0.272E-01
DAV:   3    -0.192144593294E+03   -0.45537E-03   -0.48967E-03 12400   0.569E-01    0.358E-01
DAV:   4    -0.192143206080E+03    0.13872E-02   -0.21040E-03 10160   0.365E-01    0.103E-01
DAV:   5    -0.192143283753E+03   -0.77673E-04   -0.83899E-04  9920   0.221E-01
  22 F= -.19214328E+03 E0= -.19205864E+03  d E =-.134181E-01
       N       E                     dE             d eps       ncg     rms          rms(c)
DAV:   1    -0.192146666801E+03   -0.34607E-02   -0.85135E-02  8160   0.652E-01    0.117E-01
DAV:   2    -0.192147896411E+03   -0.12296E-02   -0.49835E-03 12760   0.402E-01    0.322E-01
DAV:   3    -0.192146727685E+03    0.11687E-02   -0.21952E-03 10960   0.388E-01    0.893E-02
DAV:   4    -0.192146687149E+03    0.40536E-04   -0.35492E-04  8520   0.113E-01
  23 F= -.19214669E+03 E0= -.19206240E+03  d E =-.340340E-02
       N       E                     dE             d eps       ncg     rms          rms(c)
DAV:   1    -0.192156018264E+03   -0.92906E-02   -0.68933E-01  8160   0.177E+00    0.218E-01
DAV:   2    -0.192158902784E+03   -0.28845E-02   -0.26654E-02 11400   0.643E-01    0.366E-01
DAV:   3    -0.192157762999E+03    0.11398E-02   -0.45604E-03 12040   0.555E-01    0.214E-01
DAV:   4    -0.192157563770E+03    0.19923E-03   -0.15229E-03 10080   0.297E-01    0.183E-01
DAV:   5    -0.192157245988E+03    0.31778E-03   -0.79385E-04  9400   0.246E-01    0.823E-02
DAV:   6    -0.192157266517E+03   -0.20530E-04   -0.36418E-04  8840   0.117E-01
  24 F= -.19215727E+03 E0= -.19207306E+03  d E =-.105794E-01
       N       E                     dE             d eps       ncg     rms          rms(c)
DAV:   1    -0.192161728388E+03   -0.44824E-02   -0.14716E-01  8160   0.843E-01    0.120E-01
DAV:   2    -0.192162001171E+03   -0.27278E-03   -0.63019E-03 10280   0.238E-01    0.106E-01
DAV:   3    -0.192162159172E+03   -0.15800E-03   -0.10477E-03 11280   0.254E-01    0.177E-01
DAV:   4    -0.192161840203E+03    0.31897E-03   -0.52808E-04  8440   0.206E-01    0.589E-02
DAV:   5    -0.192161827567E+03    0.12636E-04   -0.15512E-04  5680   0.947E-02
  25 F= -.19216183E+03 E0= -.19207765E+03  d E =-.456105E-02
       N       E                     dE             d eps       ncg     rms          rms(c)
DAV:   1    -0.192169527549E+03   -0.76873E-02   -0.54251E-01  8160   0.158E+00    0.181E-01
DAV:   2    -0.192170962271E+03   -0.14347E-02   -0.19590E-02 10520   0.402E-01    0.172E-01
DAV:   3    -0.192171157392E+03   -0.19512E-03   -0.19673E-03 12800   0.394E-01    0.217E-01
DAV:   4    -0.192170544375E+03    0.61302E-03   -0.71745E-04 10120   0.248E-01    0.561E-02
DAV:   5    -0.192170697019E+03   -0.15264E-03   -0.39971E-04  9040   0.153E-01    0.123E-01
DAV:   6    -0.192170557388E+03    0.13963E-03   -0.35564E-04  8320   0.163E-01    0.452E-02
DAV:   7    -0.192170530842E+03    0.26546E-04   -0.61981E-05  5720   0.501E-02
  26 F= -.19217053E+03 E0= -.19208656E+03  d E =-.870328E-02
       N       E                     dE             d eps       ncg     rms          rms(c)
DAV:   1    -0.192179027815E+03   -0.84704E-02   -0.82395E-01  8160   0.195E+00    0.228E-01
DAV:   2    -0.192181032538E+03   -0.20047E-02   -0.30895E-02 11160   0.455E-01    0.174E-01
DAV:   3    -0.192181856046E+03   -0.82351E-03   -0.34641E-03 12240   0.476E-01    0.333E-01
DAV:   4    -0.192180562803E+03    0.12932E-02   -0.17340E-03 10200   0.366E-01    0.890E-02
DAV:   5    -0.192180722559E+03   -0.15976E-03   -0.64340E-04  9840   0.208E-01    0.142E-01
DAV:   6    -0.192180527542E+03    0.19502E-03   -0.47786E-04  9120   0.187E-01    0.530E-02
DAV:   7    -0.192180480569E+03    0.46973E-04   -0.10163E-04  6520   0.649E-02
  27 F= -.19218048E+03 E0= -.19209661E+03  d E =-.994973E-02
       N       E                     dE             d eps       ncg     rms          rms(c)
DAV:   1    -0.192182398772E+03   -0.18712E-02   -0.15065E+01  8160   0.834E+00    0.927E-01
DAV:   2    -0.192223931100E+03   -0.41532E-01   -0.54435E-01 11760   0.210E+00    0.908E-01
DAV:   3    -0.192232854404E+03   -0.89233E-02   -0.63593E-02 11840   0.210E+00    0.135E+00
DAV:   4    -0.192213252225E+03    0.19602E-01   -0.31121E-02 11480   0.147E+00    0.453E-01
DAV:   5    -0.192214168383E+03   -0.91616E-03   -0.10606E-02 10960   0.924E-01    0.547E-01
DAV:   6    -0.192211695665E+03    0.24727E-02   -0.75971E-03 11960   0.682E-01    0.268E-01
DAV:   7    -0.192211085828E+03    0.60984E-03   -0.30328E-03 12400   0.423E-01    0.209E-01
DAV:   8    -0.192210589792E+03    0.49604E-03   -0.10464E-03 10000   0.236E-01    0.449E-02
DAV:   9    -0.192210555707E+03    0.34085E-04   -0.15264E-04  6680   0.455E-02
  28 F= -.19221056E+03 E0= -.19212703E+03  d E =-.300751E-01
       N       E                     dE             d eps       ncg     rms          rms(c)
DAV:   1    -0.192208754079E+03    0.18357E-02   -0.28074E-01  8160   0.114E+00    0.149E-01
DAV:   2    -0.192210110232E+03   -0.13562E-02   -0.11473E-02 11280   0.515E-01    0.280E-01
DAV:   3    -0.192209244850E+03    0.86538E-03   -0.19601E-03 11880   0.399E-01    0.101E-01
DAV:   4    -0.192209096723E+03    0.14813E-03   -0.28776E-04  7760   0.125E-01    0.655E-02
DAV:   5    -0.192209171556E+03   -0.74833E-04   -0.33611E-04  9160   0.150E-01
  29 F= -.19220917E+03 E0= -.19212538E+03  d E =0.138415E-02
       N       E                     dE             d eps       ncg     rms          rms(c)
DAV:   1    -0.192211034307E+03   -0.19376E-02   -0.15461E-01  8160   0.843E-01    0.938E-02
DAV:   2    -0.192211606450E+03   -0.57214E-03   -0.64995E-03 10520   0.269E-01    0.123E-01
DAV:   3    -0.192211562587E+03    0.43863E-04   -0.76187E-04 11360   0.225E-01
  30 F= -.19221156E+03 E0= -.19212759E+03  d E =-.239103E-02
       N       E                     dE             d eps       ncg     rms          rms(c)
DAV:   1    -0.192211333877E+03    0.27257E-03   -0.66820E-04 10520   0.150E-01    0.634E-02
DAV:   2    -0.192212107559E+03   -0.77368E-03   -0.12470E-03 10960   0.316E-01    0.266E-01
DAV:   3    -0.192211291473E+03    0.81609E-03   -0.92437E-04  9640   0.271E-01    0.329E-02
DAV:   4    -0.192211302013E+03   -0.10540E-04   -0.38669E-05  5680   0.453E-02
  31 F= -.19221130E+03 E0= -.19212749E+03  d E =0.260573E-03
       N       E                     dE             d eps       ncg     rms          rms(c)
DAV:   1    -0.192212954936E+03   -0.16635E-02   -0.11596E-01  8160   0.729E-01    0.918E-02
DAV:   2    -0.192213473891E+03   -0.51895E-03   -0.49981E-03 10560   0.291E-01    0.162E-01
DAV:   3    -0.192213256659E+03    0.21723E-03   -0.87282E-04 10880   0.241E-01    0.886E-02
DAV:   4    -0.192213179887E+03    0.76772E-04   -0.16091E-04  6240   0.107E-01
  32 F= -.19221318E+03 E0= -.19212942E+03  d E =-.187787E-02
       N       E                     dE             d eps       ncg     rms          rms(c)
DAV:   1    -0.192214992564E+03   -0.17359E-02   -0.18226E-01  8160   0.914E-01    0.114E-01
DAV:   2    -0.192215493783E+03   -0.50122E-03   -0.69527E-03 11320   0.256E-01    0.125E-01
DAV:   3    -0.192215577955E+03   -0.84172E-04   -0.10606E-03 11040   0.269E-01    0.160E-01
DAV:   4    -0.192215302764E+03    0.27519E-03   -0.39684E-04  8200   0.170E-01    0.514E-02
DAV:   5    -0.192215339772E+03   -0.37008E-04   -0.16987E-04  7160   0.112E-01
  33 F= -.19221534E+03 E0= -.19213157E+03  d E =-.215989E-02
       N       E                     dE             d eps       ncg     rms          rms(c)
DAV:   1    -0.192216524673E+03   -0.12219E-02   -0.10282E-01  8160   0.690E-01    0.981E-02
DAV:   2    -0.192217092820E+03   -0.56815E-03   -0.47281E-03 11040   0.292E-01    0.195E-01
DAV:   3    -0.192216729422E+03    0.36340E-03   -0.11992E-03 10400   0.274E-01    0.894E-02
DAV:   4    -0.192216645440E+03    0.83982E-04   -0.18952E-04  7680   0.970E-02
  34 F= -.19221665E+03 E0= -.19213292E+03  d E =-.130567E-02
       N       E                     dE             d eps       ncg     rms          rms(c)
DAV:   1    -0.192218014532E+03   -0.12851E-02   -0.12082E+00  8160   0.234E+00    0.280E-01
DAV:   2    -0.192222680063E+03   -0.46655E-02   -0.48654E-02 11480   0.758E-01    0.413E-01
DAV:   3    -0.192221595369E+03    0.10847E-02   -0.75682E-03 11680   0.700E-01    0.316E-01
DAV:   4    -0.192220771116E+03    0.82425E-03   -0.25560E-03 11200   0.379E-01    0.186E-01
DAV:   5    -0.192220499639E+03    0.27148E-03   -0.11249E-03 10160   0.289E-01    0.123E-01
DAV:   6    -0.192220497686E+03    0.19538E-05   -0.66932E-04 10400   0.176E-01
  35 F= -.19222050E+03 E0= -.19213655E+03  d E =-.385225E-02
       N       E                     dE             d eps       ncg     rms          rms(c)
DAV:   1    -0.192220056966E+03    0.44267E-03   -0.94875E-01  8160   0.207E+00    0.249E-01
DAV:   2    -0.192224217227E+03   -0.41603E-02   -0.40255E-02 11360   0.722E-01    0.393E-01
DAV:   3    -0.192222924080E+03    0.12931E-02   -0.53843E-03 11800   0.636E-01    0.244E-01
DAV:   4    -0.192222569739E+03    0.35434E-03   -0.17047E-03  9920   0.324E-01    0.188E-01
DAV:   5    -0.192222239878E+03    0.32986E-03   -0.87787E-04  9400   0.256E-01    0.911E-02
DAV:   6    -0.192222207434E+03    0.32444E-04   -0.33524E-04  8920   0.967E-02
  36 F= -.19222221E+03 E0= -.19213833E+03  d E =-.170975E-02
       N       E                     dE             d eps       ncg     rms          rms(c)
DAV:   1    -0.192222086486E+03    0.15339E-03   -0.85933E-02  8160   0.644E-01    0.105E-01
DAV:   2    -0.192223055961E+03   -0.96948E-03   -0.46674E-03 11720   0.378E-01    0.289E-01
DAV:   3    -0.192222121015E+03    0.93495E-03   -0.17053E-03 10080   0.341E-01    0.714E-02
DAV:   4    -0.192222081600E+03    0.39415E-04   -0.14928E-04  5760   0.838E-02
  37 F= -.19222208E+03 E0= -.19213850E+03  d E =0.125834E-03
