<?xml version="1.0" encoding="ISO-8859-1"?>
<modeling>
 <generator>
  <i name="program" type="string">vasp </i>
  <i name="version" type="string">5.4.1  </i>
  <i name="subversion" type="string">05Feb16 (build Jul 05 2020 17:13:04) complex                          parallel </i>
  <i name="platform" type="string">IFC91_ompi </i>
  <i name="date" type="string">2024 04 23 </i>
  <i name="time" type="string">18:30:36 </i>
 </generator>
 <incar>
  <i type="int" name="ISTART">     0</i>
  <i type="string" name="PREC">normal</i>
  <i type="string" name="ALGO"> Normal</i>
  <i type="int" name="ISPIN">     1</i>
  <i type="int" name="ICHARG">     2</i>
  <i type="int" name="IBRION">     1</i>
  <i type="int" name="NSW">   100</i>
  <i type="int" name="ISIF">     3</i>
  <i type="int" name="ISYM">     0</i>
  <i name="SYMPREC">      0.00000001</i>
  <i name="POTIM">      0.50000000</i>
  <i type="logical" name="LREAL"> F  </i>
  <i type="logical" name="LPLANE"> F  </i>
  <i type="int" name="ISMEAR">     0</i>
  <i type="logical" name="LWAVE"> F  </i>
  <i type="logical" name="LCHARG"> F  </i>
  <v type="int" name="KPOINT_BSE">    -1     0     0     0</v>
 </incar>
 <kpoints>
  <generation param="Gamma">
   <v type="int" name="divisions">       8        8        1 </v>
   <v name="usershift">      0.00000000       0.00000000       0.00000000 </v>
   <v name="genvec1">      0.12500000       0.00000000       0.00000000 </v>
   <v name="genvec2">     -0.00000000       0.12500000       0.00000000 </v>
   <v name="genvec3">      0.00000000       0.00000000       1.00000000 </v>
   <v name="shift">      0.00000000       0.00000000       0.00000000 </v>
  </generation>
  <varray name="kpointlist" >
   <v>       0.00000000       0.00000000       0.00000000 </v>
   <v>       0.12500000       0.00000000       0.00000000 </v>
   <v>       0.25000000       0.00000000       0.00000000 </v>
   <v>       0.37500000       0.00000000       0.00000000 </v>
   <v>       0.50000000       0.00000000       0.00000000 </v>
   <v>       0.00000000       0.12500000       0.00000000 </v>
   <v>       0.12500000       0.12500000       0.00000000 </v>
   <v>       0.25000000       0.12500000       0.00000000 </v>
   <v>       0.37500000       0.12500000       0.00000000 </v>
   <v>       0.50000000       0.12500000       0.00000000 </v>
   <v>      -0.37500000       0.12500000       0.00000000 </v>
   <v>      -0.25000000       0.12500000       0.00000000 </v>
   <v>      -0.12500000       0.12500000       0.00000000 </v>
   <v>       0.00000000       0.25000000       0.00000000 </v>
   <v>       0.12500000       0.25000000       0.00000000 </v>
   <v>       0.25000000       0.25000000       0.00000000 </v>
   <v>       0.37500000       0.25000000       0.00000000 </v>
   <v>       0.50000000       0.25000000       0.00000000 </v>
   <v>      -0.37500000       0.25000000       0.00000000 </v>
   <v>      -0.25000000       0.25000000       0.00000000 </v>
   <v>      -0.12500000       0.25000000       0.00000000 </v>
   <v>      -0.00000000       0.37500000       0.00000000 </v>
   <v>       0.12500000       0.37500000       0.00000000 </v>
   <v>       0.25000000       0.37500000       0.00000000 </v>
   <v>       0.37500000       0.37500000       0.00000000 </v>
   <v>       0.50000000       0.37500000       0.00000000 </v>
   <v>      -0.37500000       0.37500000       0.00000000 </v>
   <v>      -0.25000000       0.37500000       0.00000000 </v>
   <v>      -0.12500000       0.37500000       0.00000000 </v>
   <v>       0.00000000       0.50000000       0.00000000 </v>
   <v>       0.12500000       0.50000000       0.00000000 </v>
   <v>       0.25000000       0.50000000       0.00000000 </v>
   <v>       0.37500000       0.50000000       0.00000000 </v>
   <v>       0.50000000       0.50000000       0.00000000 </v>
  </varray>
  <varray name="weights" >
   <v>       0.01562500 </v>
   <v>       0.03125000 </v>
   <v>       0.03125000 </v>
   <v>       0.03125000 </v>
   <v>       0.01562500 </v>
   <v>       0.03125000 </v>
   <v>       0.03125000 </v>
   <v>       0.03125000 </v>
   <v>       0.03125000 </v>
   <v>       0.03125000 </v>
   <v>       0.03125000 </v>
   <v>       0.03125000 </v>
   <v>       0.03125000 </v>
   <v>       0.03125000 </v>
   <v>       0.03125000 </v>
   <v>       0.03125000 </v>
   <v>       0.03125000 </v>
   <v>       0.03125000 </v>
   <v>       0.03125000 </v>
   <v>       0.03125000 </v>
   <v>       0.03125000 </v>
   <v>       0.03125000 </v>
   <v>       0.03125000 </v>
   <v>       0.03125000 </v>
   <v>       0.03125000 </v>
   <v>       0.03125000 </v>
   <v>       0.03125000 </v>
   <v>       0.03125000 </v>
   <v>       0.03125000 </v>
   <v>       0.01562500 </v>
   <v>       0.03125000 </v>
   <v>       0.03125000 </v>
   <v>       0.03125000 </v>
   <v>       0.01562500 </v>
  </varray>
 </kpoints>
 <parameters>
  <separator name="general" >
   <i type="string" name="SYSTEM">unknown system</i>
   <i type="logical" name="LCOMPAT"> F  </i>
  </separator>
  <separator name="electronic" >
   <i type="string" name="PREC">normal</i>
   <i name="ENMAX">    280.00000000</i>
   <i name="ENAUG">    373.43800000</i>
   <i name="EDIFF">      0.00010000</i>
   <i type="int" name="IALGO">    38</i>
   <i type="int" name="IWAVPR">    11</i>
   <i type="int" name="NBANDS">   120</i>
   <i name="NELECT">    159.00000000</i>
   <i type="int" name="TURBO">     0</i>
   <i type="int" name="IRESTART">     0</i>
   <i type="int" name="NREBOOT">     0</i>
   <i type="int" name="NMIN">     0</i>
   <i name="EREF">      0.00000000</i>
   <separator name="electronic smearing" >
    <i type="int" name="ISMEAR">     0</i>
    <i name="SIGMA">      0.20000000</i>
    <i name="KSPACING">      0.50000000</i>
    <i type="logical" name="KGAMMA"> T  </i>
   </separator>
   <separator name="electronic projectors" >
    <i type="logical" name="LREAL"> F  </i>
    <v name="ROPT">      0.00000000      0.00000000      0.00000000      0.00000000</v>
    <i type="int" name="LMAXPAW">  -100</i>
    <i type="int" name="LMAXMIX">     2</i>
    <i type="logical" name="NLSPLINE"> F  </i>
   </separator>
   <separator name="electronic startup" >
    <i type="int" name="ISTART">     0</i>
    <i type="int" name="ICHARG">     2</i>
    <i type="int" name="INIWAV">     1</i>
   </separator>
   <separator name="electronic spin" >
    <i type="int" name="ISPIN">     1</i>
    <i type="logical" name="LNONCOLLINEAR"> F  </i>
    <v name="MAGMOM">      1.00000000      1.00000000      1.00000000      1.00000000      1.00000000      1.00000000      1.00000000      1.00000000      1.00000000      1.00000000      1.00000000      1.00000000      1.00000000      1.00000000      1.00000000      1.00000000      1.00000000      1.00000000      1.00000000      1.00000000
      1.00000000      1.00000000      1.00000000      1.00000000      1.00000000      1.00000000      1.00000000</v>
    <i name="NUPDOWN">     -1.00000000</i>
    <i type="logical" name="LSORBIT"> F  </i>
    <v name="SAXIS">      0.00000000      0.00000000      1.00000000</v>
    <i type="logical" name="LSPIRAL"> F  </i>
    <v name="QSPIRAL">      0.00000000      0.00000000      0.00000000</v>
    <i type="logical" name="LZEROZ"> F  </i>
   </separator>
   <separator name="electronic exchange-correlation" >
    <i type="logical" name="LASPH"> F  </i>
    <i type="logical" name="LMETAGGA"> F  </i>
   </separator>
   <separator name="electronic convergence" >
    <i type="int" name="NELM">    60</i>
    <i type="int" name="NELMDL">    -5</i>
    <i type="int" name="NELMIN">     2</i>
    <i name="ENINI">    280.00000000</i>
    <separator name="electronic convergence detail" >
     <i type="logical" name="LDIAG"> T  </i>
     <i type="logical" name="LSUBROT"> F  </i>
     <i name="WEIMIN">      0.00100000</i>
     <i name="EBREAK">      0.00000021</i>
     <i name="DEPER">      0.30000000</i>
     <i type="int" name="NRMM">     4</i>
     <i name="TIME">      0.40000000</i>
    </separator>
   </separator>
   <separator name="electronic mixer" >
    <i name="AMIX">      0.40000000</i>
    <i name="BMIX">      1.00000000</i>
    <i name="AMIN">      0.10000000</i>
    <i name="AMIX_MAG">      1.60000000</i>
    <i name="BMIX_MAG">      1.00000000</i>
    <separator name="electronic mixer details" >
     <i type="int" name="IMIX">     4</i>
     <i type="logical" name="MIXFIRST"> F  </i>
     <i type="int" name="MAXMIX">   -45</i>
     <i name="WC">    100.00000000</i>
     <i type="int" name="INIMIX">     1</i>
     <i type="int" name="MIXPRE">     1</i>
     <i type="int" name="MREMOVE">     5</i>
    </separator>
   </separator>
   <separator name="electronic dipolcorrection" >
    <i type="logical" name="LDIPOL"> F  </i>
    <i type="logical" name="LMONO"> F  </i>
    <i type="int" name="IDIPOL">     0</i>
    <i name="EPSILON">      1.00000000</i>
    <v name="DIPOL">   -100.00000000   -100.00000000   -100.00000000</v>
    <i name="EFIELD">      0.00000000</i>
   </separator>
  </separator>
  <separator name="grids" >
   <i type="int" name="NGX">    42</i>
   <i type="int" name="NGY">    42</i>
   <i type="int" name="NGZ">   126</i>
   <i type="int" name="NGXF">    84</i>
   <i type="int" name="NGYF">    84</i>
   <i type="int" name="NGZF">   252</i>
   <i type="logical" name="ADDGRID"> F  </i>
  </separator>
  <separator name="ionic" >
   <i type="int" name="NSW">   100</i>
   <i type="int" name="IBRION">     1</i>
   <i type="int" name="ISIF">     3</i>
   <i name="PSTRESS">      0.00000000</i>
   <i name="EDIFFG">      0.00100000</i>
   <i type="int" name="NFREE">     0</i>
   <i name="POTIM">      0.50000000</i>
   <i name="SMASS">     -3.00000000</i>
   <i name="SCALEE">      1.00000000</i>
  </separator>
  <separator name="ionic md" >
   <i name="TEBEG">      0.00010000</i>
   <i name="TEEND">      0.00010000</i>
   <i type="int" name="NBLOCK">     1</i>
   <i type="int" name="KBLOCK">   100</i>
   <i type="int" name="NPACO">   256</i>
   <i name="APACO">     16.00000000</i>
  </separator>
  <separator name="symmetry" >
   <i type="int" name="ISYM">     0</i>
   <i name="SYMPREC">      0.00000001</i>
  </separator>
  <separator name="dos" >
   <i type="logical" name="LORBIT"> F  </i>
   <v name="RWIGS">     -1.00000000     -1.00000000     -1.00000000     -1.00000000</v>
   <i type="int" name="NEDOS">   301</i>
   <i name="EMIN">     10.00000000</i>
   <i name="EMAX">    -10.00000000</i>
   <i name="EFERMI">      0.00000000</i>
  </separator>
  <separator name="writing" >
   <i type="int" name="NWRITE">     2</i>
   <i type="logical" name="LWAVE"> F  </i>
   <i type="logical" name="LCHARG"> F  </i>
   <i type="logical" name="LPARD"> F  </i>
   <i type="logical" name="LVTOT"> F  </i>
   <i type="logical" name="LVHAR"> F  </i>
   <i type="logical" name="LELF"> F  </i>
   <i type="logical" name="LOPTICS"> F  </i>
   <v name="STM">      0.00000000      0.00000000      0.00000000      0.00000000      0.00000000      0.00000000      0.00000000</v>
  </separator>
  <separator name="performance" >
   <i type="int" name="NPAR">    40</i>
   <i type="int" name="NSIM">     4</i>
   <i type="int" name="NBLK">    -1</i>
   <i type="logical" name="LPLANE"> F  </i>
   <i type="logical" name="LSCALAPACK"> T  </i>
   <i type="logical" name="LSCAAWARE"> F  </i>
   <i type="logical" name="LSCALU"> F  </i>
   <i type="logical" name="LASYNC"> F  </i>
   <i type="logical" name="LORBITALREAL"> F  </i>
  </separator>
  <separator name="miscellaneous" >
   <i type="int" name="IDIOT">     3</i>
   <i type="logical" name="LMUSIC"> F  </i>
   <v name="POMASS">     50.94100000     95.94000000    183.85000000     32.06600000</v>
   <v name="DARWINR">      0.00000000      0.00000000      0.00000000      0.00000000</v>
   <v name="DARWINV">      1.00000000      1.00000000      1.00000000      1.00000000</v>
   <i type="logical" name="LCORR"> T  </i>
  </separator>
  <i type="logical" name="GGA_COMPAT"> T  </i>
  <i type="logical" name="LBERRY"> F  </i>
  <i type="int" name="ICORELEVEL">     0</i>
  <i type="logical" name="LDAU"> F  </i>
  <i type="int" name="I_CONSTRAINED_M">     0</i>
  <separator name="electronic exchange-correlation" >
   <i type="string" name="GGA">--</i>
   <i type="int" name="VOSKOWN">     0</i>
   <i type="logical" name="LHFCALC"> F  </i>
   <i type="string" name="PRECFOCK"></i>
   <i type="logical" name="LSYMGRAD"> F  </i>
   <i type="logical" name="LHFONE"> F  </i>
   <i type="logical" name="LRHFCALC"> F  </i>
   <i type="logical" name="LTHOMAS"> F  </i>
   <i type="logical" name="LMODELHF"> F  </i>
   <i name="ENCUT4O">     -1.00000000</i>
   <i type="int" name="EXXOEP">     0</i>
   <i type="int" name="FOURORBIT">     0</i>
   <i name="AEXX">      0.00000000</i>
   <i name="HFALPHA">      0.00000000</i>
   <i name="MCALPHA">      0.00000000</i>
   <i name="ALDAX">      1.00000000</i>
   <i name="AGGAX">      1.00000000</i>
   <i name="ALDAC">      1.00000000</i>
   <i name="AGGAC">      1.00000000</i>
   <i type="int" name="NKREDX">     1</i>
   <i type="int" name="NKREDY">     1</i>
   <i type="int" name="NKREDZ">     1</i>
   <i type="logical" name="SHIFTRED"> F  </i>
   <i type="logical" name="ODDONLY"> F  </i>
   <i type="logical" name="EVENONLY"> F  </i>
   <i type="int" name="LMAXFOCK">     0</i>
   <i type="int" name="NMAXFOCKAE">     0</i>
   <i type="logical" name="LFOCKAEDFT"> F  </i>
   <i name="HFSCREEN">      0.00000000</i>
   <i name="HFSCREENC">      0.00000000</i>
   <i type="int" name="NBANDSGWLOW">     0</i>
  </separator>
  <separator name="vdW DFT" >
   <i type="logical" name="LUSE_VDW"> F  </i>
   <i name="Zab_VDW">     -0.84910000</i>
   <i name="PARAM1">      0.12340000</i>
   <i name="PARAM2">      1.00000000</i>
   <i name="PARAM3">      0.00000000</i>
  </separator>
  <separator name="model GW" >
   <i type="int" name="MODEL_GW">     0</i>
   <i name="MODEL_EPS0">     58.26239943</i>
   <i name="MODEL_ALPHA">      1.00000000</i>
  </separator>
  <separator name="linear response parameters" >
   <i type="logical" name="LEPSILON"> F  </i>
   <i type="logical" name="LRPA"> F  </i>
   <i type="logical" name="LNABLA"> F  </i>
   <i type="logical" name="LVEL"> F  </i>
   <i type="int" name="KINTER">     0</i>
   <i name="CSHIFT">      0.10000000</i>
   <i name="OMEGAMAX">     -1.00000000</i>
   <i name="DEG_THRESHOLD">      0.00200000</i>
  </separator>
  <separator name="orbital magnetization" >
   <i type="logical" name="NUCIND"> F  </i>
   <v name="MAGPOS">      0.00000000      0.00000000      0.00000000</v>
   <i type="logical" name="LNICSALL"> T  </i>
   <i type="logical" name="ORBITALMAG"> F  </i>
   <i type="logical" name="LMAGBLOCH"> F  </i>
   <i type="logical" name="LCHIMAG"> F  </i>
   <i type="logical" name="LGAUGE"> T  </i>
   <i type="int" name="MAGATOM">     0</i>
   <v name="MAGDIPOL">      0.00000000      0.00000000      0.00000000</v>
   <v name="AVECCONST">      0.00000000      0.00000000      0.00000000</v>
  </separator>
  <separator name="response functions" >
   <i type="logical" name="LADDER"> F  </i>
   <i type="logical" name="LFXC"> F  </i>
   <i type="logical" name="LHARTREE"> T  </i>
   <i type="int" name="IBSE">     0</i>
   <v type="int" name="KPOINT">    -1     0     0     0</v>
   <i type="logical" name="LTCTE"> F  </i>
   <i type="logical" name="LTETE"> F  </i>
   <i type="logical" name="LTRIPLET"> F  </i>
   <i type="logical" name="LFXCEPS"> F  </i>
   <i type="logical" name="LFXHEG"> F  </i>
   <i type="int" name="NATURALO">     0</i>
   <i type="logical" name="L2ORDER"> F  </i>
   <i type="logical" name="LUSEW"> F  </i>
   <i name="ENCUTGW">     -2.00000000</i>
   <i name="ENCUTGWSOFT">     -2.00000000</i>
   <i name="ENCUTLF">     -1.00000000</i>
   <i type="int" name="LMAXMP2">    -1</i>
   <i name="SCISSOR">      0.00000000</i>
   <i type="int" name="NOMEGA">     0</i>
   <i type="int" name="NOMEGAR">     0</i>
   <i type="int" name="NBANDSGW">    -1</i>
   <i type="int" name="NBANDSO">    -1</i>
   <i type="int" name="NBANDSV">    -1</i>
   <i type="int" name="NELM">     1</i>
   <i type="int" name="NELMHF">     1</i>
   <i type="int" name="DIM">     3</i>
   <i type="int" name="ANTIRES">     0</i>
   <i name="OMEGAMAX">    -30.00000000</i>
   <i name="OMEGAMIN">    -30.00000000</i>
   <i name="OMEGATL">   -200.00000000</i>
   <i type="int" name="OMEGAGRID">     0</i>
   <i name="CSHIFT">     -0.10000000</i>
   <i type="logical" name="SELFENERGY"> F  </i>
   <i type="logical" name="LSPECTRAL"> F  </i>
   <i type="logical" name="LSPECTRALGW"> F  </i>
   <i type="logical" name="LSINGLES"> F  </i>
   <i type="logical" name="LFERMIGW"> F  </i>
   <i type="logical" name="ODDONLYGW"> F  </i>
   <i type="logical" name="EVENONLYGW"> F  </i>
   <i type="int" name="NKREDLFX">     1</i>
   <i type="int" name="NKREDLFY">     1</i>
   <i type="int" name="NKREDLFZ">     1</i>
   <i type="int" name="MAXMEM">  1800</i>
   <i type="int" name="TELESCOPE">     0</i>
   <i type="int" name="TAUPAR">     1</i>
   <i type="int" name="OMEGAPAR">    -1</i>
   <i name="LAMBDA">      1.00000000</i>
  </separator>
  <separator name="External order field" >
   <i name="OFIELD_KAPPA">      0.00000000</i>
   <v name="OFIELD_K">      0.00000000      0.00000000      0.00000000</v>
   <i name="OFIELD_Q6_NEAR">      0.00000000</i>
   <i name="OFIELD_Q6_FAR">      0.00000000</i>
   <i name="OFIELD_A">      0.00000000</i>
  </separator>
 </parameters>
 <atominfo>
  <atoms>      27 </atoms>
  <types>       4 </types>
  <array name="atoms" >
   <dimension dim="1">ion</dimension>
   <field type="string">element</field>
   <field type="int">atomtype</field>
   <set>
    <rc><c>V </c><c>   1</c></rc>
    <rc><c>V </c><c>   1</c></rc>
    <rc><c>V </c><c>   1</c></rc>
    <rc><c>Mo</c><c>   2</c></rc>
    <rc><c>Mo</c><c>   2</c></rc>
    <rc><c>Mo</c><c>   2</c></rc>
    <rc><c>W </c><c>   3</c></rc>
    <rc><c>W </c><c>   3</c></rc>
    <rc><c>W </c><c>   3</c></rc>
    <rc><c>S </c><c>   4</c></rc>
    <rc><c>S </c><c>   4</c></rc>
    <rc><c>S </c><c>   4</c></rc>
    <rc><c>S </c><c>   4</c></rc>
    <rc><c>S </c><c>   4</c></rc>
    <rc><c>S </c><c>   4</c></rc>
    <rc><c>S </c><c>   4</c></rc>
    <rc><c>S </c><c>   4</c></rc>
    <rc><c>S </c><c>   4</c></rc>
    <rc><c>S </c><c>   4</c></rc>
    <rc><c>S </c><c>   4</c></rc>
    <rc><c>S </c><c>   4</c></rc>
    <rc><c>S </c><c>   4</c></rc>
    <rc><c>S </c><c>   4</c></rc>
    <rc><c>S </c><c>   4</c></rc>
    <rc><c>S </c><c>   4</c></rc>
    <rc><c>S </c><c>   4</c></rc>
    <rc><c>S </c><c>   4</c></rc>
   </set>
  </array>
  <array name="atomtypes" >
   <dimension dim="1">type</dimension>
   <field type="int">atomspertype</field>
   <field type="string">element</field>
   <field>mass</field>
   <field>valence</field>
   <field type="string">pseudopotential</field>
   <set>
    <rc><c>   3</c><c>V </c><c>     50.94100000</c><c>      5.00000000</c><c> PAW_PBE V 08Apr2002                    </c></rc>
    <rc><c>   3</c><c>Mo</c><c>     95.94000000</c><c>      6.00000000</c><c> PAW_PBE Mo 08Apr2002                   </c></rc>
    <rc><c>   3</c><c>W </c><c>    183.85000000</c><c>      6.00000000</c><c> PAW_PBE W 08Apr2002                    </c></rc>
    <rc><c>  18</c><c>S </c><c>     32.06600000</c><c>      6.00000000</c><c>  PAW_PBE S 17Jan2003                   </c></rc>
   </set>
  </array>
 </atominfo>
 <structure name="initialpos" >
  <crystal>
   <varray name="basis" >
    <v>       8.66999996       5.03999989       0.00000000 </v>
    <v>      -8.66999982       5.04000013       0.00000000 </v>
    <v>       0.00000000       0.00000000      30.00000000 </v>
   </varray>
   <i name="volume">   2621.80797419 </i>
   <varray name="rec_basis" >
    <v>       0.05767013       0.09920635       0.00000000 </v>
    <v>      -0.05767013       0.09920635       0.00000000 </v>
    <v>       0.00000000       0.00000000       0.03333333 </v>
   </varray>
  </crystal>
  <varray name="positions" >
   <v>       0.33333334       0.33333334       0.00000000 </v>
   <v>       0.33333334       0.66666669       0.00000000 </v>
   <v>       0.66666669       0.33333334       0.00000000 </v>
   <v>       0.66666669       0.00000000       0.00000000 </v>
   <v>       1.00000000       0.33333334       0.00000000 </v>
   <v>       0.00000000       0.00000000       0.00000000 </v>
   <v>       0.00000000       0.66666669       0.00000000 </v>
   <v>       0.33333334       0.00000000       0.00000000 </v>
   <v>       0.66666669       0.66666669       0.00000000 </v>
   <v>       0.11068511       0.22244981       0.95539999 </v>
   <v>       0.22244981       0.11068511       0.04460000 </v>
   <v>       0.11068511       0.55578315       0.95539999 </v>
   <v>       0.22244981       0.44401845       0.04460000 </v>
   <v>       0.11068511       0.88911647       0.95539999 </v>
   <v>       0.22244981       0.77735180       0.04460000 </v>
   <v>       0.44401845       0.22244981       0.95539999 </v>
   <v>       0.55578315       0.11068511       0.04460000 </v>
   <v>       0.44401845       0.55578315       0.95539999 </v>
   <v>       0.55578315       0.44401845       0.04460000 </v>
   <v>       0.44401845       0.88911647       0.95539999 </v>
   <v>       0.55578315       0.77735180       0.04460000 </v>
   <v>       0.77735180       0.22244981       0.95539999 </v>
   <v>       0.88911647       0.11068511       0.04460000 </v>
   <v>       0.77735180       0.55578315       0.95539999 </v>
   <v>       0.88911647       0.44401845       0.04460000 </v>
   <v>       0.77735180       0.88911647       0.95539999 </v>
   <v>       0.88911647       0.77735180       0.04460000 </v>
  </varray>
 </structure>
 <calculation>
  <scstep>
   <time name="dav">   21.54   21.59</time>
   <time name="total">   21.58   21.64</time>
   <energy>
    <i name="alphaZ">     81.65567618 </i>
    <i name="ewald">  41890.25211670 </i>
    <i name="hartreedc"> -47722.88014867 </i>
    <i name="XCdc">   -242.92958160 </i>
    <i name="pawpsdc">   3467.42045192 </i>
    <i name="pawaedc">  -2871.19716117 </i>
    <i name="eentropy">     -0.53123744 </i>
    <i name="bandstr">   -238.76948548 </i>
    <i name="atom">   6761.44252427 </i>
    <i name="e_fr_energy">   1124.46315470 </i>
    <i name="e_wo_entrp">   1124.99439215 </i>
    <i name="e_0_energy">   1124.72877342 </i>
   </energy>
  </scstep>
  <scstep>
   <time name="dav">   28.43   28.50</time>
   <time name="total">   28.43   28.51</time>
   <energy>
    <i name="e_fr_energy">     -5.03720470 </i>
    <i name="e_wo_entrp">     -4.85278207 </i>
    <i name="e_0_energy">     -4.94499339 </i>
   </energy>
  </scstep>
  <scstep>
   <time name="dav">   27.35   27.42</time>
   <time name="total">   27.36   27.43</time>
   <energy>
    <i name="e_fr_energy">   -199.99534440 </i>
    <i name="e_wo_entrp">   -199.71472219 </i>
    <i name="e_0_energy">   -199.85503329 </i>
   </energy>
  </scstep>
  <scstep>
   <time name="dav">   30.26   30.34</time>
   <time name="total">   30.27   30.34</time>
   <energy>
    <i name="e_fr_energy">   -208.96296692 </i>
    <i name="e_wo_entrp">   -208.65376768 </i>
    <i name="e_0_energy">   -208.80836730 </i>
   </energy>
  </scstep>
  <scstep>
   <time name="dav">   28.39   28.46</time>
   <time name="total">   28.85   28.93</time>
   <energy>
    <i name="e_fr_energy">   -209.24661138 </i>
    <i name="e_wo_entrp">   -208.94012592 </i>
    <i name="e_0_energy">   -209.09336865 </i>
   </energy>
  </scstep>
  <scstep>
   <time name="dav">   31.28   31.35</time>
   <time name="total">   31.78   31.86</time>
   <energy>
    <i name="e_fr_energy">   -236.61704057 </i>
    <i name="e_wo_entrp">   -236.34263002 </i>
    <i name="e_0_energy">   -236.47983529 </i>
   </energy>
  </scstep>
  <scstep>
   <time name="dav">   31.94   32.01</time>
   <time name="total">   32.44   32.53</time>
   <energy>
    <i name="e_fr_energy">   -196.79282316 </i>
    <i name="e_wo_entrp">   -196.45339354 </i>
    <i name="e_0_energy">   -196.62310835 </i>
   </energy>
  </scstep>
  <scstep>
   <time name="dav">   29.20   29.27</time>
   <time name="total">   29.71   29.79</time>
   <energy>
    <i name="e_fr_energy">   -190.22993047 </i>
    <i name="e_wo_entrp">   -189.96207587 </i>
    <i name="e_0_energy">   -190.09600317 </i>
   </energy>
  </scstep>
  <scstep>
   <time name="dav">   29.27   29.34</time>
   <time name="total">   29.79   29.87</time>
   <energy>
    <i name="e_fr_energy">   -188.31225222 </i>
    <i name="e_wo_entrp">   -187.98223771 </i>
    <i name="e_0_energy">   -188.14724497 </i>
   </energy>
  </scstep>
  <scstep>
   <time name="dav">   32.29   32.37</time>
   <time name="total">   32.82   32.91</time>
   <energy>
    <i name="e_fr_energy">   -187.16397509 </i>
    <i name="e_wo_entrp">   -186.82219817 </i>
    <i name="e_0_energy">   -186.99308663 </i>
   </energy>
  </scstep>
  <scstep>
   <time name="dav">   30.79   30.87</time>
   <time name="total">   31.32   31.40</time>
   <energy>
    <i name="e_fr_energy">   -187.00321545 </i>
    <i name="e_wo_entrp">   -186.65464514 </i>
    <i name="e_0_energy">   -186.82893029 </i>
   </energy>
  </scstep>
  <scstep>
   <time name="dav">   32.38   32.46</time>
   <time name="total">   32.91   33.00</time>
   <energy>
    <i name="e_fr_energy">   -187.09944653 </i>
    <i name="e_wo_entrp">   -186.76696737 </i>
    <i name="e_0_energy">   -186.93320695 </i>
   </energy>
  </scstep>
  <scstep>
   <time name="dav">   31.89   31.97</time>
   <time name="total">   32.42   32.51</time>
   <energy>
    <i name="e_fr_energy">   -186.94032256 </i>
    <i name="e_wo_entrp">   -186.60514854 </i>
    <i name="e_0_energy">   -186.77273555 </i>
   </energy>
  </scstep>
  <scstep>
   <time name="dav">   31.93   32.01</time>
   <time name="total">   32.47   32.56</time>
   <energy>
    <i name="e_fr_energy">   -186.90077574 </i>
    <i name="e_wo_entrp">   -186.56002558 </i>
    <i name="e_0_energy">   -186.73040066 </i>
   </energy>
  </scstep>
  <scstep>
   <time name="dav">   31.45   31.52</time>
   <time name="total">   31.98   32.06</time>
   <energy>
    <i name="e_fr_energy">   -186.89816865 </i>
    <i name="e_wo_entrp">   -186.55493994 </i>
    <i name="e_0_energy">   -186.72655430 </i>
   </energy>
  </scstep>
  <scstep>
   <time name="dav">   31.70   31.77</time>
   <time name="total">   32.23   32.32</time>
   <energy>
    <i name="e_fr_energy">   -186.89183257 </i>
    <i name="e_wo_entrp">   -186.54860112 </i>
    <i name="e_0_energy">   -186.72021685 </i>
   </energy>
  </scstep>
  <scstep>
   <time name="dav">   31.57   31.64</time>
   <time name="total">   32.10   32.18</time>
   <energy>
    <i name="e_fr_energy">   -186.88937620 </i>
    <i name="e_wo_entrp">   -186.54720753 </i>
    <i name="e_0_energy">   -186.71829187 </i>
   </energy>
  </scstep>
  <scstep>
   <time name="dav">   31.13   31.21</time>
   <time name="total">   31.67   31.75</time>
   <energy>
    <i name="e_fr_energy">   -186.88840787 </i>
    <i name="e_wo_entrp">   -186.54735639 </i>
    <i name="e_0_energy">   -186.71788213 </i>
   </energy>
  </scstep>
  <scstep>
   <time name="dav">   28.88   28.95</time>
   <time name="total">   29.41   29.49</time>
   <energy>
    <i name="e_fr_energy">   -186.88805559 </i>
    <i name="e_wo_entrp">   -186.54636466 </i>
    <i name="e_0_energy">   -186.71721012 </i>
   </energy>
  </scstep>
  <scstep>
   <time name="dav">   23.41   23.47</time>
   <time name="total">   23.94   24.01</time>
   <energy>
    <i name="e_fr_energy">   -186.88880646 </i>
    <i name="e_wo_entrp">   -186.54745153 </i>
    <i name="e_0_energy">   -186.71812899 </i>
   </energy>
  </scstep>
  <scstep>
   <time name="dav">   22.13   22.18</time>
   <time name="total">   22.66   22.72</time>
   <energy>
    <i name="e_fr_energy">   -186.88936293 </i>
    <i name="e_wo_entrp">   -186.54794610 </i>
    <i name="e_0_energy">   -186.71865452 </i>
   </energy>
  </scstep>
  <scstep>
   <time name="dav">   20.19   20.24</time>
   <time name="total">   20.73   20.79</time>
   <energy>
    <i name="e_fr_energy">   -186.89052531 </i>
    <i name="e_wo_entrp">   -186.54907435 </i>
    <i name="e_0_energy">   -186.71979983 </i>
   </energy>
  </scstep>
  <scstep>
   <time name="dav">   20.39   20.44</time>
   <time name="total">   20.92   20.98</time>
   <energy>
    <i name="e_fr_energy">   -186.89174943 </i>
    <i name="e_wo_entrp">   -186.55040239 </i>
    <i name="e_0_energy">   -186.72107591 </i>
   </energy>
  </scstep>
  <scstep>
   <time name="dav">   18.89   18.94</time>
   <time name="total">   19.43   19.48</time>
   <energy>
    <i name="e_fr_energy">   -186.89234294 </i>
    <i name="e_wo_entrp">   -186.55096424 </i>
    <i name="e_0_energy">   -186.72165359 </i>
   </energy>
  </scstep>
  <scstep>
   <time name="dav">   16.39   16.43</time>
   <time name="total">   16.92   16.97</time>
   <energy>
    <i name="e_fr_energy">   -186.89272897 </i>
    <i name="e_wo_entrp">   -186.55131497 </i>
    <i name="e_0_energy">   -186.72202197 </i>
   </energy>
  </scstep>
  <scstep>
   <time name="dav">   18.98   19.02</time>
   <time name="total">   19.51   19.57</time>
   <energy>
    <i name="e_fr_energy">   -186.89296951 </i>
    <i name="e_wo_entrp">   -186.55157096 </i>
    <i name="e_0_energy">   -186.72227023 </i>
   </energy>
  </scstep>
  <scstep>
   <time name="dav">   19.87   19.92</time>
   <time name="total">   19.90   19.96</time>
   <energy>
    <i name="alphaZ">     81.65567618 </i>
    <i name="ewald">  41890.25211670 </i>
    <i name="hartreedc"> -47833.19592185 </i>
    <i name="XCdc">   -231.59883907 </i>
    <i name="pawpsdc">   4192.18596740 </i>
    <i name="pawaedc">  -3610.21008149 </i>
    <i name="eentropy">     -0.34139896 </i>
    <i name="bandstr">  -1437.08311232 </i>
    <i name="atom">   6761.44252427 </i>
    <i name="e_fr_energy">   -186.89306915 </i>
    <i name="e_wo_entrp">   -186.55167019 </i>
    <i name="e_0_energy">   -186.72236967 </i>
   </energy>
  </scstep>
  <structure>
   <crystal>
    <varray name="basis" >
     <v>       8.66999996       5.03999989       0.00000000 </v>
     <v>      -8.66999982       5.04000013       0.00000000 </v>
     <v>       0.00000000       0.00000000      30.00000000 </v>
    </varray>
    <i name="volume">   2621.80797419 </i>
    <varray name="rec_basis" >
     <v>       0.05767013       0.09920635       0.00000000 </v>
     <v>      -0.05767013       0.09920635       0.00000000 </v>
     <v>       0.00000000       0.00000000       0.03333333 </v>
    </varray>
   </crystal>
   <varray name="positions" >
    <v>       0.33333334       0.33333334       0.00000000 </v>
    <v>       0.33333334       0.66666669       0.00000000 </v>
    <v>       0.66666669       0.33333334       0.00000000 </v>
    <v>       0.66666669       0.00000000       0.00000000 </v>
    <v>       1.00000000       0.33333334       0.00000000 </v>
    <v>       0.00000000       0.00000000       0.00000000 </v>
    <v>       0.00000000       0.66666669       0.00000000 </v>
    <v>       0.33333334       0.00000000       0.00000000 </v>
    <v>       0.66666669       0.66666669       0.00000000 </v>
    <v>       0.11068511       0.22244981       0.95539999 </v>
    <v>       0.22244981       0.11068511       0.04460000 </v>
    <v>       0.11068511       0.55578315       0.95539999 </v>
    <v>       0.22244981       0.44401845       0.04460000 </v>
    <v>       0.11068511       0.88911647       0.95539999 </v>
    <v>       0.22244981       0.77735180       0.04460000 </v>
    <v>       0.44401845       0.22244981       0.95539999 </v>
    <v>       0.55578315       0.11068511       0.04460000 </v>
    <v>       0.44401845       0.55578315       0.95539999 </v>
    <v>       0.55578315       0.44401845       0.04460000 </v>
    <v>       0.44401845       0.88911647       0.95539999 </v>
    <v>       0.55578315       0.77735180       0.04460000 </v>
    <v>       0.77735180       0.22244981       0.95539999 </v>
    <v>       0.88911647       0.11068511       0.04460000 </v>
    <v>       0.77735180       0.55578315       0.95539999 </v>
    <v>       0.88911647       0.44401845       0.04460000 </v>
    <v>       0.77735180       0.88911647       0.95539999 </v>
    <v>       0.88911647       0.77735180       0.04460000 </v>
   </varray>
  </structure>
  <varray name="forces" >
   <v>      -0.22264231      -0.27042074       0.04602971 </v>
   <v>       0.05722048      -0.04218170       0.08646425 </v>
   <v>       0.35196865      -0.03149974      -0.06767035 </v>
   <v>       0.26850453       0.44729800      -0.13932947 </v>
   <v>       0.29277875      -0.40198095      -0.00238661 </v>
   <v>      -0.53361718      -0.02468248      -0.01807438 </v>
   <v>       0.05111406      -0.02603137       0.09012728 </v>
   <v>      -0.01545393       0.09576977      -0.05275651 </v>
   <v>      -0.28293165       0.29318303       0.05962269 </v>
   <v>       0.52724640       0.69072240      -2.17417714 </v>
   <v>      -0.36204234       0.68177286       2.14672508 </v>
   <v>       0.37080794       0.69470603      -2.12016089 </v>
   <v>       0.32390942       0.68761632       1.42541731 </v>
   <v>       0.24835194       0.00801133      -2.85069113 </v>
   <v>       0.62465221      -0.01830591       2.17486112 </v>
   <v>      -0.22010378       0.52922274      -1.43891914 </v>
   <v>      -0.61967402       0.53887701       2.13012377 </v>
   <v>      -0.23484515      -0.52664681      -1.41243027 </v>
   <v>       0.23780213      -0.51692020       1.35789141 </v>
   <v>       0.36374659      -0.68422157      -2.11233216 </v>
   <v>      -0.36653802      -0.73325215       2.15666328 </v>
   <v>      -0.76934889      -0.01769213      -2.14922520 </v>
   <v>      -0.10703998       0.01501016       2.94169366 </v>
   <v>       0.48100652      -0.60405124      -2.17831955 </v>
   <v>      -0.62468612      -0.53212413       2.13094036 </v>
   <v>       0.19279443      -0.14149549      -2.93822059 </v>
   <v>      -0.03298068      -0.11068305       2.90813346 </v>
  </varray>
  <varray name="stress" >
   <v>       7.27238567       0.05143244      -1.53929341 </v>
   <v>       0.05143256       4.50810528       0.05186671 </v>
   <v>      -1.53929364       0.05186680      30.27129279 </v>
  </varray>
  <energy>
   <i name="e_fr_energy">   -186.89306915 </i>
   <i name="e_wo_entrp">   -186.72236967 </i>
   <i name="e_0_energy">     -0.34139896 </i>
  </energy>
  <time name="totalsc">  785.78  787.89</time>
 </calculation>
 <calculation>
  <scstep>
   <time name="dav">   21.50   21.56</time>
   <time name="total">   22.05   22.10</time>
   <energy>
    <i name="alphaZ">     78.91535238 </i>
    <i name="ewald">  39377.60070844 </i>
    <i name="hartreedc"> -45335.15671296 </i>
    <i name="XCdc">   -239.05671007 </i>
    <i name="pawpsdc">   4192.16231982 </i>
    <i name="pawaedc">  -3610.18678802 </i>
    <i name="eentropy">     -0.28154301 </i>
    <i name="bandstr">  -1412.97261294 </i>
    <i name="atom">   6761.44252427 </i>
    <i name="e_fr_energy">   -187.53346209 </i>
    <i name="e_wo_entrp">   -187.25191908 </i>
    <i name="e_0_energy">   -187.39269059 </i>
   </energy>
  </scstep>
  <scstep>
   <time name="dav">   30.14   30.21</time>
   <time name="total">   30.67   30.76</time>
   <energy>
    <i name="e_fr_energy">   -189.42795162 </i>
    <i name="e_wo_entrp">   -189.10249966 </i>
    <i name="e_0_energy">   -189.26522564 </i>
   </energy>
  </scstep>
  <scstep>
   <time name="dav">   30.27   30.34</time>
   <time name="total">   30.82   30.91</time>
   <energy>
    <i name="e_fr_energy">   -189.39518052 </i>
    <i name="e_wo_entrp">   -189.12204769 </i>
    <i name="e_0_energy">   -189.25861411 </i>
   </energy>
  </scstep>
  <scstep>
   <time name="dav">   30.42   30.49</time>
   <time name="total">   30.96   31.05</time>
   <energy>
    <i name="e_fr_energy">   -188.78801602 </i>
    <i name="e_wo_entrp">   -188.50768440 </i>
    <i name="e_0_energy">   -188.64785021 </i>
   </energy>
  </scstep>
  <scstep>
   <time name="dav">   29.64   29.71</time>
   <time name="total">   30.18   30.26</time>
   <energy>
    <i name="e_fr_energy">   -188.89545441 </i>
    <i name="e_wo_entrp">   -188.60555611 </i>
    <i name="e_0_energy">   -188.75050526 </i>
   </energy>
  </scstep>
  <scstep>
   <time name="dav">   31.14   31.22</time>
   <time name="total">   31.69   31.77</time>
   <energy>
    <i name="e_fr_energy">   -188.75275114 </i>
    <i name="e_wo_entrp">   -188.47468189 </i>
    <i name="e_0_energy">   -188.61371652 </i>
   </energy>
  </scstep>
  <scstep>
   <time name="dav">   29.15   29.22</time>
   <time name="total">   29.70   29.79</time>
   <energy>
    <i name="e_fr_energy">   -188.72262467 </i>
    <i name="e_wo_entrp">   -188.44205305 </i>
    <i name="e_0_energy">   -188.58233886 </i>
   </energy>
  </scstep>
  <scstep>
   <time name="dav">   32.13   32.21</time>
   <time name="total">   32.67   32.76</time>
   <energy>
    <i name="e_fr_energy">   -188.71179125 </i>
    <i name="e_wo_entrp">   -188.43286693 </i>
    <i name="e_0_energy">   -188.57232909 </i>
   </energy>
  </scstep>
  <scstep>
   <time name="dav">   29.27   29.34</time>
   <time name="total">   29.81   29.89</time>
   <energy>
    <i name="e_fr_energy">   -188.70194532 </i>
    <i name="e_wo_entrp">   -188.42322200 </i>
    <i name="e_0_energy">   -188.56258366 </i>
   </energy>
  </scstep>
  <scstep>
   <time name="dav">   28.93   29.00</time>
   <time name="total">   29.47   29.55</time>
   <energy>
    <i name="e_fr_energy">   -188.70131082 </i>
    <i name="e_wo_entrp">   -188.42305150 </i>
    <i name="e_0_energy">   -188.56218116 </i>
   </energy>
  </scstep>
  <scstep>
   <time name="dav">   30.42   30.49</time>
   <time name="total">   30.97   31.05</time>
   <energy>
    <i name="e_fr_energy">   -188.70073356 </i>
    <i name="e_wo_entrp">   -188.42264478 </i>
    <i name="e_0_energy">   -188.56168917 </i>
   </energy>
  </scstep>
  <scstep>
   <time name="dav">   28.26   28.32</time>
   <time name="total">   28.80   28.88</time>
   <energy>
    <i name="e_fr_energy">   -188.70085244 </i>
    <i name="e_wo_entrp">   -188.42287043 </i>
    <i name="e_0_energy">   -188.56186144 </i>
   </energy>
  </scstep>
  <scstep>
   <time name="dav">   21.45   21.51</time>
   <time name="total">   21.49   21.55</time>
   <energy>
    <i name="alphaZ">     78.91535238 </i>
    <i name="ewald">  39377.60070844 </i>
    <i name="hartreedc"> -45345.89877697 </i>
    <i name="XCdc">   -237.96857125 </i>
    <i name="pawpsdc">   3950.58705793 </i>
    <i name="pawaedc">  -3365.10840224 </i>
    <i name="eentropy">     -0.27807009 </i>
    <i name="bandstr">  -1407.99260711 </i>
    <i name="atom">   6761.44252427 </i>
    <i name="e_fr_energy">   -188.70078464 </i>
    <i name="e_wo_entrp">   -188.42271454 </i>
    <i name="e_0_energy">   -188.56174959 </i>
   </energy>
  </scstep>
  <structure>
   <crystal>
    <varray name="basis" >
     <v>       8.85511237       5.10773646       0.00000000 </v>
     <v>      -8.85359638       5.10512909       0.00000000 </v>
     <v>       0.00000000       0.00000000      30.00000000 </v>
    </varray>
    <i name="volume">   2712.84986362 </i>
    <varray name="rec_basis" >
     <v>       0.05645498       0.09790733       0.00000000 </v>
     <v>      -0.05648381       0.09792410       0.00000000 </v>
     <v>       0.00000000       0.00000000       0.03333333 </v>
    </varray>
   </crystal>
   <varray name="positions" >
    <v>       0.33141969       0.33265854       0.00007402 </v>
    <v>       0.33329066       0.66630561       0.00013904 </v>
    <v>       0.66749516       0.33220335      -0.00010882 </v>
    <v>       0.66955447       0.00139374      -0.00022405 </v>
    <v>       0.99889069       0.33059491      -0.00000384 </v>
    <v>      -0.00160274       0.00136648      -0.00002907 </v>
    <v>       0.00001762       0.66639989       0.00014493 </v>
    <v>       0.33374870       0.00050135      -0.00008484 </v>
    <v>       0.66728269       0.66885702       0.00009588 </v>
    <v>       0.11545778       0.22428871       0.95190372 </v>
    <v>       0.22470550       0.11495532       0.04805212 </v>
    <v>       0.11504160       0.55807635       0.95199058 </v>
    <v>       0.22664189       0.44640820       0.04689220 </v>
    <v>       0.11141441       0.88846385       0.95081583 </v>
    <v>       0.22410008       0.77552630       0.04809737 </v>
    <v>       0.44593894       0.22559502       0.95308608 </v>
    <v>       0.55663817       0.11498820       0.04802543 </v>
    <v>       0.44084456       0.55391601       0.95312868 </v>
    <v>       0.55397079       0.44088288       0.04678361 </v>
    <v>       0.44175579       0.88482980       0.95200317 </v>
    <v>       0.55125406       0.77486224       0.04806810 </v>
    <v>       0.77512667       0.22450559       0.95194385 </v>
    <v>       0.88889050       0.11105475       0.04933050 </v>
    <v>       0.77579906       0.55155394       0.95189706 </v>
    <v>       0.88483176       0.44320970       0.04802674 </v>
    <v>       0.77721099       0.88790289       0.95067507 </v>
    <v>       0.88849498       0.77691383       0.04927653 </v>
   </varray>
  </structure>
  <varray name="forces" >
   <v>      -0.14799719      -0.26561108       0.09795427 </v>
   <v>      -0.05277395      -0.03816546      -0.03918562 </v>
   <v>       0.30114460      -0.01985455       0.05390238 </v>
   <v>       0.42039301       0.50433291      -0.03584458 </v>
   <v>       0.27084620      -0.52849993      -0.01139771 </v>
   <v>      -0.54108813      -0.20305191       0.00120423 </v>
   <v>      -0.04006257       0.08049327      -0.05850254 </v>
   <v>       0.00759080      -0.08565718      -0.08184665 </v>
   <v>      -0.18630042       0.50848902       0.10569943 </v>
   <v>       0.01990938       0.07688085      -0.15168607 </v>
   <v>       0.10597207       0.04799115      -0.06351095 </v>
   <v>      -0.09805353       0.04268082       0.16116668 </v>
   <v>       0.01813555       0.02758626      -0.04786707 </v>
   <v>       0.09010299      -0.00378042       0.10532070 </v>
   <v>      -0.06870258      -0.00264976       0.00562224 </v>
   <v>       0.05522851      -0.06617447       0.11290835 </v>
   <v>      -0.07199796      -0.05616611      -0.08464306 </v>
   <v>       0.06601756       0.07231634       0.15868050 </v>
   <v>      -0.06586995       0.07955306      -0.31609945 </v>
   <v>      -0.10751074      -0.04035518       0.13040962 </v>
   <v>       0.10243262      -0.04037998      -0.03013952 </v>
   <v>      -0.04702538      -0.00058629      -0.21625206 </v>
   <v>      -0.00408660      -0.00074680       0.35292948 </v>
   <v>      -0.05795587       0.04396942       0.14730464 </v>
   <v>      -0.07487472       0.04780624      -0.04487658 </v>
   <v>       0.04369981      -0.09970964      -0.27963964 </v>
   <v>       0.06282647      -0.08071056       0.02838897 </v>
  </varray>
  <varray name="stress" >
   <v>     -19.87170962      -0.00210639       0.02540290 </v>
   <v>      -0.00210626     -19.47840066      -0.00517004 </v>
   <v>       0.02540265      -0.00516993      -1.74753165 </v>
  </varray>
  <energy>
   <i name="e_fr_energy">   -188.70078464 </i>
   <i name="e_wo_entrp">   -188.56174959 </i>
   <i name="e_0_energy">     -0.27807009 </i>
  </energy>
  <time name="totalsc">  421.52  422.65</time>
 </calculation>
 <calculation>
  <scstep>
   <time name="dav">   23.18   23.23</time>
   <time name="total">   23.71   23.77</time>
   <energy>
    <i name="alphaZ">     82.32986848 </i>
    <i name="ewald">  41295.53098551 </i>
    <i name="hartreedc"> -47294.20160823 </i>
    <i name="XCdc">   -233.85795636 </i>
    <i name="pawpsdc">   3949.73274045 </i>
    <i name="pawaedc">  -3364.24640432 </i>
    <i name="eentropy">     -0.23502500 </i>
    <i name="bandstr">  -1387.11487516 </i>
    <i name="atom">   6761.44252427 </i>
    <i name="e_fr_energy">   -190.61975036 </i>
    <i name="e_wo_entrp">   -190.38472537 </i>
    <i name="e_0_energy">   -190.50223787 </i>
   </energy>
  </scstep>
  <scstep>
   <time name="dav">   27.82   27.88</time>
   <time name="total">   28.34   28.42</time>
   <energy>
    <i name="e_fr_energy">   -190.56606733 </i>
    <i name="e_wo_entrp">   -190.33220190 </i>
    <i name="e_0_energy">   -190.44913462 </i>
   </energy>
  </scstep>
  <scstep>
   <time name="dav">   30.19   30.26</time>
   <time name="total">   30.71   30.79</time>
   <energy>
    <i name="e_fr_energy">   -190.10593528 </i>
    <i name="e_wo_entrp">   -189.85534660 </i>
    <i name="e_0_energy">   -189.98064094 </i>
   </energy>
  </scstep>
  <scstep>
   <time name="dav">   31.12   31.19</time>
   <time name="total">   31.65   31.74</time>
   <energy>
    <i name="e_fr_energy">   -189.89728203 </i>
    <i name="e_wo_entrp">   -189.66376253 </i>
    <i name="e_0_energy">   -189.78052228 </i>
   </energy>
  </scstep>
  <scstep>
   <time name="dav">   29.99   30.06</time>
   <time name="total">   30.52   30.60</time>
   <energy>
    <i name="e_fr_energy">   -189.87643950 </i>
    <i name="e_wo_entrp">   -189.63807142 </i>
    <i name="e_0_energy">   -189.75725546 </i>
   </energy>
  </scstep>
  <scstep>
   <time name="dav">   30.80   30.87</time>
   <time name="total">   31.33   31.42</time>
   <energy>
    <i name="e_fr_energy">   -189.79959567 </i>
    <i name="e_wo_entrp">   -189.56231477 </i>
    <i name="e_0_energy">   -189.68095522 </i>
   </energy>
  </scstep>
  <scstep>
   <time name="dav">   28.55   28.62</time>
   <time name="total">   29.08   29.16</time>
   <energy>
    <i name="e_fr_energy">   -189.79316326 </i>
    <i name="e_wo_entrp">   -189.55643956 </i>
    <i name="e_0_energy">   -189.67480141 </i>
   </energy>
  </scstep>
  <scstep>
   <time name="dav">   29.52   29.59</time>
   <time name="total">   30.05   30.13</time>
   <energy>
    <i name="e_fr_energy">   -189.79359231 </i>
    <i name="e_wo_entrp">   -189.55690324 </i>
    <i name="e_0_energy">   -189.67524777 </i>
   </energy>
  </scstep>
  <scstep>
   <time name="dav">   26.75   26.81</time>
   <time name="total">   27.28   27.35</time>
   <energy>
    <i name="e_fr_energy">   -189.79320752 </i>
    <i name="e_wo_entrp">   -189.55642727 </i>
    <i name="e_0_energy">   -189.67481740 </i>
   </energy>
  </scstep>
  <scstep>
   <time name="dav">   24.65   24.71</time>
   <time name="total">   25.18   25.25</time>
   <energy>
    <i name="e_fr_energy">   -189.79340026 </i>
    <i name="e_wo_entrp">   -189.55652799 </i>
    <i name="e_0_energy">   -189.67496413 </i>
   </energy>
  </scstep>
  <scstep>
   <time name="dav">   22.88   22.94</time>
   <time name="total">   23.41   23.48</time>
   <energy>
    <i name="e_fr_energy">   -189.79319981 </i>
    <i name="e_wo_entrp">   -189.55634245 </i>
    <i name="e_0_energy">   -189.67477113 </i>
   </energy>
  </scstep>
  <scstep>
   <time name="dav">   19.68   19.72</time>
   <time name="total">   19.71   19.77</time>
   <energy>
    <i name="alphaZ">     82.32986848 </i>
    <i name="ewald">  41295.53098551 </i>
    <i name="hartreedc"> -47267.80505927 </i>
    <i name="XCdc">   -235.24490576 </i>
    <i name="pawpsdc">   4038.76212791 </i>
    <i name="pawaedc">  -3454.47508218 </i>
    <i name="eentropy">     -0.23686986 </i>
    <i name="bandstr">  -1410.09680608 </i>
    <i name="atom">   6761.44252427 </i>
    <i name="e_fr_energy">   -189.79321696 </i>
    <i name="e_wo_entrp">   -189.55634711 </i>
    <i name="e_0_energy">   -189.67478203 </i>
   </energy>
  </scstep>
  <structure>
   <crystal>
    <varray name="basis" >
     <v>       8.66767516       5.00174689       0.00000000 </v>
     <v>      -8.66621417       4.99923334       0.00000000 </v>
     <v>       0.00000000       0.00000000      30.00000000 </v>
    </varray>
    <i name="volume">   2600.33821135 </i>
    <varray name="rec_basis" >
     <v>       0.05767596       0.09998177       0.00000000 </v>
     <v>      -0.05770496       0.09999863       0.00000000 </v>
     <v>       0.00000000       0.00000000       0.03333333 </v>
    </varray>
   </crystal>
   <varray name="positions" >
    <v>       0.33083610       0.33235876       0.00012948 </v>
    <v>       0.33317659       0.66629276       0.00011686 </v>
    <v>       0.66775090       0.33188143      -0.00007830 </v>
    <v>       0.67079621       0.00182923      -0.00024435 </v>
    <v>       0.99827155       0.32945609      -0.00001029 </v>
    <v>      -0.00245921       0.00154785      -0.00002838 </v>
    <v>       0.00011306       0.66657220       0.00011181 </v>
    <v>       0.33361354       0.00035160      -0.00013117 </v>
    <v>       0.66794962       0.66988145       0.00015572 </v>
    <v>       0.11560471       0.22439747       0.95181784 </v>
    <v>       0.22488691       0.11493347       0.04801617 </v>
    <v>       0.11501856       0.55824141       0.95208183 </v>
    <v>       0.22670516       0.44643668       0.04686510 </v>
    <v>       0.11149452       0.88837113       0.95087545 </v>
    <v>       0.22402980       0.77558780       0.04810055 </v>
    <v>       0.44588185       0.22543198       0.95315000 </v>
    <v>       0.55647574       0.11496385       0.04797751 </v>
    <v>       0.44102811       0.55397295       0.95321851 </v>
    <v>       0.55403992       0.44107838       0.04660465 </v>
    <v>       0.44158559       0.88486582       0.95207700 </v>
    <v>       0.55128513       0.77469681       0.04805104 </v>
    <v>       0.77508061       0.22454972       0.95182142 </v>
    <v>       0.88888534       0.11105743       0.04953031 </v>
    <v>       0.77581660       0.55168267       0.95198046 </v>
    <v>       0.88483946       0.44336104       0.04800133 </v>
    <v>       0.77708708       0.88769513       0.95051675 </v>
    <v>       0.88842101       0.77671932       0.04929261 </v>
   </varray>
  </structure>
  <varray name="forces" >
   <v>      -0.12462610      -0.27021922       0.08712857 </v>
   <v>      -0.11321291      -0.02985681      -0.05762232 </v>
   <v>       0.30483599      -0.00697479       0.07337221 </v>
   <v>       0.46298096       0.50902495      -0.00216856 </v>
   <v>       0.24777445      -0.55338335      -0.01300092 </v>
   <v>      -0.52885927      -0.27306267       0.00317987 </v>
   <v>      -0.07208325       0.12240078      -0.07666898 </v>
   <v>       0.02333095      -0.15592414      -0.06128898 </v>
   <v>      -0.15519532       0.57433056       0.08627216 </v>
   <v>       0.05905450       0.13540623      -0.65117676 </v>
   <v>      -0.01355378       0.09056018       0.42380983 </v>
   <v>       0.03042152       0.08129675      -0.31476589 </v>
   <v>       0.03977786       0.07500620       0.39791470 </v>
   <v>      -0.00534439      -0.00352525      -0.43484035 </v>
   <v>       0.07559250       0.00358983       0.52610373 </v>
   <v>      -0.03272820       0.07695507      -0.34704007 </v>
   <v>      -0.04899001       0.06426796       0.39365363 </v>
   <v>       0.00237059      -0.04859881      -0.28335251 </v>
   <v>       0.00672188      -0.04165321       0.11580876 </v>
   <v>       0.02491045      -0.08124255      -0.34884812 </v>
   <v>      -0.03708712      -0.08177953       0.46850959 </v>
   <v>      -0.11297619       0.00347388      -0.72899284 </v>
   <v>      -0.00917697      -0.00244443       0.91881191 </v>
   <v>       0.00110158      -0.08281600      -0.34815528 </v>
   <v>      -0.05547263      -0.07792660       0.44240696 </v>
   <v>       0.00582148      -0.02931857      -0.86339253 </v>
   <v>       0.02461144       0.00241354       0.59434218 </v>
  </varray>
  <varray name="stress" >
   <v>     -10.15135189      -0.00966428       0.00189063 </v>
   <v>      -0.00966438      -9.84433848      -0.01742088 </v>
   <v>       0.00189065      -0.01742065       6.45873294 </v>
  </varray>
  <energy>
   <i name="e_fr_energy">   -189.79321696 </i>
   <i name="e_wo_entrp">   -189.67478203 </i>
   <i name="e_0_energy">     -0.23686986 </i>
  </energy>
  <time name="totalsc">  372.91  373.91</time>
 </calculation>
 <calculation>
  <scstep>
   <time name="dav">   21.50   21.55</time>
   <time name="total">   22.01   22.07</time>
   <energy>
    <i name="alphaZ">     85.80926638 </i>
    <i name="ewald">  42829.00395651 </i>
    <i name="hartreedc"> -48845.69701295 </i>
    <i name="XCdc">   -232.95111218 </i>
    <i name="pawpsdc">   4038.81013398 </i>
    <i name="pawaedc">  -3454.52090515 </i>
    <i name="eentropy">     -0.20512417 </i>
    <i name="bandstr">  -1373.06421712 </i>
    <i name="atom">   6761.44252427 </i>
    <i name="e_fr_energy">   -191.37249042 </i>
    <i name="e_wo_entrp">   -191.16736626 </i>
    <i name="e_0_energy">   -191.26992834 </i>
   </energy>
  </scstep>
  <scstep>
   <time name="dav">   32.00   32.08</time>
   <time name="total">   32.52   32.61</time>
   <energy>
    <i name="e_fr_energy">   -191.20626950 </i>
    <i name="e_wo_entrp">   -191.00108424 </i>
    <i name="e_0_energy">   -191.10367687 </i>
   </energy>
  </scstep>
  <scstep>
   <time name="dav">   29.88   29.95</time>
   <time name="total">   30.39   30.47</time>
   <energy>
    <i name="e_fr_energy">   -191.31601053 </i>
    <i name="e_wo_entrp">   -191.08757303 </i>
    <i name="e_0_energy">   -191.20179178 </i>
   </energy>
  </scstep>
  <scstep>
   <time name="dav">   30.34   30.41</time>
   <time name="total">   30.86   30.94</time>
   <energy>
    <i name="e_fr_energy">   -190.94196615 </i>
    <i name="e_wo_entrp">   -190.73330244 </i>
    <i name="e_0_energy">   -190.83763430 </i>
   </energy>
  </scstep>
  <scstep>
   <time name="dav">   30.60   30.67</time>
   <time name="total">   31.12   31.20</time>
   <energy>
    <i name="e_fr_energy">   -190.89783051 </i>
    <i name="e_wo_entrp">   -190.69080979 </i>
    <i name="e_0_energy">   -190.79432015 </i>
   </energy>
  </scstep>
  <scstep>
   <time name="dav">   29.97   30.04</time>
   <time name="total">   30.49   30.57</time>
   <energy>
    <i name="e_fr_energy">   -190.80636480 </i>
    <i name="e_wo_entrp">   -190.59557898 </i>
    <i name="e_0_energy">   -190.70097189 </i>
   </energy>
  </scstep>
  <scstep>
   <time name="dav">   30.95   31.02</time>
   <time name="total">   31.46   31.55</time>
   <energy>
    <i name="e_fr_energy">   -190.79232532 </i>
    <i name="e_wo_entrp">   -190.58235972 </i>
    <i name="e_0_energy">   -190.68734252 </i>
   </energy>
  </scstep>
  <scstep>
   <time name="dav">   28.27   28.34</time>
   <time name="total">   28.79   28.87</time>
   <energy>
    <i name="e_fr_energy">   -190.79160490 </i>
    <i name="e_wo_entrp">   -190.58171003 </i>
    <i name="e_0_energy">   -190.68665747 </i>
   </energy>
  </scstep>
  <scstep>
   <time name="dav">   28.05   28.11</time>
   <time name="total">   28.56   28.63</time>
   <energy>
    <i name="e_fr_energy">   -190.78942564 </i>
    <i name="e_wo_entrp">   -190.57960725 </i>
    <i name="e_0_energy">   -190.68451645 </i>
   </energy>
  </scstep>
  <scstep>
   <time name="dav">   28.17   28.24</time>
   <time name="total">   28.69   28.77</time>
   <energy>
    <i name="e_fr_energy">   -190.78969230 </i>
    <i name="e_wo_entrp">   -190.57981984 </i>
    <i name="e_0_energy">   -190.68475607 </i>
   </energy>
  </scstep>
  <scstep>
   <time name="dav">   24.79   24.85</time>
   <time name="total">   25.31   25.37</time>
   <energy>
    <i name="e_fr_energy">   -190.78957116 </i>
    <i name="e_wo_entrp">   -190.57971026 </i>
    <i name="e_0_energy">   -190.68464071 </i>
   </energy>
  </scstep>
  <scstep>
   <time name="dav">   19.32   19.37</time>
   <time name="total">   19.36   19.41</time>
   <energy>
    <i name="alphaZ">     85.80926638 </i>
    <i name="ewald">  42829.00395651 </i>
    <i name="hartreedc"> -48817.11928493 </i>
    <i name="XCdc">   -234.28108076 </i>
    <i name="pawpsdc">   4064.19987355 </i>
    <i name="pawaedc">  -3480.09671743 </i>
    <i name="eentropy">     -0.20990387 </i>
    <i name="bandstr">  -1399.53820194 </i>
    <i name="atom">   6761.44252427 </i>
    <i name="e_fr_energy">   -190.78956822 </i>
    <i name="e_wo_entrp">   -190.57966435 </i>
    <i name="e_0_energy">   -190.68461628 </i>
   </energy>
  </scstep>
  <structure>
   <crystal>
    <varray name="basis" >
     <v>       8.48572864       4.90128396       0.00000000 </v>
     <v>      -8.48477262       4.89964283       0.00000000 </v>
     <v>       0.00000000       0.00000000      30.00000000 </v>
    </varray>
    <i name="volume">   2494.89958343 </i>
    <varray name="rec_basis" >
     <v>       0.05891591       0.10202542       0.00000000 </v>
     <v>      -0.05893565       0.10203692       0.00000000 </v>
     <v>       0.00000000       0.00000000       0.03333333 </v>
    </varray>
   </crystal>
   <varray name="positions" >
    <v>       0.32871466       0.33107083       0.00030071 </v>
    <v>       0.33251379       0.66662324      -0.00001821 </v>
    <v>       0.66884678       0.33076209       0.00009027 </v>
    <v>       0.67573255       0.00329484      -0.00022013 </v>
    <v>       0.99560433       0.32506303      -0.00003859 </v>
    <v>      -0.00623964       0.00155648      -0.00002011 </v>
    <v>       0.00067810       0.66775117      -0.00006247 </v>
    <v>       0.33256770      -0.00090862      -0.00024060 </v>
    <v>       0.67119691       0.67416190       0.00031785 </v>
    <v>       0.11686966       0.22512245       0.95004331 </v>
    <v>       0.22533936       0.11582926       0.04930939 </v>
    <v>       0.11592008       0.55855197       0.95102417 </v>
    <v>       0.22746889       0.44685034       0.04806928 </v>
    <v>       0.11131595       0.88850687       0.94951434 </v>
    <v>       0.22454951       0.77514409       0.04963392 </v>
    <v>       0.44647709       0.22651808       0.95203912 </v>
    <v>       0.55703608       0.11581215       0.04920058 </v>
    <v>       0.44033755       0.55344896       0.95225482 </v>
    <v>       0.55360456       0.44038466       0.04721269 </v>
    <v>       0.44125541       0.88397293       0.95094592 </v>
    <v>       0.55033357       0.77441631       0.04944651 </v>
    <v>       0.77460891       0.22508555       0.94987441 </v>
    <v>       0.88882525       0.11107840       0.05191578 </v>
    <v>       0.77506951       0.55075690       0.95083699 </v>
    <v>       0.88386386       0.44273044       0.04933304 </v>
    <v>       0.77704598       0.88772133       0.94823084 </v>
    <v>       0.88867806       0.77690879       0.05100607 </v>
   </varray>
  </structure>
  <varray name="forces" >
   <v>      -0.09113153      -0.24118834       0.03764153 </v>
   <v>      -0.18349906      -0.04971129      -0.06007436 </v>
   <v>       0.30652645      -0.02159902       0.07432873 </v>
   <v>       0.46687059       0.48132978       0.03097560 </v>
   <v>       0.21783777      -0.52550646      -0.02187546 </v>
   <v>      -0.47420014      -0.33088797       0.00080774 </v>
   <v>      -0.09401223       0.17752545      -0.05074433 </v>
   <v>       0.03924484      -0.20259194      -0.01253512 </v>
   <v>      -0.14798485       0.58248251       0.02191077 </v>
   <v>       0.00332481      -0.00726521      -0.45946885 </v>
   <v>      -0.04849274      -0.03455345       0.26801090 </v>
   <v>       0.06459438      -0.06392382      -0.18189474 </v>
   <v>      -0.02326075      -0.04559609       0.30590560 </v>
   <v>      -0.11228475       0.01140466      -0.29740277 </v>
   <v>       0.04107842      -0.00756406       0.39834659 </v>
   <v>      -0.01702985       0.02834409      -0.23871273 </v>
   <v>       0.05578914       0.00716480       0.20958075 </v>
   <v>       0.02665014       0.02416152      -0.13875451 </v>
   <v>      -0.02999040       0.03974235       0.02967593 </v>
   <v>       0.06627389       0.06395857      -0.20881182 </v>
   <v>      -0.04212613       0.05110443       0.30433853 </v>
   <v>       0.02055494      -0.01142993      -0.56288357 </v>
   <v>      -0.00132732       0.00746609       0.71430029 </v>
   <v>      -0.02849802      -0.03523059      -0.20358543 </v>
   <v>       0.03660875      -0.01436694       0.26385498 </v>
   <v>      -0.03288228       0.03379398      -0.68431331 </v>
   <v>      -0.01863408       0.08293687       0.46137905 </v>
  </varray>
  <varray name="stress" >
   <v>      -5.70635117       0.08029407      -0.01541120 </v>
   <v>       0.08029414      -5.65710949       0.04351001 </v>
   <v>      -0.01541123       0.04351004       4.48869109 </v>
  </varray>
  <energy>
   <i name="e_fr_energy">   -190.78956822 </i>
   <i name="e_wo_entrp">   -190.68461628 </i>
   <i name="e_0_energy">     -0.20990387 </i>
  </energy>
  <time name="totalsc">  382.01  383.03</time>
 </calculation>
 <calculation>
  <scstep>
   <time name="dav">   21.48   21.53</time>
   <time name="total">   21.99   22.04</time>
   <energy>
    <i name="alphaZ">     90.06198093 </i>
    <i name="ewald">  44613.93249645 </i>
    <i name="hartreedc"> -50656.21356634 </i>
    <i name="XCdc">   -231.90137194 </i>
    <i name="pawpsdc">   4064.14330829 </i>
    <i name="pawaedc">  -3480.03646371 </i>
    <i name="eentropy">     -0.20322892 </i>
    <i name="bandstr">  -1353.32066798 </i>
    <i name="atom">   6761.44252427 </i>
    <i name="e_fr_energy">   -192.09498895 </i>
    <i name="e_wo_entrp">   -191.89176003 </i>
    <i name="e_0_energy">   -191.99337449 </i>
   </energy>
  </scstep>
  <scstep>
   <time name="dav">   28.36   28.43</time>
   <time name="total">   28.87   28.94</time>
   <energy>
    <i name="e_fr_energy">   -191.86225015 </i>
    <i name="e_wo_entrp">   -191.65322928 </i>
    <i name="e_0_energy">   -191.75773972 </i>
   </energy>
  </scstep>
  <scstep>
   <time name="dav">   27.76   27.82</time>
   <time name="total">   28.26   28.33</time>
   <energy>
    <i name="e_fr_energy">   -192.06212659 </i>
    <i name="e_wo_entrp">   -191.84240839 </i>
    <i name="e_0_energy">   -191.95226749 </i>
   </energy>
  </scstep>
  <scstep>
   <time name="dav">   28.35   28.42</time>
   <time name="total">   28.86   28.94</time>
   <energy>
    <i name="e_fr_energy">   -191.74742541 </i>
    <i name="e_wo_entrp">   -191.53221282 </i>
    <i name="e_0_energy">   -191.63981911 </i>
   </energy>
  </scstep>
  <scstep>
   <time name="dav">   30.15   30.22</time>
   <time name="total">   30.65   30.73</time>
   <energy>
    <i name="e_fr_energy">   -191.57257170 </i>
    <i name="e_wo_entrp">   -191.37274133 </i>
    <i name="e_0_energy">   -191.47265652 </i>
   </energy>
  </scstep>
  <scstep>
   <time name="dav">   30.01   30.08</time>
   <time name="total">   30.51   30.60</time>
   <energy>
    <i name="e_fr_energy">   -191.44738333 </i>
    <i name="e_wo_entrp">   -191.23458882 </i>
    <i name="e_0_energy">   -191.34098608 </i>
   </energy>
  </scstep>
  <scstep>
   <time name="dav">   29.99   30.07</time>
   <time name="total">   30.49   30.58</time>
   <energy>
    <i name="e_fr_energy">   -191.43313651 </i>
    <i name="e_wo_entrp">   -191.22223822 </i>
    <i name="e_0_energy">   -191.32768737 </i>
   </energy>
  </scstep>
  <scstep>
   <time name="dav">   26.85   26.92</time>
   <time name="total">   27.36   27.44</time>
   <energy>
    <i name="e_fr_energy">   -191.42898135 </i>
    <i name="e_wo_entrp">   -191.21830426 </i>
    <i name="e_0_energy">   -191.32364281 </i>
   </energy>
  </scstep>
  <scstep>
   <time name="dav">   30.92   31.00</time>
   <time name="total">   31.42   31.51</time>
   <energy>
    <i name="e_fr_energy">   -191.43038783 </i>
    <i name="e_wo_entrp">   -191.21990446 </i>
    <i name="e_0_energy">   -191.32514615 </i>
   </energy>
  </scstep>
  <scstep>
   <time name="dav">   27.81   27.88</time>
   <time name="total">   28.32   28.40</time>
   <energy>
    <i name="e_fr_energy">   -191.42889220 </i>
    <i name="e_wo_entrp">   -191.21800061 </i>
    <i name="e_0_energy">   -191.32344640 </i>
   </energy>
  </scstep>
  <scstep>
   <time name="dav">   24.53   24.59</time>
   <time name="total">   24.56   24.63</time>
   <energy>
    <i name="alphaZ">     90.06198093 </i>
    <i name="ewald">  44613.93249645 </i>
    <i name="hartreedc"> -50623.10908673 </i>
    <i name="XCdc">   -233.38639755 </i>
    <i name="pawpsdc">   4085.11221579 </i>
    <i name="pawaedc">  -3501.09912348 </i>
    <i name="eentropy">     -0.21083537 </i>
    <i name="bandstr">  -1384.17273561 </i>
    <i name="atom">   6761.44252427 </i>
    <i name="e_fr_energy">   -191.42896130 </i>
    <i name="e_wo_entrp">   -191.21812593 </i>
    <i name="e_0_energy">   -191.32354362 </i>
   </energy>
  </scstep>
  <structure>
   <crystal>
    <varray name="basis" >
     <v>       8.28364380       4.78892106       0.00000000 </v>
     <v>      -8.27825047       4.77959600       0.00000000 </v>
     <v>       0.00000000       0.00000000      30.00000000 </v>
    </varray>
    <i name="volume">   2377.09076272 </i>
    <varray name="rec_basis" >
     <v>       0.06032074       0.10447540       0.00000000 </v>
     <v>      -0.06043843       0.10454347       0.00000000 </v>
     <v>       0.00000000       0.00000000       0.03333333 </v>
    </varray>
   </crystal>
   <varray name="positions" >
    <v>       0.32509109       0.32871249       0.00046533 </v>
    <v>       0.33064603       0.66739580      -0.00027267 </v>
    <v>       0.67079981       0.32840460       0.00040296 </v>
    <v>       0.68498044       0.00585937      -0.00008230 </v>
    <v>       0.99062217       0.31704213      -0.00012210 </v>
    <v>      -0.01372234       0.00079117      -0.00001375 </v>
    <v>       0.00217245       0.67062863      -0.00029465 </v>
    <v>       0.33026911      -0.00377979      -0.00029598 </v>
    <v>       0.67745344       0.68240764       0.00041967 </v>
    <v>       0.11732166       0.22529406       0.94763939 </v>
    <v>       0.22474240       0.11623875       0.05092443 </v>
    <v>       0.11612258       0.55749123       0.94977324 </v>
    <v>       0.22717920       0.44669684       0.04976063 </v>
    <v>       0.11058769       0.88946512       0.94774141 </v>
    <v>       0.22505100       0.77453058       0.05178246 </v>
    <v>       0.44702950       0.22762777       0.95059157 </v>
    <v>       0.55788910       0.11600509       0.05059036 </v>
    <v>       0.44022779       0.55321984       0.95120138 </v>
    <v>       0.55355279       0.44044621       0.04779360 </v>
    <v>       0.44232131       0.88375275       0.94958141 </v>
    <v>       0.55009959       0.77522158       0.05122078 </v>
    <v>       0.77441582       0.22507287       0.94706159 </v>
    <v>       0.88886982       0.11117315       0.05539988 </v>
    <v>       0.77412795       0.54996546       0.94947511 </v>
    <v>       0.88342930       0.44189258       0.05094356 </v>
    <v>       0.77729713       0.88848501       0.94486158 </v>
    <v>       0.88963764       0.77817354       0.05345100 </v>
   </varray>
  </structure>
  <varray name="forces" >
   <v>      -0.06828459      -0.21257617       0.00300960 </v>
   <v>      -0.23418642      -0.11831700       0.01769455 </v>
   <v>       0.30261776      -0.07225407      -0.02899039 </v>
   <v>       0.04235961       0.09287947      -0.02545332 </v>
   <v>       0.06934815      -0.14198529       0.02747098 </v>
   <v>       0.05878781      -0.10302936       0.05928847 </v>
   <v>      -0.15697853       0.27896154       0.02810151 </v>
   <v>       0.00039585      -0.23064155      -0.01026391 </v>
   <v>      -0.05884834       0.36657657      -0.05206389 </v>
   <v>      -0.03875878      -0.16968243      -0.08668217 </v>
   <v>      -0.03307607      -0.17731651      -0.01669111 </v>
   <v>       0.02519269      -0.22378257       0.05541406 </v>
   <v>      -0.08700270      -0.13077289      -0.00872883 </v>
   <v>      -0.19893765       0.02527834      -0.07638126 </v>
   <v>      -0.00613423      -0.03650109       0.13930665 </v>
   <v>       0.02371590      -0.03552456       0.03760780 </v>
   <v>       0.19082956      -0.08953005      -0.06137515 </v>
   <v>       0.03894435       0.11249357       0.13207814 </v>
   <v>      -0.06735314       0.17066659      -0.19864215 </v>
   <v>       0.06867432       0.21397278       0.08933829 </v>
   <v>      -0.00352768       0.18449844      -0.03279611 </v>
   <v>       0.11914789      -0.04896837      -0.13883700 </v>
   <v>       0.05648194       0.02758620       0.25026930 </v>
   <v>      -0.06403416       0.05236555       0.06558896 </v>
   <v>       0.11682671       0.08442220      -0.07481618 </v>
   <v>      -0.07171326       0.05309950      -0.26023611 </v>
   <v>      -0.02448697       0.12808116       0.16678928 </v>
  </varray>
  <varray name="stress" >
   <v>      -0.05706777       0.20552050       0.27065185 </v>
   <v>       0.20552051       0.30972098       0.19568592 </v>
   <v>       0.27065195       0.19568589      -0.70948139 </v>
  </varray>
  <energy>
   <i name="e_fr_energy">   -191.42896130 </i>
   <i name="e_wo_entrp">   -191.32354362 </i>
   <i name="e_0_energy">     -0.21083537 </i>
  </energy>
  <time name="totalsc">  353.11  354.05</time>
 </calculation>
 <calculation>
  <scstep>
   <time name="dav">   21.53   21.58</time>
   <time name="total">   22.04   22.09</time>
   <energy>
    <i name="alphaZ">     89.99227435 </i>
    <i name="ewald">  44567.85125988 </i>
    <i name="hartreedc"> -50576.91878734 </i>
    <i name="XCdc">   -233.49581874 </i>
    <i name="pawpsdc">   4085.30914340 </i>
    <i name="pawaedc">  -3501.29335288 </i>
    <i name="eentropy">     -0.21392351 </i>
    <i name="bandstr">  -1384.15128961 </i>
    <i name="atom">   6761.44252427 </i>
    <i name="e_fr_energy">   -191.47797017 </i>
    <i name="e_wo_entrp">   -191.26404666 </i>
    <i name="e_0_energy">   -191.37100842 </i>
   </energy>
  </scstep>
  <scstep>
   <time name="dav">   32.21   32.29</time>
   <time name="total">   32.71   32.80</time>
   <energy>
    <i name="e_fr_energy">   -191.53082090 </i>
    <i name="e_wo_entrp">   -191.30692632 </i>
    <i name="e_0_energy">   -191.41887361 </i>
   </energy>
  </scstep>
  <scstep>
   <time name="dav">   30.34   30.41</time>
   <time name="total">   30.84   30.93</time>
   <energy>
    <i name="e_fr_energy">   -191.48904286 </i>
    <i name="e_wo_entrp">   -191.27464171 </i>
    <i name="e_0_energy">   -191.38184228 </i>
   </energy>
  </scstep>
  <scstep>
   <time name="dav">   28.19   28.25</time>
   <time name="total">   28.69   28.77</time>
   <energy>
    <i name="e_fr_energy">   -191.49062463 </i>
    <i name="e_wo_entrp">   -191.27472293 </i>
    <i name="e_0_energy">   -191.38267378 </i>
   </energy>
  </scstep>
  <scstep>
   <time name="dav">   25.88   25.94</time>
   <time name="total">   26.39   26.46</time>
   <energy>
    <i name="e_fr_energy">   -191.48717622 </i>
    <i name="e_wo_entrp">   -191.27162804 </i>
    <i name="e_0_energy">   -191.37940213 </i>
   </energy>
  </scstep>
  <scstep>
   <time name="dav">   26.24   26.31</time>
   <time name="total">   26.74   26.81</time>
   <energy>
    <i name="e_fr_energy">   -191.48715923 </i>
    <i name="e_wo_entrp">   -191.27144473 </i>
    <i name="e_0_energy">   -191.37930198 </i>
   </energy>
  </scstep>
  <scstep>
   <time name="dav">   25.73   25.79</time>
   <time name="total">   26.23   26.31</time>
   <energy>
    <i name="e_fr_energy">   -191.48686464 </i>
    <i name="e_wo_entrp">   -191.27140259 </i>
    <i name="e_0_energy">   -191.37913362 </i>
   </energy>
  </scstep>
  <scstep>
   <time name="dav">   21.04   21.09</time>
   <time name="total">   21.07   21.13</time>
   <energy>
    <i name="alphaZ">     89.99227435 </i>
    <i name="ewald">  44567.85125988 </i>
    <i name="hartreedc"> -50578.36437983 </i>
    <i name="XCdc">   -233.45974401 </i>
    <i name="pawpsdc">   4082.37000190 </i>
    <i name="pawaedc">  -3498.30913397 </i>
    <i name="eentropy">     -0.21553316 </i>
    <i name="bandstr">  -1382.79413231 </i>
    <i name="atom">   6761.44252427 </i>
    <i name="e_fr_energy">   -191.48686289 </i>
    <i name="e_wo_entrp">   -191.27132973 </i>
    <i name="e_0_energy">   -191.37909631 </i>
   </energy>
  </scstep>
  <structure>
   <crystal>
    <varray name="basis" >
     <v>       8.28544361       4.79755582       0.00000000 </v>
     <v>      -8.27488737       4.77928543       0.00000000 </v>
     <v>       0.00000000       0.00000000      30.00000000 </v>
    </varray>
    <i name="volume">   2378.93201918 </i>
    <varray name="rec_basis" >
     <v>       0.06027014       0.10435213       0.00000000 </v>
     <v>      -0.06050054       0.10448525       0.00000000 </v>
     <v>       0.00000000       0.00000000       0.03333333 </v>
    </varray>
   </crystal>
   <varray name="positions" >
    <v>       0.32384377       0.32785470       0.00046945 </v>
    <v>       0.32938394       0.66747804      -0.00024336 </v>
    <v>       0.67130499       0.32717522       0.00035538 </v>
    <v>       0.68553119       0.00619194      -0.00012354 </v>
    <v>       0.99013169       0.31616176      -0.00007790 </v>
    <v>      -0.01403844       0.00010791       0.00008092 </v>
    <v>       0.00310950       0.67246944      -0.00024877 </v>
    <v>       0.32912482      -0.00492481      -0.00031214 </v>
    <v>       0.67909350       0.68438188       0.00033606 </v>
    <v>       0.11635689       0.22455476       0.94751194 </v>
    <v>       0.22376090       0.11544326       0.05088994 </v>
    <v>       0.11507276       0.55630081       0.94986811 </v>
    <v>       0.22627293       0.44629362       0.04973875 </v>
    <v>       0.11014224       0.89016411       0.94762796 </v>
    <v>       0.22484772       0.77436851       0.05199502 </v>
    <v>       0.44691714       0.22737500       0.95065868 </v>
    <v>       0.55798813       0.11500172       0.05048535 </v>
    <v>       0.44090562       0.55367244       0.95141786 </v>
    <v>       0.55421366       0.44149780       0.04747275 </v>
    <v>       0.44358743       0.88462816       0.94973093 </v>
    <v>       0.55101556       0.77615328       0.05115989 </v>
    <v>       0.77451636       0.22448176       0.94685242 </v>
    <v>       0.88917114       0.11114741       0.05578422 </v>
    <v>       0.77420957       0.55041791       0.94958673 </v>
    <v>       0.88419280       0.44198155       0.05081620 </v>
    <v>       0.77735451       0.88895543       0.94446087 </v>
    <v>       0.89020413       0.77888085       0.05370617 </v>
   </varray>
  </structure>
  <varray name="forces" >
   <v>      -0.09103433      -0.23784627      -0.01186405 </v>
   <v>      -0.21092799      -0.13761552      -0.01917375 </v>
   <v>       0.32261878      -0.11381112       0.00414032 </v>
   <v>       0.09159762       0.20350943       0.03737749 </v>
   <v>       0.13345266      -0.19888611       0.03809454 </v>
   <v>       0.02194710      -0.12234620       0.01554218 </v>
   <v>      -0.20276447       0.32420912      -0.00064465 </v>
   <v>      -0.02514896      -0.23819692      -0.02846634 </v>
   <v>      -0.05546319       0.38160117      -0.03104657 </v>
   <v>      -0.01858226      -0.10281053      -0.05315577 </v>
   <v>      -0.00247098      -0.09397842       0.01869696 </v>
   <v>      -0.01270852      -0.13599626       0.08223075 </v>
   <v>      -0.05899156      -0.07618814      -0.01372658 </v>
   <v>      -0.10857984       0.03156523      -0.10813308 </v>
   <v>      -0.00929753      -0.02316424       0.14343369 </v>
   <v>       0.01942024      -0.03074586       0.06261207 </v>
   <v>       0.10547138      -0.08190437      -0.05839128 </v>
   <v>       0.01511753       0.07926091       0.17203579 </v>
   <v>      -0.03912213       0.11193406      -0.24808683 </v>
   <v>       0.03427704       0.10724901       0.09375173 </v>
   <v>      -0.00444777       0.10513982      -0.05542492 </v>
   <v>       0.07139112      -0.01071327      -0.13075230 </v>
   <v>       0.03684954       0.00175438       0.11616053 </v>
   <v>      -0.02804580       0.06141301       0.08603409 </v>
   <v>       0.06220709       0.06708581      -0.10541913 </v>
   <v>      -0.04496715       0.06603333      -0.16609641 </v>
   <v>      -0.00179763       0.06344794       0.16027152 </v>
  </varray>
  <varray name="stress" >
   <v>      -0.16138759      -0.04520500       0.17521292 </v>
   <v>      -0.04520508      -0.07514063      -0.00196801 </v>
   <v>       0.17521306      -0.00196776      -1.26758195 </v>
  </varray>
  <energy>
   <i name="e_fr_energy">   -191.48686289 </i>
   <i name="e_wo_entrp">   -191.37909631 </i>
   <i name="e_0_energy">     -0.21553316 </i>
  </energy>
  <time name="totalsc">  256.71  257.39</time>
 </calculation>
 <calculation>
  <scstep>
   <time name="dav">   21.53   21.59</time>
   <time name="total">   22.04   22.10</time>
   <energy>
    <i name="alphaZ">     90.08197705 </i>
    <i name="ewald">  44609.07862878 </i>
    <i name="hartreedc"> -50620.51308204 </i>
    <i name="XCdc">   -233.39977859 </i>
    <i name="pawpsdc">   4082.27574981 </i>
    <i name="pawaedc">  -3498.21374203 </i>
    <i name="eentropy">     -0.21723843 </i>
    <i name="bandstr">  -1382.07500783 </i>
    <i name="atom">   6761.44252427 </i>
    <i name="e_fr_energy">   -191.53996901 </i>
    <i name="e_wo_entrp">   -191.32273058 </i>
    <i name="e_0_energy">   -191.43134979 </i>
   </energy>
  </scstep>
  <scstep>
   <time name="dav">   32.88   32.96</time>
   <time name="total">   33.38   33.47</time>
   <energy>
    <i name="e_fr_energy">   -191.57502904 </i>
    <i name="e_wo_entrp">   -191.34637780 </i>
    <i name="e_0_energy">   -191.46070342 </i>
   </energy>
  </scstep>
  <scstep>
   <time name="dav">   30.33   30.40</time>
   <time name="total">   30.83   30.92</time>
   <energy>
    <i name="e_fr_energy">   -191.54689073 </i>
    <i name="e_wo_entrp">   -191.32965226 </i>
    <i name="e_0_energy">   -191.43827149 </i>
   </energy>
  </scstep>
  <scstep>
   <time name="dav">   27.53   27.60</time>
   <time name="total">   28.03   28.11</time>
   <energy>
    <i name="e_fr_energy">   -191.54655600 </i>
    <i name="e_wo_entrp">   -191.32707267 </i>
    <i name="e_0_energy">   -191.43681434 </i>
   </energy>
  </scstep>
  <scstep>
   <time name="dav">   26.79   26.85</time>
   <time name="total">   27.29   27.37</time>
   <energy>
    <i name="e_fr_energy">   -191.54510746 </i>
    <i name="e_wo_entrp">   -191.32641882 </i>
    <i name="e_0_energy">   -191.43576314 </i>
   </energy>
  </scstep>
  <scstep>
   <time name="dav">   25.13   25.19</time>
   <time name="total">   25.63   25.70</time>
   <energy>
    <i name="e_fr_energy">   -191.54447343 </i>
    <i name="e_wo_entrp">   -191.32509961 </i>
    <i name="e_0_energy">   -191.43478652 </i>
   </energy>
  </scstep>
  <scstep>
   <time name="dav">   26.40   26.47</time>
   <time name="total">   26.91   26.98</time>
   <energy>
    <i name="e_fr_energy">   -191.54430539 </i>
    <i name="e_wo_entrp">   -191.32491174 </i>
    <i name="e_0_energy">   -191.43460856 </i>
   </energy>
  </scstep>
  <scstep>
   <time name="dav">   22.03   22.08</time>
   <time name="total">   22.06   22.12</time>
   <energy>
    <i name="alphaZ">     90.08197705 </i>
    <i name="ewald">  44609.07862878 </i>
    <i name="hartreedc"> -50620.32968824 </i>
    <i name="XCdc">   -233.41632721 </i>
    <i name="pawpsdc">   4084.26544796 </i>
    <i name="pawaedc">  -3500.22864499 </i>
    <i name="eentropy">     -0.21929956 </i>
    <i name="bandstr">  -1382.21893614 </i>
    <i name="atom">   6761.44252427 </i>
    <i name="e_fr_energy">   -191.54431807 </i>
    <i name="e_wo_entrp">   -191.32501851 </i>
[...]
      <set comment="kpoint 31">
       <r>  -17.5670    1.0000 </r>
       <r>  -17.2356    1.0000 </r>
       <r>  -16.9204    1.0000 </r>
       <r>  -16.7223    1.0000 </r>
       <r>  -16.5363    1.0000 </r>
       <r>  -16.4364    1.0000 </r>
       <r>  -16.3354    1.0000 </r>
       <r>  -16.1815    1.0000 </r>
       <r>  -16.0471    1.0000 </r>
       <r>  -16.0085    1.0000 </r>
       <r>  -15.9699    1.0000 </r>
       <r>  -15.8849    1.0000 </r>
       <r>  -15.7775    1.0000 </r>
       <r>  -15.6883    1.0000 </r>
       <r>  -15.6259    1.0000 </r>
       <r>  -15.4549    1.0000 </r>
       <r>  -15.4202    1.0000 </r>
       <r>  -15.2270    1.0000 </r>
       <r>   -9.7590    1.0000 </r>
       <r>   -9.4687    1.0000 </r>
       <r>   -9.3340    1.0000 </r>
       <r>   -9.0832    1.0000 </r>
       <r>   -8.8593    1.0000 </r>
       <r>   -8.7441    1.0000 </r>
       <r>   -8.5356    1.0000 </r>
       <r>   -8.4926    1.0000 </r>
       <r>   -8.4185    1.0000 </r>
       <r>   -8.3266    1.0000 </r>
       <r>   -8.2655    1.0000 </r>
       <r>   -8.1964    1.0000 </r>
       <r>   -8.1410    1.0000 </r>
       <r>   -8.0686    1.0000 </r>
       <r>   -8.0346    1.0000 </r>
       <r>   -7.8656    1.0000 </r>
       <r>   -7.8288    1.0000 </r>
       <r>   -7.7603    1.0000 </r>
       <r>   -7.6028    1.0000 </r>
       <r>   -7.4240    1.0000 </r>
       <r>   -7.3156    1.0000 </r>
       <r>   -7.1908    1.0000 </r>
       <r>   -7.1683    1.0000 </r>
       <r>   -7.1051    1.0000 </r>
       <r>   -7.0015    1.0000 </r>
       <r>   -6.9248    1.0000 </r>
       <r>   -6.8372    1.0000 </r>
       <r>   -6.7843    1.0000 </r>
       <r>   -6.7311    1.0000 </r>
       <r>   -6.6000    1.0000 </r>
       <r>   -6.5377    1.0000 </r>
       <r>   -6.4788    1.0000 </r>
       <r>   -6.4195    1.0000 </r>
       <r>   -6.3685    1.0000 </r>
       <r>   -6.3007    1.0000 </r>
       <r>   -6.2600    1.0000 </r>
       <r>   -6.1428    1.0000 </r>
       <r>   -6.0612    1.0000 </r>
       <r>   -5.9626    1.0000 </r>
       <r>   -5.9096    1.0000 </r>
       <r>   -5.8636    1.0000 </r>
       <r>   -5.8052    1.0000 </r>
       <r>   -5.6828    1.0000 </r>
       <r>   -5.6304    1.0000 </r>
       <r>   -5.4776    1.0000 </r>
       <r>   -5.3526    1.0000 </r>
       <r>   -5.2735    1.0000 </r>
       <r>   -5.1025    1.0000 </r>
       <r>   -5.0662    1.0000 </r>
       <r>   -4.9012    1.0000 </r>
       <r>   -4.8136    1.0000 </r>
       <r>   -4.6788    1.0000 </r>
       <r>   -4.6094    1.0000 </r>
       <r>   -4.5431    1.0000 </r>
       <r>   -4.4041    1.0000 </r>
       <r>   -4.2878    1.0000 </r>
       <r>   -4.1230    1.0000 </r>
       <r>   -4.0349    1.0000 </r>
       <r>   -3.8139    0.9995 </r>
       <r>   -3.7262    0.9964 </r>
       <r>   -3.4990    0.8599 </r>
       <r>   -3.4057    0.6627 </r>
       <r>   -3.0145    0.0095 </r>
       <r>   -2.8214    0.0001 </r>
       <r>   -2.7374    0.0000 </r>
       <r>   -2.6083    0.0000 </r>
       <r>   -2.4901    0.0000 </r>
       <r>   -2.4288    0.0000 </r>
       <r>   -2.2883    0.0000 </r>
       <r>   -2.1698    0.0000 </r>
       <r>   -2.1232    0.0000 </r>
       <r>   -1.8762    0.0000 </r>
       <r>   -1.7346    0.0000 </r>
       <r>   -1.5351    0.0000 </r>
       <r>   -1.4638    0.0000 </r>
       <r>   -1.3676    0.0000 </r>
       <r>   -1.2540    0.0000 </r>
       <r>   -1.1940    0.0000 </r>
       <r>   -1.0874    0.0000 </r>
       <r>   -1.0283    0.0000 </r>
       <r>   -0.9345    0.0000 </r>
       <r>   -0.9205    0.0000 </r>
       <r>   -0.8603    0.0000 </r>
       <r>   -0.7422    0.0000 </r>
       <r>   -0.7184    0.0000 </r>
       <r>   -0.6158    0.0000 </r>
       <r>   -0.4557    0.0000 </r>
       <r>   -0.3552    0.0000 </r>
       <r>   -0.2152    0.0000 </r>
       <r>   -0.1347    0.0000 </r>
       <r>    0.1255    0.0000 </r>
       <r>    0.1693    0.0000 </r>
       <r>    0.3740    0.0000 </r>
       <r>    0.5831    0.0000 </r>
       <r>    0.6512    0.0000 </r>
       <r>    0.9707    0.0000 </r>
       <r>    1.0283    0.0000 </r>
       <r>    1.3631    0.0000 </r>
       <r>    1.3995    0.0000 </r>
       <r>    2.1281    0.0000 </r>
       <r>    2.3025    0.0000 </r>
       <r>    2.3826    0.0000 </r>
      </set>
      <set comment="kpoint 32">
       <r>  -17.5684    1.0000 </r>
       <r>  -17.1691    1.0000 </r>
       <r>  -17.0403    1.0000 </r>
       <r>  -16.7209    1.0000 </r>
       <r>  -16.4795    1.0000 </r>
       <r>  -16.3965    1.0000 </r>
       <r>  -16.3063    1.0000 </r>
       <r>  -16.2042    1.0000 </r>
       <r>  -16.1132    1.0000 </r>
       <r>  -16.0512    1.0000 </r>
       <r>  -15.9458    1.0000 </r>
       <r>  -15.8652    1.0000 </r>
       <r>  -15.7853    1.0000 </r>
       <r>  -15.6747    1.0000 </r>
       <r>  -15.6105    1.0000 </r>
       <r>  -15.4609    1.0000 </r>
       <r>  -15.4180    1.0000 </r>
       <r>  -15.2263    1.0000 </r>
       <r>   -9.6985    1.0000 </r>
       <r>   -9.5915    1.0000 </r>
       <r>   -9.4076    1.0000 </r>
       <r>   -9.0528    1.0000 </r>
       <r>   -8.7045    1.0000 </r>
       <r>   -8.6515    1.0000 </r>
       <r>   -8.5131    1.0000 </r>
       <r>   -8.4847    1.0000 </r>
       <r>   -8.4350    1.0000 </r>
       <r>   -8.3425    1.0000 </r>
       <r>   -8.2683    1.0000 </r>
       <r>   -8.2552    1.0000 </r>
       <r>   -8.1556    1.0000 </r>
       <r>   -8.0951    1.0000 </r>
       <r>   -8.0486    1.0000 </r>
       <r>   -7.9437    1.0000 </r>
       <r>   -7.8125    1.0000 </r>
       <r>   -7.7904    1.0000 </r>
       <r>   -7.5583    1.0000 </r>
       <r>   -7.4190    1.0000 </r>
       <r>   -7.3334    1.0000 </r>
       <r>   -7.2568    1.0000 </r>
       <r>   -7.1886    1.0000 </r>
       <r>   -7.1044    1.0000 </r>
       <r>   -6.9866    1.0000 </r>
       <r>   -6.9014    1.0000 </r>
       <r>   -6.8594    1.0000 </r>
       <r>   -6.7843    1.0000 </r>
       <r>   -6.7071    1.0000 </r>
       <r>   -6.5771    1.0000 </r>
       <r>   -6.5368    1.0000 </r>
       <r>   -6.4632    1.0000 </r>
       <r>   -6.4360    1.0000 </r>
       <r>   -6.3452    1.0000 </r>
       <r>   -6.2910    1.0000 </r>
       <r>   -6.2457    1.0000 </r>
       <r>   -6.1217    1.0000 </r>
       <r>   -6.0344    1.0000 </r>
       <r>   -5.9700    1.0000 </r>
       <r>   -5.8974    1.0000 </r>
       <r>   -5.8524    1.0000 </r>
       <r>   -5.7260    1.0000 </r>
       <r>   -5.7200    1.0000 </r>
       <r>   -5.5402    1.0000 </r>
       <r>   -5.4725    1.0000 </r>
       <r>   -5.4086    1.0000 </r>
       <r>   -5.2639    1.0000 </r>
       <r>   -5.2037    1.0000 </r>
       <r>   -5.0571    1.0000 </r>
       <r>   -4.9493    1.0000 </r>
       <r>   -4.8366    1.0000 </r>
       <r>   -4.6936    1.0000 </r>
       <r>   -4.6269    1.0000 </r>
       <r>   -4.4820    1.0000 </r>
       <r>   -4.4016    1.0000 </r>
       <r>   -4.3549    1.0000 </r>
       <r>   -4.1162    1.0000 </r>
       <r>   -4.0455    1.0000 </r>
       <r>   -3.8246    0.9996 </r>
       <r>   -3.6431    0.9821 </r>
       <r>   -3.4827    0.8326 </r>
       <r>   -3.3473    0.5027 </r>
       <r>   -3.0562    0.0201 </r>
       <r>   -2.8604    0.0003 </r>
       <r>   -2.7697    0.0000 </r>
       <r>   -2.6030    0.0000 </r>
       <r>   -2.5319    0.0000 </r>
       <r>   -2.4562    0.0000 </r>
       <r>   -2.2453    0.0000 </r>
       <r>   -2.1793    0.0000 </r>
       <r>   -2.0914    0.0000 </r>
       <r>   -1.9110    0.0000 </r>
       <r>   -1.7514    0.0000 </r>
       <r>   -1.5551    0.0000 </r>
       <r>   -1.4790    0.0000 </r>
       <r>   -1.3054    0.0000 </r>
       <r>   -1.2372    0.0000 </r>
       <r>   -1.1835    0.0000 </r>
       <r>   -1.0582    0.0000 </r>
       <r>   -1.0095    0.0000 </r>
       <r>   -0.9689    0.0000 </r>
       <r>   -0.9124    0.0000 </r>
       <r>   -0.8361    0.0000 </r>
       <r>   -0.7779    0.0000 </r>
       <r>   -0.6940    0.0000 </r>
       <r>   -0.5590    0.0000 </r>
       <r>   -0.5271    0.0000 </r>
       <r>   -0.3485    0.0000 </r>
       <r>   -0.2553    0.0000 </r>
       <r>   -0.1268    0.0000 </r>
       <r>    0.1251    0.0000 </r>
       <r>    0.2778    0.0000 </r>
       <r>    0.3491    0.0000 </r>
       <r>    0.5396    0.0000 </r>
       <r>    0.6614    0.0000 </r>
       <r>    0.9977    0.0000 </r>
       <r>    1.0230    0.0000 </r>
       <r>    1.2766    0.0000 </r>
       <r>    1.4306    0.0000 </r>
       <r>    2.1039    0.0000 </r>
       <r>    2.2661    0.0000 </r>
       <r>    2.5644    0.0000 </r>
      </set>
      <set comment="kpoint 33">
       <r>  -17.5497    1.0000 </r>
       <r>  -17.2604    1.0000 </r>
       <r>  -16.9201    1.0000 </r>
       <r>  -16.7189    1.0000 </r>
       <r>  -16.5095    1.0000 </r>
       <r>  -16.4602    1.0000 </r>
       <r>  -16.3268    1.0000 </r>
       <r>  -16.1946    1.0000 </r>
       <r>  -16.1322    1.0000 </r>
       <r>  -16.0222    1.0000 </r>
       <r>  -15.9032    1.0000 </r>
       <r>  -15.8286    1.0000 </r>
       <r>  -15.7864    1.0000 </r>
       <r>  -15.6779    1.0000 </r>
       <r>  -15.6184    1.0000 </r>
       <r>  -15.4712    1.0000 </r>
       <r>  -15.4253    1.0000 </r>
       <r>  -15.2287    1.0000 </r>
       <r>   -9.7818    1.0000 </r>
       <r>   -9.4782    1.0000 </r>
       <r>   -9.3751    1.0000 </r>
       <r>   -9.0399    1.0000 </r>
       <r>   -8.7756    1.0000 </r>
       <r>   -8.7329    1.0000 </r>
       <r>   -8.6399    1.0000 </r>
       <r>   -8.5740    1.0000 </r>
       <r>   -8.3890    1.0000 </r>
       <r>   -8.2815    1.0000 </r>
       <r>   -8.2426    1.0000 </r>
       <r>   -8.1552    1.0000 </r>
       <r>   -8.1091    1.0000 </r>
       <r>   -8.0841    1.0000 </r>
       <r>   -7.9920    1.0000 </r>
       <r>   -7.9292    1.0000 </r>
       <r>   -7.8287    1.0000 </r>
       <r>   -7.7724    1.0000 </r>
       <r>   -7.5189    1.0000 </r>
       <r>   -7.4647    1.0000 </r>
       <r>   -7.4056    1.0000 </r>
       <r>   -7.3428    1.0000 </r>
       <r>   -7.1452    1.0000 </r>
       <r>   -7.0603    1.0000 </r>
       <r>   -6.9664    1.0000 </r>
       <r>   -6.8900    1.0000 </r>
       <r>   -6.8718    1.0000 </r>
       <r>   -6.7729    1.0000 </r>
       <r>   -6.6887    1.0000 </r>
       <r>   -6.6155    1.0000 </r>
       <r>   -6.5374    1.0000 </r>
       <r>   -6.4882    1.0000 </r>
       <r>   -6.4271    1.0000 </r>
       <r>   -6.3479    1.0000 </r>
       <r>   -6.2787    1.0000 </r>
       <r>   -6.1437    1.0000 </r>
       <r>   -6.1102    1.0000 </r>
       <r>   -6.0324    1.0000 </r>
       <r>   -5.9803    1.0000 </r>
       <r>   -5.9315    1.0000 </r>
       <r>   -5.8836    1.0000 </r>
       <r>   -5.7848    1.0000 </r>
       <r>   -5.6511    1.0000 </r>
       <r>   -5.5992    1.0000 </r>
       <r>   -5.5269    1.0000 </r>
       <r>   -5.4232    1.0000 </r>
       <r>   -5.2877    1.0000 </r>
       <r>   -5.1865    1.0000 </r>
       <r>   -5.0966    1.0000 </r>
       <r>   -4.8393    1.0000 </r>
       <r>   -4.7696    1.0000 </r>
       <r>   -4.7047    1.0000 </r>
       <r>   -4.6140    1.0000 </r>
       <r>   -4.4410    1.0000 </r>
       <r>   -4.4116    1.0000 </r>
       <r>   -4.3654    1.0000 </r>
       <r>   -4.1513    1.0000 </r>
       <r>   -4.0499    1.0000 </r>
       <r>   -3.9009    1.0000 </r>
       <r>   -3.5766    0.9483 </r>
       <r>   -3.4561    0.7812 </r>
       <r>   -3.3068    0.3900 </r>
       <r>   -3.0890    0.0344 </r>
       <r>   -2.9136    0.0011 </r>
       <r>   -2.8120    0.0001 </r>
       <r>   -2.6040    0.0000 </r>
       <r>   -2.5685    0.0000 </r>
       <r>   -2.4798    0.0000 </r>
       <r>   -2.2008    0.0000 </r>
       <r>   -2.1755    0.0000 </r>
       <r>   -2.0735    0.0000 </r>
       <r>   -1.9083    0.0000 </r>
       <r>   -1.7653    0.0000 </r>
       <r>   -1.5625    0.0000 </r>
       <r>   -1.4738    0.0000 </r>
       <r>   -1.3004    0.0000 </r>
       <r>   -1.1904    0.0000 </r>
       <r>   -1.1626    0.0000 </r>
       <r>   -1.0542    0.0000 </r>
       <r>   -1.0169    0.0000 </r>
       <r>   -0.9502    0.0000 </r>
       <r>   -0.9233    0.0000 </r>
       <r>   -0.8614    0.0000 </r>
       <r>   -0.7395    0.0000 </r>
       <r>   -0.6714    0.0000 </r>
       <r>   -0.5957    0.0000 </r>
       <r>   -0.4940    0.0000 </r>
       <r>   -0.4307    0.0000 </r>
       <r>   -0.3620    0.0000 </r>
       <r>   -0.0375    0.0000 </r>
       <r>    0.0983    0.0000 </r>
       <r>    0.2579    0.0000 </r>
       <r>    0.4705    0.0000 </r>
       <r>    0.5212    0.0000 </r>
       <r>    0.6778    0.0000 </r>
       <r>    1.0129    0.0000 </r>
       <r>    1.0506    0.0000 </r>
       <r>    1.1869    0.0000 </r>
       <r>    1.4823    0.0000 </r>
       <r>    2.1399    0.0000 </r>
       <r>    2.2945    0.0000 </r>
       <r>    2.3975    0.0000 </r>
      </set>
      <set comment="kpoint 34">
       <r>  -17.5320    1.0000 </r>
       <r>  -17.3150    1.0000 </r>
       <r>  -16.7889    1.0000 </r>
       <r>  -16.7185    1.0000 </r>
       <r>  -16.6344    1.0000 </r>
       <r>  -16.4743    1.0000 </r>
       <r>  -16.3214    1.0000 </r>
       <r>  -16.1949    1.0000 </r>
       <r>  -16.1386    1.0000 </r>
       <r>  -16.0043    1.0000 </r>
       <r>  -15.8654    1.0000 </r>
       <r>  -15.8152    1.0000 </r>
       <r>  -15.7733    1.0000 </r>
       <r>  -15.6811    1.0000 </r>
       <r>  -15.6373    1.0000 </r>
       <r>  -15.4763    1.0000 </r>
       <r>  -15.4330    1.0000 </r>
       <r>  -15.2301    1.0000 </r>
       <r>   -9.8221    1.0000 </r>
       <r>   -9.3743    1.0000 </r>
       <r>   -9.3328    1.0000 </r>
       <r>   -9.0580    1.0000 </r>
       <r>   -8.8864    1.0000 </r>
       <r>   -8.8034    1.0000 </r>
       <r>   -8.6744    1.0000 </r>
       <r>   -8.6071    1.0000 </r>
       <r>   -8.3585    1.0000 </r>
       <r>   -8.2824    1.0000 </r>
       <r>   -8.2294    1.0000 </r>
       <r>   -8.1383    1.0000 </r>
       <r>   -8.0815    1.0000 </r>
       <r>   -8.0637    1.0000 </r>
       <r>   -7.9335    1.0000 </r>
       <r>   -7.8749    1.0000 </r>
       <r>   -7.7736    1.0000 </r>
       <r>   -7.7558    1.0000 </r>
       <r>   -7.6302    1.0000 </r>
       <r>   -7.4764    1.0000 </r>
       <r>   -7.4267    1.0000 </r>
       <r>   -7.3540    1.0000 </r>
       <r>   -7.0983    1.0000 </r>
       <r>   -7.0479    1.0000 </r>
       <r>   -6.9840    1.0000 </r>
       <r>   -6.9017    1.0000 </r>
       <r>   -6.8154    1.0000 </r>
       <r>   -6.7593    1.0000 </r>
       <r>   -6.6844    1.0000 </r>
       <r>   -6.6076    1.0000 </r>
       <r>   -6.5633    1.0000 </r>
       <r>   -6.5011    1.0000 </r>
       <r>   -6.4581    1.0000 </r>
       <r>   -6.3307    1.0000 </r>
       <r>   -6.2797    1.0000 </r>
       <r>   -6.1907    1.0000 </r>
       <r>   -6.1356    1.0000 </r>
       <r>   -6.0171    1.0000 </r>
       <r>   -5.9863    1.0000 </r>
       <r>   -5.9329    1.0000 </r>
       <r>   -5.8174    1.0000 </r>
       <r>   -5.7438    1.0000 </r>
       <r>   -5.7293    1.0000 </r>
       <r>   -5.5860    1.0000 </r>
       <r>   -5.5606    1.0000 </r>
       <r>   -5.4976    1.0000 </r>
       <r>   -5.3046    1.0000 </r>
       <r>   -5.1409    1.0000 </r>
       <r>   -5.1100    1.0000 </r>
       <r>   -4.8090    1.0000 </r>
       <r>   -4.7215    1.0000 </r>
       <r>   -4.6929    1.0000 </r>
       <r>   -4.5307    1.0000 </r>
       <r>   -4.4316    1.0000 </r>
       <r>   -4.4241    1.0000 </r>
       <r>   -4.3592    1.0000 </r>
       <r>   -4.2099    1.0000 </r>
       <r>   -4.0537    1.0000 </r>
       <r>   -3.9482    1.0000 </r>
       <r>   -3.5505    0.9256 </r>
       <r>   -3.4339    0.7322 </r>
       <r>   -3.3070    0.3905 </r>
       <r>   -3.0961    0.0384 </r>
       <r>   -2.9346    0.0018 </r>
       <r>   -2.8380    0.0002 </r>
       <r>   -2.5985    0.0000 </r>
       <r>   -2.5877    0.0000 </r>
       <r>   -2.4896    0.0000 </r>
       <r>   -2.1875    0.0000 </r>
       <r>   -2.1611    0.0000 </r>
       <r>   -2.0761    0.0000 </r>
       <r>   -1.8949    0.0000 </r>
       <r>   -1.7733    0.0000 </r>
       <r>   -1.5617    0.0000 </r>
       <r>   -1.4631    0.0000 </r>
       <r>   -1.2973    0.0000 </r>
       <r>   -1.1727    0.0000 </r>
       <r>   -1.1466    0.0000 </r>
       <r>   -1.0733    0.0000 </r>
       <r>   -1.0511    0.0000 </r>
       <r>   -0.9217    0.0000 </r>
       <r>   -0.9115    0.0000 </r>
       <r>   -0.8748    0.0000 </r>
       <r>   -0.6835    0.0000 </r>
       <r>   -0.6703    0.0000 </r>
       <r>   -0.6329    0.0000 </r>
       <r>   -0.4971    0.0000 </r>
       <r>   -0.4695    0.0000 </r>
       <r>   -0.4038    0.0000 </r>
       <r>   -0.0014    0.0000 </r>
       <r>    0.0812    0.0000 </r>
       <r>    0.2419    0.0000 </r>
       <r>    0.5170    0.0000 </r>
       <r>    0.5324    0.0000 </r>
       <r>    0.6938    0.0000 </r>
       <r>    1.0241    0.0000 </r>
       <r>    1.0622    0.0000 </r>
       <r>    1.1479    0.0000 </r>
       <r>    1.5078    0.0000 </r>
       <r>    2.2224    0.0000 </r>
       <r>    2.2539    0.0000 </r>
       <r>    2.3832    0.0000 </r>
      </set>
     </set>
    </set>
   </array>
  </eigenvalues>
  <separator name="orbital magnetization" >
   <v name="MAGDIPOLOUT">      0.00000000      0.00000000      0.00000000</v>
  </separator>
 </calculation>
 <structure name="finalpos" >
  <crystal>
   <varray name="basis" >
    <v>       8.33635351       4.83656018       0.00000000 </v>
    <v>      -8.32800592       4.82210352       0.00000000 </v>
    <v>       0.00000000       0.00000000      30.00000000 </v>
   </varray>
   <i name="volume">   2414.32984165 </i>
   <varray name="rec_basis" >
    <v>       0.05991853       0.10348221       0.00000000 </v>
    <v>      -0.06009817       0.10358593       0.00000000 </v>
    <v>       0.00000000       0.00000000       0.03333333 </v>
   </varray>
  </crystal>
  <varray name="positions" >
   <v>       0.30617207       0.31536982       0.00023954 </v>
   <v>       0.29698291       0.64717117       0.00170542 </v>
   <v>       0.66051177       0.29768339      -0.00137380 </v>
   <v>       0.70178344       0.01534807      -0.00027884 </v>
   <v>       0.99101069       0.30689435      -0.00070460 </v>
   <v>      -0.00066266       0.00215456      -0.00010815 </v>
   <v>       0.01547021       0.70237210       0.00044897 </v>
   <v>       0.31078209      -0.00861853      -0.00006348 </v>
   <v>       0.70064797       0.70258310       0.00022099 </v>
   <v>       0.11637087       0.22635223       0.94513959 </v>
   <v>       0.22841580       0.11809078       0.05358124 </v>
   <v>       0.10297842       0.55511184       0.95053835 </v>
   <v>       0.21920417       0.43979851       0.05164800 </v>
   <v>       0.11242326       0.89668976       0.94352358 </v>
   <v>       0.22239433       0.77689436       0.05467921 </v>
   <v>       0.44226316       0.22361095       0.95067228 </v>
   <v>       0.55606755       0.10460557       0.04989030 </v>
   <v>       0.44350024       0.55814030       0.95750510 </v>
   <v>       0.55706860       0.44355621       0.04092169 </v>
   <v>       0.44533618       0.88231763       0.95694844 </v>
   <v>       0.55139058       0.77641233       0.04788964 </v>
   <v>       0.77671135       0.22040802       0.94436481 </v>
   <v>       0.89621249       0.11149811       0.05657469 </v>
   <v>       0.77768968       0.55347773       0.95242381 </v>
   <v>       0.88443861       0.44700185       0.04374636 </v>
   <v>       0.78606703       0.89678850       0.94321815 </v>
   <v>       0.89698364       0.78650174       0.05664858 </v>
  </varray>
 </structure>
</modeling>
