unknown system                          
           1
     8.855112    5.107736    0.000000
    -8.853596    5.105129    0.000000
     0.000000    0.000000   30.000000
   V    Mo   W    S 
   3   3   3  18
Direct configuration=     1
   0.33333334  0.33333334  0.00000000
   0.33333334  0.66666669  0.00000000
   0.66666669  0.33333334  0.00000000
   0.66666669  0.00000000  0.00000000
   1.00000000  0.33333334  0.00000000
   0.00000000  0.00000000  0.00000000
   0.00000000  0.66666669  0.00000000
   0.33333334  0.00000000  0.00000000
   0.66666669  0.66666669  0.00000000
   0.11068511  0.22244981  0.95539999
   0.22244981  0.11068511  0.04460000
   0.11068511  0.55578315  0.95539999
   0.22244981  0.44401845  0.04460000
   0.11068511  0.88911647  0.95539999
   0.22244981  0.77735180  0.04460000
   0.44401845  0.22244981  0.95539999
   0.55578315  0.11068511  0.04460000
   0.44401845  0.55578315  0.95539999
   0.55578315  0.44401845  0.04460000
   0.44401845  0.88911647  0.95539999
   0.55578315  0.77735180  0.04460000
   0.77735180  0.22244981  0.95539999
   0.88911647  0.11068511  0.04460000
   0.77735180  0.55578315  0.95539999
   0.88911647  0.44401845  0.04460000
   0.77735180  0.88911647  0.95539999
   0.88911647  0.77735180  0.04460000
unknown system                          
           1
     8.667675    5.001747    0.000000
    -8.666214    4.999233    0.000000
     0.000000    0.000000   30.000000
   V    Mo   W    S 
   3   3   3  18
Direct configuration=     2
   0.33141969  0.33265854  0.00007402
   0.33329066  0.66630561  0.00013904
   0.66749516  0.33220335 -0.00010882
   0.66955447  0.00139374 -0.00022405
   0.99889069  0.33059491 -0.00000384
  -0.00160274  0.00136648 -0.00002907
   0.00001762  0.66639989  0.00014493
   0.33374870  0.00050135 -0.00008484
   0.66728269  0.66885702  0.00009588
   0.11545778  0.22428871  0.95190372
   0.22470550  0.11495532  0.04805212
   0.11504160  0.55807635  0.95199058
   0.22664189  0.44640820  0.04689220
   0.11141441  0.88846385  0.95081583
   0.22410008  0.77552630  0.04809737
   0.44593894  0.22559502  0.95308608
   0.55663817  0.11498820  0.04802543
   0.44084456  0.55391601  0.95312868
   0.55397079  0.44088288  0.04678361
   0.44175579  0.88482980  0.95200317
   0.55125406  0.77486224  0.04806810
   0.77512667  0.22450559  0.95194385
   0.88889050  0.11105475  0.04933050
   0.77579906  0.55155394  0.95189706
   0.88483176  0.44320970  0.04802674
   0.77721099  0.88790289  0.95067507
   0.88849498  0.77691383  0.04927653
unknown system                          
           1
     8.485729    4.901284    0.000000
    -8.484773    4.899643    0.000000
     0.000000    0.000000   30.000000
   V    Mo   W    S 
   3   3   3  18
Direct configuration=     3
   0.33083610  0.33235876  0.00012948
   0.33317659  0.66629276  0.00011686
   0.66775090  0.33188143 -0.00007830
   0.67079621  0.00182923 -0.00024435
   0.99827155  0.32945609 -0.00001029
  -0.00245921  0.00154785 -0.00002838
   0.00011306  0.66657220  0.00011181
   0.33361354  0.00035160 -0.00013117
   0.66794962  0.66988145  0.00015572
   0.11560471  0.22439747  0.95181784
   0.22488691  0.11493347  0.04801617
   0.11501856  0.55824141  0.95208183
   0.22670516  0.44643668  0.04686510
   0.11149452  0.88837113  0.95087545
   0.22402980  0.77558780  0.04810055
   0.44588185  0.22543198  0.95315000
   0.55647574  0.11496385  0.04797751
   0.44102811  0.55397295  0.95321851
   0.55403992  0.44107838  0.04660465
   0.44158559  0.88486582  0.95207700
   0.55128513  0.77469681  0.04805104
   0.77508061  0.22454972  0.95182142
   0.88888534  0.11105743  0.04953031
   0.77581660  0.55168267  0.95198046
   0.88483946  0.44336104  0.04800133
   0.77708708  0.88769513  0.95051675
   0.88842101  0.77671932  0.04929261
unknown system                          
           1
     8.283644    4.788921    0.000000
    -8.278250    4.779596    0.000000
     0.000000    0.000000   30.000000
   V    Mo   W    S 
   3   3   3  18
Direct configuration=     4
   0.32871466  0.33107083  0.00030071
   0.33251379  0.66662324 -0.00001821
   0.66884678  0.33076209  0.00009027
   0.67573255  0.00329484 -0.00022013
   0.99560433  0.32506303 -0.00003859
  -0.00623964  0.00155648 -0.00002011
   0.00067810  0.66775117 -0.00006247
   0.33256770 -0.00090862 -0.00024060
   0.67119691  0.67416190  0.00031785
   0.11686966  0.22512245  0.95004331
   0.22533936  0.11582926  0.04930939
   0.11592008  0.55855197  0.95102417
   0.22746889  0.44685034  0.04806928
   0.11131595  0.88850687  0.94951434
   0.22454951  0.77514409  0.04963392
   0.44647709  0.22651808  0.95203912
   0.55703608  0.11581215  0.04920058
   0.44033755  0.55344896  0.95225482
   0.55360456  0.44038466  0.04721269
   0.44125541  0.88397293  0.95094592
   0.55033357  0.77441631  0.04944651
   0.77460891  0.22508555  0.94987441
   0.88882525  0.11107840  0.05191578
   0.77506951  0.55075690  0.95083699
   0.88386386  0.44273044  0.04933304
   0.77704598  0.88772133  0.94823084
   0.88867806  0.77690879  0.05100607
unknown system                          
           1
     8.285444    4.797556    0.000000
    -8.274887    4.779285    0.000000
     0.000000    0.000000   30.000000
   V    Mo   W    S 
   3   3   3  18
Direct configuration=     5
   0.32509109  0.32871249  0.00046533
   0.33064603  0.66739580 -0.00027267
   0.67079981  0.32840460  0.00040296
   0.68498044  0.00585937 -0.00008230
   0.99062217  0.31704213 -0.00012210
  -0.01372234  0.00079117 -0.00001375
   0.00217245  0.67062863 -0.00029465
   0.33026911 -0.00377979 -0.00029598
   0.67745344  0.68240764  0.00041967
   0.11732166  0.22529406  0.94763939
   0.22474240  0.11623875  0.05092443
   0.11612258  0.55749123  0.94977324
   0.22717920  0.44669684  0.04976063
   0.11058769  0.88946512  0.94774141
   0.22505100  0.77453058  0.05178246
   0.44702950  0.22762777  0.95059157
   0.55788910  0.11600509  0.05059036
   0.44022779  0.55321984  0.95120138
   0.55355279  0.44044621  0.04779360
   0.44232131  0.88375275  0.94958141
   0.55009959  0.77522158  0.05122078
   0.77441582  0.22507287  0.94706159
   0.88886982  0.11117315  0.05539988
   0.77412795  0.54996546  0.94947511
   0.88342930  0.44189258  0.05094356
   0.77729713  0.88848501  0.94486158
   0.88963764  0.77817354  0.05345100
unknown system                          
           1
     8.279774    4.794946    0.000000
    -8.270189    4.778350    0.000000
     0.000000    0.000000   30.000000
   V    Mo   W    S 
   3   3   3  18
Direct configuration=     6
   0.32384377  0.32785470  0.00046945
   0.32938394  0.66747804 -0.00024336
   0.67130499  0.32717522  0.00035538
   0.68553119  0.00619194 -0.00012354
   0.99013169  0.31616176 -0.00007790
  -0.01403844  0.00010791  0.00008092
   0.00310950  0.67246944 -0.00024877
   0.32912482 -0.00492481 -0.00031214
   0.67909350  0.68438188  0.00033606
   0.11635689  0.22455476  0.94751194
   0.22376090  0.11544326  0.05088994
   0.11507276  0.55630081  0.94986811
   0.22627293  0.44629362  0.04973875
   0.11014224  0.89016411  0.94762796
   0.22484772  0.77436851  0.05199502
   0.44691714  0.22737500  0.95065868
   0.55798813  0.11500172  0.05048535
   0.44090562  0.55367244  0.95141786
   0.55421366  0.44149780  0.04747275
   0.44358743  0.88462816  0.94973093
   0.55101556  0.77615328  0.05115989
   0.77451636  0.22448176  0.94685242
   0.88917114  0.11114741  0.05578422
   0.77420957  0.55041791  0.94958673
   0.88419280  0.44198155  0.05081620
   0.77735451  0.88895543  0.94446087
   0.89020413  0.77888085  0.05370617
unknown system                          
           1
     8.282298    4.796807    0.000000
    -8.272660    4.780119    0.000000
     0.000000    0.000000   30.000000
   V    Mo   W    S 
   3   3   3  18
Direct configuration=     7
   0.32231005  0.32687336  0.00045304
   0.32803026  0.66741412 -0.00027703
   0.67170774  0.32560782  0.00036543
   0.68695792  0.00698944 -0.00006271
   0.98943962  0.31464410 -0.00001712
  -0.01470084 -0.00059615  0.00010811
   0.00418862  0.67476597 -0.00025226
   0.32780017 -0.00611362 -0.00035885
   0.68097088  0.68661777  0.00028604
   0.11577737  0.22408133  0.94738472
   0.22325364  0.11497132  0.05094693
   0.11433878  0.55561509  0.94997915
   0.22569996  0.44607369  0.04974459
   0.10996494  0.89066740  0.94742194
   0.22471013  0.77426478  0.05226482
   0.44682767  0.22718044  0.95073524
   0.55790101  0.11426931  0.05041439
   0.44135463  0.55402988  0.95167831
   0.55467237  0.44219161  0.04708130
   0.44426616  0.88507844  0.94986001
   0.55154168  0.77672506  0.05110019
   0.77466681  0.22420949  0.94659355
   0.88929377  0.11104998  0.05603400
   0.77442149  0.55080107  0.94970246
   0.88471514  0.44212362  0.05067270
   0.77756049  0.88943961  0.94413248
   0.89054397  0.77923952  0.05400848
unknown system                          
           1
     8.246760    4.774839    0.000000
    -8.232945    4.750941    0.000000
     0.000000    0.000000   30.000000
   V    Mo   W    S 
   3   3   3  18
Direct configuration=     8
   0.32216340  0.32677209  0.00045351
   0.32787883  0.66737268 -0.00027981
   0.67170537  0.32539359  0.00036620
   0.68697396  0.00709519 -0.00006960
   0.98942455  0.31457903 -0.00001422
  -0.01459574 -0.00067801  0.00011256
   0.00431646  0.67506681 -0.00024782
   0.32765911 -0.00620434 -0.00036283
   0.68109228  0.68671677  0.00028386
   0.11573354  0.22404671  0.94740228
   0.22326005  0.11494634  0.05093644
   0.11425834  0.55559661  0.95001701
   0.22567301  0.44607016  0.04972200
   0.10997353  0.89069389  0.94740861
   0.22469450  0.77427923  0.05226146
   0.44681823  0.22714884  0.95076885
   0.55786900  0.11421325  0.05038689
   0.44138905  0.55406588  0.95172995
   0.55471607  0.44223319  0.04701256
   0.44427737  0.88510108  0.94990219
   0.55157163  0.77674362  0.05106197
   0.77468484  0.22420499  0.94661186
   0.88932224  0.11102957  0.05601051
   0.77446099  0.55084447  0.94974468
   0.88476391  0.44216558  0.05061802
   0.77757469  0.88948546  0.94415429
   0.89055528  0.77923179  0.05400850
unknown system                          
           1
     8.240167    4.770200    0.000000
    -8.225647    4.745088    0.000000
     0.000000    0.000000   30.000000
   V    Mo   W    S 
   3   3   3  18
Direct configuration=     9
   0.32296940  0.32693296  0.00047224
   0.32926645  0.66779506 -0.00027301
   0.67231952  0.32700745  0.00036317
   0.68685592  0.00625742 -0.00014322
   0.98900347  0.31482949 -0.00005646
  -0.01584902 -0.00013032  0.00012839
   0.00258487  0.67236366 -0.00027550
   0.32903301 -0.00501496 -0.00032138
   0.68107644  0.68682864  0.00027646
   0.11586384  0.22408311  0.94714324
   0.22273328  0.11488292  0.05101593
   0.11455336  0.55514428  0.94960464
   0.22560795  0.44582770  0.04999935
   0.10963704  0.89076694  0.94749074
   0.22471922  0.77400246  0.05249762
   0.44698947  0.22750450  0.95047812
   0.55836857  0.11457211  0.05058032
   0.44134933  0.55378016  0.95127581
   0.55463989  0.44231053  0.04746133
   0.44477536  0.88534631  0.94947994
   0.55178054  0.77698174  0.05155629
   0.77439690  0.22399642  0.94638082
   0.88918867  0.11126792  0.05652576
   0.77395096  0.55043081  0.94932725
   0.88425444  0.44153670  0.05117062
   0.77741231  0.88928140  0.94367767
   0.89073325  0.77962903  0.05416376
unknown system                          
           1
     8.292756    4.807460    0.000000
    -8.282698    4.790028    0.000000
     0.000000    0.000000   30.000000
   V    Mo   W    S 
   3   3   3  18
Direct configuration=    10
   0.32342747  0.32712961  0.00047212
   0.32993320  0.66799745 -0.00026196
   0.67253380  0.32786880  0.00035246
   0.68653285  0.00578175 -0.00014939
   0.98902728  0.31522317 -0.00006694
  -0.01613870  0.00018857  0.00012297
   0.00184171  0.67103245 -0.00028213
   0.32969294 -0.00451483 -0.00029983
   0.68076913  0.68653615  0.00027550
   0.11594745  0.22414117  0.94709123
   0.22258018  0.11487640  0.05103393
   0.11476005  0.55509645  0.94946716
   0.22564531  0.44577680  0.05007169
   0.10954445  0.89071598  0.94757568
   0.22473075  0.77390766  0.05250960
   0.44705699  0.22764125  0.95037345
   0.55853277  0.11475077  0.05065163
   0.44130418  0.55366334  0.95110286
   0.55457096  0.44228622  0.04766239
   0.44483816  0.88536170  0.94932483
   0.55179634  0.77698584  0.05171714
   0.77428570  0.22396048  0.94633792
   0.88908759  0.11135614  0.05662688
   0.77376330  0.55025932  0.94916354
   0.88403597  0.44131283  0.05138660
   0.77735158  0.88916217  0.94357206
   0.89076304  0.77971680  0.05416849
unknown system                          
           1
     8.264586    4.790219    0.000000
    -8.254685    4.773055    0.000000
     0.000000    0.000000   30.000000
   V    Mo   W    S 
   3   3   3  18
Direct configuration=    11
   0.32007951  0.32547018  0.00045625
   0.32549887  0.66700979 -0.00032582
   0.67186465  0.32227079  0.00041411
   0.68873806  0.00876976 -0.00003823
   0.98850233  0.31246846  0.00004747
  -0.01472239 -0.00215100  0.00016404
   0.00649796  0.67973519 -0.00023471
   0.32527133 -0.00817587 -0.00041098
   0.68357193  0.68936652  0.00024787
   0.11510274  0.22351626  0.94716217
   0.22300344  0.11457031  0.05115178
   0.11319635  0.55491290  0.95022443
   0.22505947  0.44592862  0.04976766
   0.10990589  0.89137890  0.94683708
   0.22459546  0.77430962  0.05267054
   0.44677498  0.22694998  0.95084996
   0.55766900  0.11331848  0.05032663
   0.44185441  0.55453937  0.95212083
   0.55532063  0.44287993  0.04638634
   0.44490325  0.88549782  0.95014775
   0.55202568  0.77732915  0.05090049
   0.77491638  0.22409691  0.94624386
   0.88970720  0.11082103  0.05636991
   0.77474546  0.55129054  0.94999313
   0.88548117  0.44248044  0.05024102
   0.77777945  0.89016089  0.94375124
   0.89087126  0.77946948  0.05453507
unknown system                          
           1
     8.278275    4.800282    0.000000
    -8.268561    4.783436    0.000000
     0.000000    0.000000   30.000000
   V    Mo   W    S 
   3   3   3  18
Direct configuration=    12
   0.32010662  0.32509236  0.00045775
   0.32704130  0.66756651 -0.00032439
   0.67274620  0.32433928  0.00034039
   0.68808646  0.00738873 -0.00007731
   0.98852046  0.31309603  0.00002661
  -0.01531013 -0.00092099  0.00014386
   0.00445453  0.67622405 -0.00022879
   0.32677435 -0.00686901 -0.00041496
   0.68347969  0.68944926  0.00022049
   0.11516484  0.22356507  0.94710887
   0.22251219  0.11441213  0.05109644
   0.11348542  0.55477810  0.94998493
   0.22507904  0.44569544  0.04985196
   0.10962544  0.89130696  0.94721015
   0.22447696  0.77399854  0.05262750
   0.44690492  0.22721179  0.95071639
   0.55800680  0.11352766  0.05046113
   0.44197025  0.55435340  0.95188692
   0.55524714  0.44310983  0.04665698
   0.44512730  0.88565293  0.94986412
   0.55231640  0.77744418  0.05125944
   0.77464794  0.22383934  0.94616345
   0.88936456  0.11092411  0.05655553
   0.77446864  0.55107020  0.94964156
   0.88501083  0.44208094  0.05075842
   0.77776149  0.89010482  0.94351459
   0.89114482  0.77977279  0.05449785
unknown system                          
           1
     8.282277    4.803270    0.000000
    -8.272820    4.786864    0.000000
     0.000000    0.000000   30.000000
   V    Mo   W    S 
   3   3   3  18
Direct configuration=    13
   0.31825122  0.32400229  0.00046842
   0.32498824  0.66709194 -0.00036916
   0.67248108  0.32155895  0.00039640
   0.68931739  0.00891484 -0.00005809
   0.98809437  0.31152531  0.00007743
  -0.01473249 -0.00204045  0.00018926
   0.00654672  0.68047333 -0.00021601
   0.32464370 -0.00846687 -0.00046427
   0.68506177  0.69102235  0.00021715
   0.11483924  0.22333190  0.94707460
   0.22280036  0.11437727  0.05118245
   0.11272420  0.55462801  0.95032112
   0.22480024  0.44573011  0.04974224
   0.10979589  0.89160328  0.94681379
   0.22445238  0.77423418  0.05276000
   0.44675676  0.22690190  0.95094295
   0.55762366  0.11293754  0.05029210
   0.44223094  0.55469674  0.95237773
   0.55555308  0.44336578  0.04600249
   0.44517487  0.88572094  0.95023479
   0.55243643  0.77761780  0.05090610
   0.77495332  0.22387946  0.94610775
   0.88970164  0.11069146  0.05649630
   0.77490047  0.55153600  0.95003465
   0.88564957  0.44257299  0.05021458
   0.77797746  0.89059134  0.94356514
   0.89119194  0.77971606  0.05468999
unknown system                          
           1
     8.279256    4.800936    0.000000
    -8.269325    4.783711    0.000000
     0.000000    0.000000   30.000000
   V    Mo   W    S 
   3   3   3  18
Direct configuration=    14
   0.31733640  0.32329957  0.00046987
   0.32455377  0.66707407 -0.00038660
   0.67264368  0.32097354  0.00040131
   0.68955739  0.00914016 -0.00005235
   0.98796377  0.31111634  0.00009179
  -0.01446322 -0.00207847  0.00019770
   0.00685007  0.68127488 -0.00020120
   0.32411866 -0.00876742 -0.00048431
   0.68568124  0.69164087  0.00020972
   0.11473850  0.22326616  0.94699566
   0.22280269  0.11433726  0.05125763
   0.11246177  0.55450650  0.95037420
   0.22468533  0.44567171  0.04974673
   0.10978204  0.89172965  0.94670329
   0.22442524  0.77425516  0.05283243
   0.44675061  0.22689495  0.95097809
   0.55756075  0.11274430  0.05028155
   0.44237709  0.55476368  0.95251880
   0.55562864  0.44351259  0.04579822
   0.44526592  0.88578098  0.95029034
   0.55253651  0.77771422  0.05088129
   0.77501000  0.22383631  0.94602219
   0.88975029  0.11060657  0.05656649
   0.77498723  0.55164296  0.95007569
   0.88578261  0.44265903  0.05014857
   0.77810287  0.89081881  0.94347669
   0.89132461  0.77980009  0.05480611
unknown system                          
           1
     8.283291    4.805927    0.000000
    -8.275008    4.791535    0.000000
     0.000000    0.000000   30.000000
   V    Mo   W    S 
   3   3   3  18
Direct configuration=    15
   0.31685263  0.32279583  0.00047042
   0.32491665  0.66734163 -0.00039238
   0.67313039  0.32148473  0.00039109
   0.68944336  0.00878934 -0.00005246
   0.98788826  0.31120430  0.00010537
  -0.01450888 -0.00165531  0.00020412
   0.00626336  0.68039369 -0.00020087
   0.32437916 -0.00852068 -0.00048542
   0.68585497  0.69186708  0.00020296
   0.11469299  0.22331065  0.94693863
   0.22271050  0.11427953  0.05130256
   0.11248842  0.55444558  0.95036584
   0.22461361  0.44557254  0.04974359
   0.10972215  0.89166380  0.94679364
   0.22441703  0.77422527  0.05279465
   0.44676251  0.22693715  0.95097645
   0.55762360  0.11278141  0.05026751
   0.44248560  0.55473404  0.95255439
   0.55561386  0.44363224  0.04574253
   0.44527206  0.88580488  0.95025343
   0.55264639  0.77772784  0.05094045
   0.77498583  0.22374996  0.94601754
   0.88965883  0.11063748  0.05657975
   0.77493909  0.55163484  0.95000549
   0.88571055  0.44252133  0.05025062
   0.77820435  0.89089955  0.94343053
   0.89144718  0.77995572  0.05479948
unknown system                          
           1
     8.285118    4.808798    0.000000
    -8.278127    4.796628    0.000000
     0.000000    0.000000   30.000000
   V    Mo   W    S 
   3   3   3  18
Direct configuration=    16
   0.31502113  0.32159515  0.00047017
   0.32318894  0.66689897 -0.00043090
   0.67281934  0.31911550  0.00041311
   0.69047054  0.00997229 -0.00004538
   0.98761065  0.30981399  0.00011239
  -0.01370034 -0.00233438  0.00020764
   0.00802192  0.68400086 -0.00017736
   0.32241543 -0.00969909 -0.00056016
   0.68721003  0.69317367  0.00019852
   0.11447489  0.22314827  0.94686414
   0.22300399  0.11430501  0.05142498
   0.11177116  0.55430809  0.95060136
   0.22438990  0.44554892  0.04969957
   0.10986730  0.89201172  0.94640512
   0.22437540  0.77440850  0.05297153
   0.44666535  0.22676912  0.95114255
   0.55731475  0.11222983  0.05018786
   0.44270293  0.55496277  0.95296322
   0.55577415  0.44376235  0.04521045
   0.44539546  0.88592249  0.95054350
   0.55273118  0.77788856  0.05069444
   0.77522104  0.22378207  0.94589766
   0.88994510  0.11036199  0.05662639
   0.77531095  0.55200767  0.95030844
   0.88623200  0.44298672  0.04982768
   0.77843643  0.89136548  0.94341785
   0.89154483  0.77990793  0.05502514
unknown system                          
           1
     8.290606    4.821512    0.000000
    -8.290544    4.821252    0.000000
     0.000000    0.000000   30.000000
   V    Mo   W    S 
   3   3   3  18
Direct configuration=    17
   0.31352553  0.32051698  0.00047026
   0.32200908  0.66661728 -0.00045648
   0.67262574  0.31750115  0.00042205
   0.69118752  0.01064862 -0.00003357
   0.98740726  0.30887025  0.00013424
  -0.01295322 -0.00258592  0.00021651
   0.00910381  0.68626874 -0.00012727
   0.32096492 -0.01038026 -0.00060972
   0.68821847  0.69413936  0.00019492
   0.11432814  0.22304999  0.94674329
   0.22322371  0.11432261  0.05156658
   0.11118356  0.55419373  0.95074684
   0.22418318  0.44546215  0.04968906
   0.10995387  0.89232406  0.94607711
   0.22435490  0.77457111  0.05311567
   0.44660929  0.22669806  0.95124131
   0.55709757  0.11179078  0.05014704
   0.44287572  0.55509014  0.95327802
   0.55583054  0.44383825  0.04481259
   0.44552533  0.88603256  0.95075131
   0.55279669  0.77801531  0.05054688
   0.77539071  0.22375506  0.94577808
   0.89016202  0.11012751  0.05667714
   0.77562033  0.55227372  0.95050680
   0.88659110  0.44334232  0.04952367
   0.77869405  0.89176796  0.94337919
   0.89170466  0.77996293  0.05520837
unknown system                          
           1
     8.297374    4.825938    0.000000
    -8.292563    4.817514    0.000000
     0.000000    0.000000   30.000000
   V    Mo   W    S 
   3   3   3  18
Direct configuration=    18
   0.30612929  0.31514756  0.00042879
   0.31567047  0.66478528 -0.00057102
   0.67072104  0.30906212  0.00037139
   0.69505328  0.01356928 -0.00000725
   0.98686229  0.30433677  0.00016288
  -0.00860330 -0.00347331  0.00014860
   0.01462407  0.69757511  0.00012831
   0.31304772 -0.01336700 -0.00089454
   0.69315108  0.69886142  0.00017932
   0.11365724  0.22263522  0.94610967
   0.22452839  0.11451667  0.05238899
   0.10790087  0.55373056  0.95147387
   0.22300324  0.44478560  0.04968411
   0.11043202  0.89407026  0.94429564
   0.22441445  0.77566463  0.05390106
   0.44619360  0.22628948  0.95171338
   0.55579885  0.10914895  0.04998979
   0.44365131  0.55565380  0.95495801
   0.55590739  0.44405318  0.04278993
   0.44622826  0.88665495  0.95199496
   0.55306632  0.77867203  0.04976390
   0.77634608  0.22342548  0.94518609
   0.89146957  0.10875438  0.05694535
   0.77754266  0.55375824  0.95162648
   0.88850768  0.44555905  0.04779786
   0.78030927  0.89394391  0.94327941
   0.89260130  0.78040083  0.05615492
unknown system                          
           1
     8.299609    4.833136    0.000000
    -8.298479    4.831043    0.000000
     0.000000    0.000000   30.000000
   V    Mo   W    S 
   3   3   3  18
Direct configuration=    19
   0.30863035  0.31697002  0.00045356
   0.31659533  0.66467187 -0.00045630
   0.67063897  0.31083755  0.00029992
   0.69445154  0.01272290 -0.00001381
   0.98702218  0.30589073  0.00014747
  -0.00907437 -0.00266945  0.00013878
   0.01246701  0.69336800  0.00025289
   0.31523755 -0.01178715 -0.00068688
   0.69181102  0.69750743  0.00024961
   0.11372398  0.22272405  0.94611758
   0.22424455  0.11426153  0.05229233
   0.10804026  0.55391634  0.95123391
   0.22306742  0.44466324  0.04976785
   0.11020721  0.89402111  0.94445608
   0.22465460  0.77582508  0.05373650
   0.44612047  0.22619813  0.95157761
   0.55577374  0.10918276  0.05004156
   0.44331053  0.55555335  0.95466600
   0.55580222  0.44375082  0.04315629
   0.44604898  0.88651846  0.95196157
   0.55292371  0.77849491  0.04990820
   0.77625964  0.22325686  0.94532707
   0.89150547  0.10888960  0.05685434
   0.77754720  0.55349628  0.95150912
   0.88808756  0.44560499  0.04779903
   0.78037194  0.89369688  0.94329605
   0.89274539  0.78064816  0.05591359
unknown system                          
           1
     8.305315    4.834130    0.000000
    -8.301207    4.826920    0.000000
     0.000000    0.000000   30.000000
   V    Mo   W    S 
   3   3   3  18
Direct configuration=    20
   0.30343216  0.31319069  0.00039537
   0.31105665  0.66258385 -0.00045809
   0.66838250  0.30387822  0.00014799
   0.69785027  0.01486645  0.00001020
   0.98676271  0.30265110  0.00009580
  -0.00532554 -0.00303181 -0.00000953
   0.01664858  0.70198243  0.00038828
   0.30885912 -0.01350296 -0.00090235
   0.69564130  0.70110052  0.00027878
   0.11327368  0.22261097  0.94562287
   0.22527041  0.11437822  0.05299794
   0.10520615  0.55364153  0.95173092
   0.22196481  0.44390815  0.04984118
   0.11056535  0.89523658  0.94319911
   0.22484817  0.77691551  0.05433354
   0.44570571  0.22575298  0.95189156
   0.55469639  0.10681201  0.04990129
   0.44378588  0.55603346  0.95602250
   0.55585111  0.44375432  0.04155431
   0.44658059  0.88696303  0.95318027
   0.55306789  0.77896519  0.04927453
   0.77703665  0.22274110  0.94490729
   0.89280013  0.10787021  0.05701216
   0.77917827  0.55454284  0.95246588
   0.88944541  0.44758951  0.04623621
   0.78198830  0.89544597  0.94327973
   0.89364181  0.78133439  0.05660216
unknown system                          
           1
     8.309361    4.836509    0.000000
    -8.304922    4.828732    0.000000
     0.000000    0.000000   30.000000
   V    Mo   W    S 
   3   3   3  18
Direct configuration=    21
   0.30513992  0.31443200  0.00039266
   0.31184048  0.66246829 -0.00037304
   0.66854678  0.30557938  0.00010131
   0.69714391  0.01413607 -0.00000260
   0.98705552  0.30381165  0.00006444
  -0.00604217 -0.00260331 -0.00001955
   0.01520931  0.69928959  0.00033561
   0.31087330 -0.01244976 -0.00078498
   0.69471293  0.70019044  0.00029673
   0.11354562  0.22288499  0.94574215
   0.22503593  0.11443343  0.05285921
   0.10571493  0.55379478  0.95151672
   0.22212721  0.44392160  0.04988617
   0.11044793  0.89486753  0.94357483
   0.22489612  0.77682010  0.05416539
   0.44564973  0.22573522  0.95174434
   0.55488397  0.10707995  0.04993648
   0.44354670  0.55598144  0.95574205
   0.55584222  0.44359147  0.04193926
   0.44642682  0.88675936  0.95311041
   0.55299896  0.77876447  0.04940628
   0.77685483  0.22266991  0.94500120
   0.89273739  0.10821730  0.05694793
   0.77874086  0.55416537  0.95226380
   0.88888575  0.44721379  0.04644020
   0.78181411  0.89500509  0.94330767
   0.89358539  0.78145430  0.05640525
unknown system                          
           1
     8.311744    4.837166    0.000000
    -8.307008    4.828880    0.000000
     0.000000    0.000000   30.000000
   V    Mo   W    S 
   3   3   3  18
Direct configuration=    22
   0.30480110  0.31419370  0.00038245
   0.31056933  0.66156131 -0.00029369
   0.66784953  0.30457451  0.00002327
   0.69772420  0.01434753  0.00000304
   0.98728459  0.30373472  0.00003122
  -0.00541729 -0.00235159 -0.00002709
   0.01558654  0.70008553  0.00038588
   0.31032946 -0.01222381 -0.00074343
   0.69517021  0.70054270  0.00033097
   0.11367323  0.22309559  0.94567837
   0.22519279  0.11457102  0.05294547
   0.10530056  0.55385306  0.95149437
   0.22192555  0.44370196  0.04994701
   0.11053862  0.89500008  0.94346198
   0.22488562  0.77700557  0.05420050
   0.44547022  0.22560627  0.95170657
   0.55479174  0.10665176  0.04990584
   0.44352495  0.55609795  0.95593997
   0.55585958  0.44350505  0.04175184
   0.44648125  0.88668868  0.95343590
   0.55297371  0.77872874  0.04930689
   0.77693299  0.22244323  0.94495084
   0.89309751  0.10823214  0.05692763
   0.77882073  0.55416049  0.95238303
   0.88882655  0.44745907  0.04612524
   0.78217158  0.89517825  0.94330373
   0.89384962  0.78177096  0.05644210
unknown system                          
           1
     8.312457    4.836375    0.000000
    -8.306971    4.826802    0.000000
     0.000000    0.000000   30.000000
   V    Mo   W    S 
   3   3   3  18
Direct configuration=    23
   0.30488421  0.31426240  0.00037362
   0.31016221  0.66111626 -0.00025249
   0.66757687  0.30432317 -0.00001760
   0.69786379  0.01439688 -0.00000444
   0.98740590  0.30385736  0.00000892
  -0.00529305 -0.00221170 -0.00003771
   0.01559912  0.70014870  0.00037775
   0.31036911 -0.01201169 -0.00072870
   0.69522777  0.70055121  0.00033678
   0.11378144  0.22322267  0.94568106
   0.22523091  0.11466686  0.05295700
   0.10524675  0.55390258  0.95145327
   0.22188345  0.44362839  0.04998141
   0.11058166  0.89498389  0.94349718
   0.22485208  0.77703117  0.05419793
   0.44541389  0.22557400  0.95167254
   0.55484629  0.10660326  0.04989412
   0.44349419  0.55613526  0.95597084
   0.55588182  0.44346152  0.04173985
   0.44648348  0.88661568  0.95354740
   0.55295473  0.77867982  0.04928519
   0.77691600  0.22236034  0.94495735
   0.89321848  0.10832910  0.05691191
   0.77875142  0.55408560  0.95240023
   0.88867952  0.44743943  0.04605011
   0.78226705  0.89515614  0.94331477
   0.89393537  0.78190617  0.05643161
unknown system                          
           1
     8.315598    4.838174    0.000000
    -8.309954    4.828331    0.000000
     0.000000    0.000000   30.000000
   V    Mo   W    S 
   3   3   3  18
Direct configuration=    24
   0.30491378  0.31430587  0.00035508
   0.30895862  0.65998170 -0.00014699
   0.66689472  0.30360730 -0.00012671
   0.69840470  0.01450231 -0.00001993
   0.98766007  0.30395541 -0.00003087
  -0.00491887 -0.00192691 -0.00005831
   0.01567662  0.70053249  0.00039802
   0.31017926 -0.01168380 -0.00068254
   0.69559848  0.70078401  0.00035099
   0.11394087  0.22346172  0.94563350
   0.22538014  0.11485504  0.05302769
   0.10492867  0.55399669  0.95137322
   0.22170684  0.44342402  0.05007779
   0.11070055  0.89509412  0.94346090
   0.22478591  0.77717094  0.05422542
   0.44518643  0.22541410  0.95159650
   0.55483024  0.10625299  0.04989338
   0.44348245  0.55626751  0.95610953
   0.55594369  0.44341961  0.04163932
   0.44652149  0.88647660  0.95386941