   27   27  100    1
  0.9710400E+02  0.1002848E-08  0.1002848E-08  0.3000000E-08  0.5000000E-15
  1.000000000000000E-004
  CAR 
 unknown system                          
    159     34    120
 
  0.0000000E+00  0.0000000E+00  0.0000000E+00  0.1562500E-01
    1      -17.810940   1.000000
    2      -16.696610   1.000000
    3      -16.582856   1.000000
    4      -16.540558   1.000000
    5      -16.516380   1.000000
    6      -16.410272   1.000000
    7      -16.405664   1.000000
    8      -16.371460   1.000000
    9      -16.166393   1.000000
   10      -16.139335   1.000000
   11      -16.006904   1.000000
   12      -15.954080   1.000000
   13      -15.920762   1.000000
   14      -15.706754   1.000000
   15      -15.581411   1.000000
   16      -15.535705   1.000000
   17      -15.447015   1.000000
   18      -15.326908   1.000000
   19       -9.293366   1.000000
   20       -9.045383   1.000000
   21       -8.932289   1.000000
   22       -8.818521   1.000000
   23       -8.738583   1.000000
   24       -8.728239   1.000000
   25       -8.614488   1.000000
   26       -8.593026   1.000000
   27       -8.492051   1.000000
   28       -8.405654   1.000000
   29       -8.374597   1.000000
   30       -8.246603   1.000000
   31       -8.234178   1.000000
   32       -8.216024   1.000000
   33       -8.056462   1.000000
   34       -7.930837   1.000000
   35       -7.871426   1.000000
   36       -7.850046   1.000000
   37       -7.727052   1.000000
   38       -7.592005   1.000000
   39       -7.449438   1.000000
   40       -7.438838   1.000000
   41       -7.271848   1.000000
   42       -7.215852   1.000000
   43       -7.113486   1.000000
   44       -6.973702   1.000000
   45       -6.819083   1.000000
   46       -6.775384   1.000000
   47       -6.675438   1.000000
   48       -6.624731   1.000000
   49       -6.587592   1.000000
   50       -6.561417   1.000000
   51       -6.453978   1.000000
   52       -6.424024   1.000000
   53       -6.348344   1.000000
   54       -6.321523   1.000000
   55       -6.241910   1.000000
   56       -6.135496   1.000000
   57       -6.050381   1.000000
   58       -5.995419   1.000000
   59       -5.656711   1.000000
   60       -5.575213   1.000000
   61       -5.468906   1.000000
   62       -5.339058   1.000000
   63       -5.311817   1.000000
   64       -5.139018   1.000000
   65       -5.002112   1.000000
   66       -4.983736   1.000000
   67       -4.977188   1.000000
   68       -4.759937   1.000000
   69       -4.709956   1.000000
   70       -4.683354   1.000000
   71       -4.642601   1.000000
   72       -4.611728   1.000000
   73       -4.549319   1.000000
   74       -4.386152   1.000000
   75       -4.244955   1.000000
   76       -4.081318   1.000000
   77       -3.563562   0.997665
   78       -3.493986   0.990281
   79       -3.455099   0.980398
   80       -3.359962   0.917632
   81       -3.351222   0.907831
   82       -2.865430   0.017535
   83       -2.823752   0.008147
   84       -2.639600   0.000106
   85       -2.468010   0.000000
   86       -2.457631   0.000000
   87       -2.332055   0.000000
   88       -2.307766   0.000000
   89       -2.260570   0.000000
   90       -2.015078   0.000000
   91       -1.933916   0.000000
   92       -1.746335   0.000000
   93       -1.430758   0.000000
   94       -1.409960   0.000000
   95       -1.128454   0.000000
   96       -1.085143   0.000000
   97       -1.014962   0.000000
   98       -0.868149   0.000000
   99       -0.834426   0.000000
  100       -0.544754   0.000000
  101       -0.534316   0.000000
  102       -0.519615   0.000000
  103       -0.403714   0.000000
  104       -0.303305   0.000000
  105       -0.091866   0.000000
  106        0.024846   0.000000
  107        0.096183   0.000000
  108        0.102513   0.000000
  109        0.184643   0.000000
  110        0.214626   0.000000
  111        0.254991   0.000000
  112        0.475262   0.000000
  113        0.724772   0.000000
  114        0.780217   0.000000
  115        0.896556   0.000000
  116        0.941052   0.000000
  117        1.213103   0.000000
  118        1.650699   0.000000
  119        1.833955   0.000000
  120        2.154752   0.000000
 
  0.1250000E+00  0.2775558E-16  0.0000000E+00  0.3125000E-01
    1      -17.785546   1.000000
    2      -16.751210   1.000000
    3      -16.690157   1.000000
    4      -16.559983   1.000000
    5      -16.517387   1.000000
    6      -16.412942   1.000000
    7      -16.349737   1.000000
    8      -16.300162   1.000000
    9      -16.240826   1.000000
   10      -16.036626   1.000000
   11      -16.017133   1.000000
   12      -15.931779   1.000000
   13      -15.888148   1.000000
   14      -15.703271   1.000000
   15      -15.590277   1.000000
   16      -15.545286   1.000000
   17      -15.451168   1.000000
   18      -15.335922   1.000000
   19       -9.294217   1.000000
   20       -9.143792   1.000000
   21       -9.056773   1.000000
   22       -8.995433   1.000000
   23       -8.762906   1.000000
   24       -8.657607   1.000000
   25       -8.616216   1.000000
   26       -8.532572   1.000000
   27       -8.494945   1.000000
   28       -8.441881   1.000000
   29       -8.398121   1.000000
   30       -8.178120   1.000000
   31       -8.146622   1.000000
   32       -8.091004   1.000000
   33       -8.048330   1.000000
   34       -7.905102   1.000000
   35       -7.785395   1.000000
   36       -7.734960   1.000000
   37       -7.670275   1.000000
   38       -7.593776   1.000000
   39       -7.502951   1.000000
   40       -7.388028   1.000000
   41       -7.311466   1.000000
   42       -7.215703   1.000000
   43       -7.127517   1.000000
   44       -7.003212   1.000000
   45       -6.858103   1.000000
   46       -6.801583   1.000000
   47       -6.736470   1.000000
   48       -6.689338   1.000000
   49       -6.546599   1.000000
   50       -6.481604   1.000000
   51       -6.456940   1.000000
   52       -6.411391   1.000000
   53       -6.340883   1.000000
   54       -6.305729   1.000000
   55       -6.233351   1.000000
   56       -6.144111   1.000000
   57       -6.021797   1.000000
   58       -5.954634   1.000000
   59       -5.691239   1.000000
   60       -5.543982   1.000000
   61       -5.456879   1.000000
   62       -5.389123   1.000000
   63       -5.335407   1.000000
   64       -5.174854   1.000000
   65       -5.115458   1.000000
   66       -5.018028   1.000000
   67       -5.010417   1.000000
   68       -4.898841   1.000000
   69       -4.790139   1.000000
   70       -4.688776   1.000000
   71       -4.603883   1.000000
   72       -4.484138   1.000000
   73       -4.433546   1.000000
   74       -4.292792   1.000000
   75       -4.176947   1.000000
   76       -4.000577   1.000000
   77       -3.790840   0.999995
   78       -3.652887   0.999731
   79       -3.484752   0.988448
   80       -3.242496   0.711819
   81       -3.174281   0.530433
   82       -2.890379   0.026733
   83       -2.792205   0.004328
   84       -2.653681   0.000156
   85       -2.505062   0.000002
   86       -2.457050   0.000000
   87       -2.423056   0.000000
   88       -2.252747   0.000000
   89       -2.216086   0.000000
   90       -2.005601   0.000000
   91       -1.942920   0.000000
   92       -1.695162   0.000000
   93       -1.423808   0.000000
   94       -1.369317   0.000000
   95       -1.165667   0.000000
   96       -1.078645   0.000000
   97       -0.991397   0.000000
   98       -0.855386   0.000000
   99       -0.836994   0.000000
  100       -0.648888   0.000000
  101       -0.582919   0.000000
  102       -0.546862   0.000000
  103       -0.480979   0.000000
  104       -0.282733   0.000000
  105       -0.118320   0.000000
  106       -0.109020   0.000000
  107       -0.022690   0.000000
  108        0.060218   0.000000
  109        0.126135   0.000000
  110        0.225425   0.000000
  111        0.327995   0.000000
  112        0.559553   0.000000
  113        0.708761   0.000000
  114        0.793039   0.000000
  115        0.941893   0.000000
  116        1.042603   0.000000
  117        1.223990   0.000000
  118        1.694607   0.000000
  119        1.872668   0.000000
  120        2.190090   0.000000
 
  0.2500000E+00  0.5551115E-16  0.0000000E+00  0.3125000E-01
    1      -17.710745   1.000000
    2      -16.970048   1.000000
    3      -16.701904   1.000000
    4      -16.620226   1.000000
    5      -16.559899   1.000000
    6      -16.391775   1.000000
    7      -16.314410   1.000000
    8      -16.215906   1.000000
    9      -16.206698   1.000000
   10      -16.055934   1.000000
   11      -15.973999   1.000000
   12      -15.854663   1.000000
   13      -15.809513   1.000000
   14      -15.702306   1.000000
   15      -15.598194   1.000000
   16      -15.571460   1.000000
   17      -15.459715   1.000000
   18      -15.359770   1.000000
   19       -9.512815   1.000000
   20       -9.245446   1.000000
   21       -9.167239   1.000000
   22       -9.027629   1.000000
   23       -8.876136   1.000000
   24       -8.712816   1.000000
   25       -8.617851   1.000000
   26       -8.531279   1.000000
   27       -8.476726   1.000000
   28       -8.344786   1.000000
   29       -8.323963   1.000000
   30       -8.222643   1.000000
   31       -8.124982   1.000000
   32       -7.964665   1.000000
   33       -7.879426   1.000000
   34       -7.820565   1.000000
   35       -7.706850   1.000000
   36       -7.665763   1.000000
   37       -7.601918   1.000000
   38       -7.517041   1.000000
   39       -7.452090   1.000000
   40       -7.375132   1.000000
   41       -7.279768   1.000000
   42       -7.176772   1.000000
   43       -7.096247   1.000000
   44       -7.019994   1.000000
   45       -6.880022   1.000000
   46       -6.851515   1.000000
   47       -6.783056   1.000000
   48       -6.711627   1.000000
   49       -6.559043   1.000000
   50       -6.504093   1.000000
   51       -6.472372   1.000000
   52       -6.405347   1.000000
   53       -6.286316   1.000000
   54       -6.206136   1.000000
   55       -6.148165   1.000000
   56       -6.100005   1.000000
   57       -6.035550   1.000000
   58       -5.865599   1.000000
   59       -5.741575   1.000000
   60       -5.661330   1.000000
   61       -5.599527   1.000000
   62       -5.535367   1.000000
   63       -5.407804   1.000000
   64       -5.332879   1.000000
   65       -5.192332   1.000000
   66       -5.145328   1.000000
   67       -4.959703   1.000000
   68       -4.885756   1.000000
   69       -4.794543   1.000000
   70       -4.705419   1.000000
   71       -4.491454   1.000000
   72       -4.372492   1.000000
   73       -4.322685   1.000000
   74       -4.216964   1.000000
   75       -4.140337   1.000000
   76       -4.026523   1.000000
   77       -3.953073   1.000000
   78       -3.757169   0.999987
   79       -3.446796   0.977429
   80       -3.089946   0.301539
   81       -3.062483   0.237559
   82       -2.912333   0.037875
   83       -2.768626   0.002619
   84       -2.693700   0.000447
   85       -2.558321   0.000009
   86       -2.490173   0.000001
   87       -2.462684   0.000000
   88       -2.212855   0.000000
   89       -2.160292   0.000000
   90       -2.011525   0.000000
   91       -1.915952   0.000000
   92       -1.599025   0.000000
   93       -1.377955   0.000000
   94       -1.293607   0.000000
   95       -1.208130   0.000000
   96       -1.110904   0.000000
   97       -0.957390   0.000000
   98       -0.900091   0.000000
   99       -0.835291   0.000000
  100       -0.760973   0.000000
  101       -0.704857   0.000000
  102       -0.634273   0.000000
  103       -0.572205   0.000000
  104       -0.437839   0.000000
  105       -0.311798   0.000000
  106       -0.228680   0.000000
  107       -0.115378   0.000000
  108        0.020365   0.000000
  109        0.139049   0.000000
  110        0.160710   0.000000
  111        0.337146   0.000000
  112        0.516939   0.000000
  113        0.781922   0.000000
  114        0.873265   0.000000
  115        1.033695   0.000000
  116        1.164827   0.000000
  117        1.349359   0.000000
  118        1.817694   0.000000
  119        1.983776   0.000000
  120        2.295059   0.000000
 
  0.3750000E+00  0.0000000E+00  0.0000000E+00  0.3125000E-01
    1      -17.592779   1.000000
    2      -17.188581   1.000000
    3      -16.718136   1.000000
    4      -16.666616   1.000000
    5      -16.554452   1.000000
    6      -16.446784   1.000000
    7      -16.255277   1.000000
    8      -16.171133   1.000000
    9      -16.144499   1.000000
   10      -16.073863   1.000000
   11      -15.920725   1.000000
   12      -15.806272   1.000000
   13      -15.760772   1.000000
   14      -15.724159   1.000000
   15      -15.622522   1.000000
   16      -15.544909   1.000000
   17      -15.467577   1.000000
   18      -15.386887   1.000000
   19       -9.732114   1.000000
   20       -9.375587   1.000000
   21       -9.142671   1.000000
   22       -9.029277   1.000000
   23       -8.920710   1.000000
   24       -8.748168   1.000000
   25       -8.629208   1.000000
   26       -8.506888   1.000000
   27       -8.448922   1.000000
   28       -8.370660   1.000000
   29       -8.282137   1.000000
   30       -8.177656   1.000000
   31       -8.094480   1.000000
   32       -7.926940   1.000000
   33       -7.850074   1.000000
   34       -7.789431   1.000000
   35       -7.744576   1.000000
   36       -7.667228   1.000000
   37       -7.585755   1.000000
   38       -7.542030   1.000000
   39       -7.381435   1.000000
   40       -7.244214   1.000000
   41       -7.166516   1.000000
   42       -7.098863   1.000000
   43       -7.053815   1.000000
   44       -6.924779   1.000000
   45       -6.861994   1.000000
   46       -6.810210   1.000000
   47       -6.767631   1.000000
   48       -6.616253   1.000000
   49       -6.574162   1.000000
   50       -6.510311   1.000000
   51       -6.451748   1.000000
   52       -6.351512   1.000000
   53       -6.241317   1.000000
   54       -6.182467   1.000000
   55       -6.120055   1.000000
   56       -6.037470   1.000000
   57       -5.966122   1.000000
   58       -5.941707   1.000000
   59       -5.896982   1.000000
   60       -5.769906   1.000000
   61       -5.743009   1.000000
   62       -5.727979   1.000000
   63       -5.648367   1.000000
   64       -5.415035   1.000000
   65       -5.170336   1.000000
   66       -5.059150   1.000000
   67       -4.927334   1.000000
   68       -4.873420   1.000000
   69       -4.808702   1.000000
   70       -4.689012   1.000000
   71       -4.637440   1.000000
   72       -4.352432   1.000000
   73       -4.281929   1.000000
   74       -4.225897   1.000000
   75       -4.173823   1.000000
   76       -4.030532   1.000000
   77       -3.873454   1.000000
   78       -3.648881   0.999701
   79       -3.389389   0.944912
   80       -3.068236   0.250317
   81       -2.985358   0.103920
   82       -2.922796   0.044386
   83       -2.750718   0.001758
   84       -2.705707   0.000604
   85       -2.601315   0.000035
   86       -2.529275   0.000004
   87       -2.472167   0.000001
   88       -2.206024   0.000000
   89       -2.082326   0.000000
   90       -2.027746   0.000000
   91       -1.861452   0.000000
   92       -1.533152   0.000000
   93       -1.337700   0.000000
   94       -1.238233   0.000000
   95       -1.232014   0.000000
   96       -1.139510   0.000000
   97       -1.029527   0.000000
   98       -0.936029   0.000000
   99       -0.894196   0.000000
  100       -0.798288   0.000000
  101       -0.760477   0.000000
  102       -0.704444   0.000000
  103       -0.646311   0.000000
  104       -0.588098   0.000000
  105       -0.490342   0.000000
  106       -0.289028   0.000000
  107       -0.192041   0.000000
  108       -0.039240   0.000000
  109        0.055589   0.000000
  110        0.189635   0.000000
  111        0.337664   0.000000
  112        0.476844   0.000000
  113        0.833883   0.000000
  114        0.868403   0.000000
  115        1.125499   0.000000
  116        1.312410   0.000000
  117        1.480764   0.000000
  118        2.003931   0.000000
  119        2.157732   0.000000
  120        2.467407   0.000000
 
  0.5000000E+00  0.1110223E-15  0.0000000E+00  0.1562500E-01
    1      -17.486674   1.000000
    2      -17.329968   1.000000
    3      -16.725758   1.000000
    4      -16.683308   1.000000
    5      -16.536816   1.000000
    6      -16.479631   1.000000
    7      -16.230948   1.000000
    8      -16.162540   1.000000
    9      -16.124022   1.000000
   10      -16.074305   1.000000
   11      -15.851998   1.000000
   12      -15.839497   1.000000
   13      -15.760883   1.000000
   14      -15.696690   1.000000
   15      -15.668363   1.000000
   16      -15.500130   1.000000
   17      -15.483299   1.000000
   18      -15.397962   1.000000
   19       -9.811807   1.000000
   20       -9.422241   1.000000
   21       -9.138849   1.000000
   22       -9.064195   1.000000
   23       -8.845174   1.000000
   24       -8.753543   1.000000
   25       -8.670863   1.000000
   26       -8.543367   1.000000
   27       -8.452872   1.000000
   28       -8.367403   1.000000
   29       -8.203953   1.000000
   30       -8.165329   1.000000
   31       -8.053677   1.000000
   32       -7.960253   1.000000
   33       -7.858347   1.000000
   34       -7.800984   1.000000
   35       -7.763774   1.000000
   36       -7.690416   1.000000
   37       -7.622967   1.000000
   38       -7.524296   1.000000
   39       -7.394100   1.000000
   40       -7.270809   1.000000
   41       -7.058614   1.000000
   42       -7.008667   1.000000
   43       -6.923981   1.000000
   44       -6.889006   1.000000
   45       -6.851614   1.000000
   46       -6.775299   1.000000
   47       -6.665576   1.000000
   48       -6.616076   1.000000
   49       -6.551829   1.000000
   50       -6.522591   1.000000
   51       -6.465980   1.000000
   52       -6.399830   1.000000
   53       -6.269686   1.000000
   54       -6.215620   1.000000
   55       -6.098811   1.000000
   56       -6.036119   1.000000
   57       -6.000545   1.000000
   58       -5.971878   1.000000
   59       -5.860383   1.000000
   60       -5.789194   1.000000
   61       -5.786757   1.000000
   62       -5.709205   1.000000
   63       -5.670360   1.000000
   64       -5.455290   1.000000
   65       -5.366028   1.000000
   66       -5.006346   1.000000
   67       -4.993046   1.000000
   68       -4.903882   1.000000
   69       -4.818051   1.000000
   70       -4.665773   1.000000
   71       -4.600766   1.000000
   72       -4.327665   1.000000
   73       -4.326190   1.000000
   74       -4.242883   1.000000
   75       -4.192357   1.000000
   76       -3.982295   1.000000
   77       -3.791980   0.999996
   78       -3.633175   0.999552
   79       -3.340221   0.894301
   80       -3.107300   0.345583
   81       -2.951344   0.066801
   82       -2.919829   0.042454
   83       -2.736780   0.001275
   84       -2.696217   0.000476
   85       -2.630310   0.000082
   86       -2.541840   0.000006
   87       -2.476535   0.000001
   88       -2.202437   0.000000
   89       -2.048656   0.000000
   90       -2.033089   0.000000
   91       -1.833107   0.000000
   92       -1.510681   0.000000
   93       -1.337221   0.000000
   94       -1.253418   0.000000
   95       -1.225593   0.000000
   96       -1.137063   0.000000
   97       -1.053885   0.000000
   98       -0.973379   0.000000
   99       -0.898940   0.000000
  100       -0.852256   0.000000
  101       -0.752474   0.000000
  102       -0.715384   0.000000
  103       -0.661731   0.000000
  104       -0.655284   0.000000
  105       -0.562537   0.000000
  106       -0.297586   0.000000
  107       -0.230230   0.000000
  108       -0.075667   0.000000
  109        0.022635   0.000000
  110        0.207604   0.000000
  111        0.341488   0.000000
  112        0.458733   0.000000
  113        0.829981   0.000000
  114        0.882450   0.000000
  115        1.164285   0.000000
  116        1.367532   0.000000
  117        1.530398   0.000000
  118        2.234081   0.000000
  119        2.250901   0.000000
  120        2.375216   0.000000
 
  0.0000000E+00  0.1250000E+00  0.0000000E+00  0.3125000E-01
    1      -17.786874   1.000000
    2      -16.765005   1.000000
    3      -16.613860   1.000000
    4      -16.606698   1.000000
    5      -16.564758   1.000000
    6      -16.378843   1.000000
    7      -16.363986   1.000000
    8      -16.281079   1.000000
    9      -16.162570   1.000000
   10      -16.154930   1.000000
   11      -15.992669   1.000000
   12      -15.934853   1.000000
   13      -15.870841   1.000000
   14      -15.699125   1.000000
   15      -15.605230   1.000000
   16      -15.534221   1.000000
   17      -15.464862   1.000000
   18      -15.328596   1.000000
   19       -9.306652   1.000000
   20       -9.137981   1.000000
   21       -8.992227   1.000000
   22       -8.881458   1.000000
   23       -8.835650   1.000000
   24       -8.800513   1.000000
   25       -8.595745   1.000000
   26       -8.584833   1.000000
   27       -8.505352   1.000000
   28       -8.410069   1.000000
   29       -8.391859   1.000000
   30       -8.204366   1.000000
   31       -8.162110   1.000000
   32       -8.026936   1.000000
   33       -7.961580   1.000000
   34       -7.831208   1.000000
   35       -7.804214   1.000000
   36       -7.801203   1.000000
   37       -7.680166   1.000000
   38       -7.647181   1.000000
   39       -7.478223   1.000000
   40       -7.472799   1.000000
   41       -7.245847   1.000000
   42       -7.197134   1.000000
   43       -7.052448   1.000000
   44       -7.018277   1.000000
   45       -6.943520   1.000000
   46       -6.817940   1.000000
   47       -6.687375   1.000000
   48       -6.609480   1.000000
   49       -6.579667   1.000000
   50       -6.506347   1.000000
   51       -6.450696   1.000000
   52       -6.424045   1.000000
   53       -6.328771   1.000000
   54       -6.321091   1.000000
   55       -6.284978   1.000000
   56       -6.194063   1.000000
   57       -5.975107   1.000000
   58       -5.958930   1.000000
   59       -5.633021   1.000000
   60       -5.576504   1.000000
   61       -5.486683   1.000000
   62       -5.413139   1.000000
   63       -5.278089   1.000000
   64       -5.186189   1.000000
   65       -5.098914   1.000000
   66       -5.046268   1.000000
   67       -4.969767   1.000000
   68       -4.878852   1.000000
   69       -4.870194   1.000000
   70       -4.674283   1.000000
   71       -4.560142   1.000000
   72       -4.513599   1.000000
   73       -4.455949   1.000000
   74       -4.185330   1.000000
   75       -4.181793   1.000000
   76       -4.075586   1.000000
   77       -3.742792   0.999979
   78       -3.719004   0.999957
   79       -3.462716   0.982823
   80       -3.241962   0.710530
   81       -3.180010   0.546518
   82       -2.860745   0.016150
   83       -2.822485   0.007950
   84       -2.634211   0.000091
   85       -2.483645   0.000001
   86       -2.466980   0.000000
   87       -2.309130   0.000000
   88       -2.283862   0.000000
   89       -2.241351   0.000000
   90       -2.041918   0.000000
   91       -1.934064   0.000000
   92       -1.728141   0.000000
   93       -1.415116   0.000000
   94       -1.404163   0.000000
   95       -1.134461   0.000000
   96       -1.100156   0.000000
   97       -1.010226   0.000000
   98       -0.864696   0.000000
   99       -0.830419   0.000000
  100       -0.655561   0.000000
  101       -0.609508   0.000000
  102       -0.556785   0.000000
  103       -0.436444   0.000000
  104       -0.365976   0.000000
  105       -0.108057   0.000000
  106       -0.067096   0.000000
  107       -0.021689   0.000000
  108        0.058515   0.000000
  109        0.188386   0.000000
  110        0.294231   0.000000
  111        0.350437   0.000000
  112        0.445271   0.000000
  113        0.652461   0.000000
  114        0.732424   0.000000
  115        1.016877   0.000000
  116        1.079574   0.000000
  117        1.232317   0.000000
  118        1.693058   0.000000
  119        1.873514   0.000000
  120        2.189494   0.000000
 
  0.1250000E+00  0.1250000E+00  0.0000000E+00  0.3125000E-01
    1      -17.738175   1.000000
    2      -16.863473   1.000000
    3      -16.790479   1.000000
    4      -16.611538   1.000000
    5      -16.466106   1.000000
    6      -16.396876   1.000000
    7      -16.298298   1.000000
    8      -16.273822   1.000000
    9      -16.209992   1.000000
   10      -16.069740   1.000000
   11      -15.997308   1.000000
   12      -15.880646   1.000000
   13      -15.805075   1.000000
   14      -15.691927   1.000000
   15      -15.623272   1.000000
   16      -15.556050   1.000000
   17      -15.479112   1.000000
   18      -15.336725   1.000000
   19       -9.374438   1.000000
   20       -9.277669   1.000000
   21       -9.151461   1.000000
   22       -9.040553   1.000000
   23       -8.836859   1.000000
   24       -8.675947   1.000000
   25       -8.589263   1.000000
   26       -8.569078   1.000000
   27       -8.494273   1.000000
   28       -8.387431   1.000000
   29       -8.317888   1.000000
   30       -8.202685   1.000000
   31       -8.115438   1.000000
   32       -8.032731   1.000000
   33       -7.956616   1.000000
   34       -7.830612   1.000000
   35       -7.711837   1.000000
   36       -7.638783   1.000000
   37       -7.618063   1.000000
   38       -7.548896   1.000000
   39       -7.457796   1.000000
   40       -7.356716   1.000000
   41       -7.294156   1.000000
   42       -7.189396   1.000000
   43       -7.068423   1.000000
   44       -7.027440   1.000000
   45       -6.941275   1.000000
   46       -6.853739   1.000000
   47       -6.776153   1.000000
   48       -6.670695   1.000000
   49       -6.577549   1.000000
   50       -6.487138   1.000000
   51       -6.465995   1.000000
   52       -6.374696   1.000000
   53       -6.329441   1.000000
   54       -6.301815   1.000000
   55       -6.201058   1.000000
   56       -6.169451   1.000000
   57       -5.982335   1.000000
   58       -5.892200   1.000000
   59       -5.699911   1.000000
   60       -5.574849   1.000000
   61       -5.542727   1.000000
   62       -5.455776   1.000000
   63       -5.416825   1.000000
   64       -5.274105   1.000000
   65       -5.166602   1.000000
   66       -5.095356   1.000000
   67       -5.018272   1.000000
   68       -4.953678   1.000000
   69       -4.847476   1.000000
   70       -4.625079   1.000000
   71       -4.498129   1.000000
   72       -4.403359   1.000000
   73       -4.371691   1.000000
   74       -4.193822   1.000000
   75       -4.093560   1.000000
   76       -4.040957   1.000000
   77       -3.893604   1.000000
   78       -3.819119   0.999998
   79       -3.469362   0.984725
   80       -3.141122   0.437183
   81       -3.066815   0.247131
   82       -2.876521   0.021223
   83       -2.792884   0.004390
   84       -2.648435   0.000135
   85       -2.507651   0.000002
   86       -2.476714   0.000001
   87       -2.413541   0.000000
   88       -2.208051   0.000000
   89       -2.180257   0.000000
   90       -2.038264   0.000000
   91       -1.924347   0.000000
   92       -1.678036   0.000000
   93       -1.400977   0.000000
   94       -1.363605   0.000000
   95       -1.172024   0.000000
   96       -1.108790   0.000000
   97       -0.999102   0.000000
   98       -0.865708   0.000000
   99       -0.846274   0.000000
  100       -0.765144   0.000000
  101       -0.698132   0.000000
  102       -0.620467   0.000000
  103       -0.544713   0.000000
  104       -0.393354   0.000000
  105       -0.241669   0.000000
  106       -0.156193   0.000000
  107       -0.052354   0.000000
  108       -0.034800   0.000000
  109        0.132866   0.000000
  110        0.241901   0.000000
  111        0.381342   0.000000
  112        0.494868   0.000000
  113        0.699571   0.000000
  114        0.785269   0.000000
  115        1.078755   0.000000
  116        1.181387   0.000000
  117        1.294761   0.000000
  118        1.775367   0.000000
  119        1.949096   0.000000
  120        2.259064   0.000000
 
  0.2500000E+00  0.1250000E+00  0.0000000E+00  0.3125000E-01
    1      -17.642788   1.000000
    2      -17.061181   1.000000
    3      -16.880973   1.000000
    4      -16.594718   1.000000
    5      -16.464378   1.000000
    6      -16.382890   1.000000
    7      -16.300170   1.000000
    8      -16.214730   1.000000
    9      -16.179676   1.000000
   10      -16.028753   1.000000
   11      -16.003672   1.000000
   12      -15.827877   1.000000
   13      -15.719821   1.000000
   14      -15.698451   1.000000
   15      -15.644890   1.000000
   16      -15.579215   1.000000
   17      -15.479719   1.000000
   18      -15.353587   1.000000
   19       -9.605899   1.000000
   20       -9.392755   1.000000
   21       -9.276990   1.000000
   22       -9.024020   1.000000
   23       -8.838821   1.000000
   24       -8.632609   1.000000
   25       -8.577210   1.000000
   26       -8.491235   1.000000
   27       -8.444355   1.000000
   28       -8.370232   1.000000
   29       -8.283680   1.000000
   30       -8.221777   1.000000
   31       -8.103064   1.000000
   32       -8.027074   1.000000
   33       -7.958638   1.000000
   34       -7.911373   1.000000
   35       -7.736353   1.000000
   36       -7.555717   1.000000
   37       -7.525775   1.000000
   38       -7.424539   1.000000
   39       -7.400685   1.000000
   40       -7.322408   1.000000
   41       -7.207214   1.000000
   42       -7.087967   1.000000
   43       -7.074337   1.000000
   44       -6.961244   1.000000
   45       -6.904309   1.000000
   46       -6.853363   1.000000
   47       -6.741567   1.000000