       N       E                     dE             d eps       ncg     rms          rms(c)
DAV:   1     0.112389723821E+04    0.11239E+04   -0.35862E+04  8160   0.577E+02
DAV:   2    -0.284490618889E+01   -0.11267E+04   -0.10838E+04 11240   0.173E+02
DAV:   3    -0.199871629421E+03   -0.19703E+03   -0.18951E+03 10880   0.821E+01
DAV:   4    -0.209061466617E+03   -0.91898E+01   -0.89254E+01 12240   0.262E+01
DAV:   5    -0.209354742418E+03   -0.29328E+00   -0.29245E+00 11400   0.350E+00    0.277E+01
DAV:   6    -0.240941264307E+03   -0.31587E+02   -0.11679E+02 12560   0.599E+01    0.606E+01
DAV:   7    -0.196276092203E+03    0.44665E+02   -0.17758E+02 13200   0.151E+02    0.199E+01
DAV:   8    -0.189530330259E+03    0.67458E+01   -0.18726E+01 12160   0.128E+01    0.126E+01
DAV:   9    -0.188082116838E+03    0.14482E+01   -0.31485E+00 12600   0.622E+00    0.892E+00
DAV:  10    -0.186929286054E+03    0.11528E+01   -0.16051E+00 13440   0.743E+00    0.205E+00
DAV:  11    -0.187075985231E+03   -0.14670E+00   -0.65691E-01 13360   0.394E+00    0.459E+00
DAV:  12    -0.186924902937E+03    0.15108E+00   -0.64238E-01 12720   0.439E+00    0.283E+00
DAV:  13    -0.186854811740E+03    0.70091E-01   -0.18209E-01 13000   0.225E+00    0.144E+00
DAV:  14    -0.186843084096E+03    0.11728E-01   -0.89048E-02 12760   0.166E+00    0.134E+00
DAV:  15    -0.186829883796E+03    0.13200E-01   -0.35420E-02 12920   0.902E-01    0.485E-01
DAV:  16    -0.186827564782E+03    0.23190E-02   -0.74178E-03 12280   0.285E-01    0.280E-01
DAV:  17    -0.186826247380E+03    0.13174E-02   -0.48729E-03 12720   0.294E-01    0.208E-01
DAV:  18    -0.186825742657E+03    0.50472E-03   -0.17054E-03 12680   0.200E-01    0.707E-02
DAV:  19    -0.186826391521E+03   -0.64886E-03   -0.89253E-04 10640   0.982E-02    0.758E-02
DAV:  20    -0.186826871850E+03   -0.48033E-03   -0.28198E-04  7640   0.461E-02    0.682E-02
DAV:  21    -0.186827921293E+03   -0.10494E-02   -0.27324E-04  7520   0.533E-02    0.195E-02
DAV:  22    -0.186829002668E+03   -0.10814E-02   -0.10852E-04  8080   0.245E-02    0.208E-02
DAV:  23    -0.186829477962E+03   -0.47529E-03   -0.32155E-05  6200   0.174E-02    0.107E-02
DAV:  24    -0.186830125619E+03   -0.64766E-03   -0.39316E-05  7200   0.158E-02    0.650E-03
DAV:  25    -0.186830475641E+03   -0.35002E-03   -0.90919E-06  6360   0.100E-02    0.288E-03
DAV:  26    -0.186830720424E+03   -0.24478E-03   -0.75193E-06  6800   0.630E-03    0.185E-03
DAV:  27    -0.186830789880E+03   -0.69457E-04   -0.24974E-06  7600   0.417E-03
   1 F= -.18683079E+03 E0= -.18665787E+03  d E =-.186831E+03
       N       E                     dE             d eps       ncg     rms          rms(c)
DAV:   1    -0.187522373245E+03   -0.69165E+00   -0.27741E+02  8160   0.354E+01    0.466E+00
DAV:   2    -0.189505834045E+03   -0.19835E+01   -0.20310E+01 12240   0.154E+01    0.937E+00
DAV:   3    -0.189349725604E+03    0.15611E+00   -0.40683E+00 12560   0.122E+01    0.651E+00
DAV:   4    -0.188772444697E+03    0.57728E+00   -0.66756E-01 12800   0.449E+00    0.171E+00
DAV:   5    -0.188730399331E+03    0.42045E-01   -0.28278E-01 10400   0.157E+00    0.174E+00
DAV:   6    -0.188778673333E+03   -0.48274E-01   -0.33266E-01 13280   0.300E+00    0.316E+00
DAV:   7    -0.188711743795E+03    0.66930E-01   -0.19305E-01 12800   0.254E+00    0.137E+00
DAV:   8    -0.188688532270E+03    0.23212E-01   -0.43199E-02 11400   0.908E-01    0.443E-01
DAV:   9    -0.188689742099E+03   -0.12098E-02   -0.11958E-02 12440   0.560E-01    0.569E-01
DAV:  10    -0.188687577710E+03    0.21644E-02   -0.64116E-03 13080   0.415E-01    0.180E-01
DAV:  11    -0.188687076842E+03    0.50087E-03   -0.15766E-03 11520   0.125E-01    0.795E-02
DAV:  12    -0.188687162104E+03   -0.85262E-04   -0.52973E-04 10080   0.629E-02
   2 F= -.18868716E+03 E0= -.18854482E+03  d E =-.185637E+01
       N       E                     dE             d eps       ncg     rms          rms(c)
DAV:   1    -0.190627374713E+03   -0.19403E+01   -0.31767E+01  9160   0.143E+01    0.443E+00
DAV:   2    -0.190546155749E+03    0.81219E-01   -0.27598E+00 11640   0.910E+00    0.714E+00
DAV:   3    -0.190123091732E+03    0.42306E+00   -0.15128E+00 12440   0.840E+00    0.432E+00
DAV:   4    -0.189895379931E+03    0.22771E+00   -0.72115E-01 12680   0.437E+00    0.242E+00
DAV:   5    -0.189811797315E+03    0.83583E-01   -0.29892E-01 11880   0.202E+00    0.107E+00
DAV:   6    -0.189799809142E+03    0.11988E-01   -0.61365E-02 11920   0.132E+00    0.912E-01
DAV:   7    -0.189793638546E+03    0.61706E-02   -0.17593E-02 11640   0.731E-01    0.247E-01
DAV:   8    -0.189793305315E+03    0.33323E-03   -0.22221E-03 11720   0.161E-01    0.132E-01
DAV:   9    -0.189793833135E+03   -0.52782E-03   -0.11460E-03 10720   0.134E-01    0.178E-01
DAV:  10    -0.189793687870E+03    0.14527E-03   -0.12205E-03 10720   0.202E-01    0.174E-01
DAV:  11    -0.189793454047E+03    0.23382E-03   -0.48635E-04  9040   0.136E-01    0.304E-02
DAV:  12    -0.189793461070E+03   -0.70236E-05   -0.46545E-05  5920   0.281E-02
   3 F= -.18979346E+03 E0= -.18967181E+03  d E =-.110630E+01
       N       E                     dE             d eps       ncg     rms          rms(c)
DAV:   1    -0.191407758224E+03   -0.16143E+01   -0.83528E+01  8160   0.207E+01    0.459E+00
DAV:   2    -0.191159202201E+03    0.24856E+00   -0.53756E+00 12880   0.678E+00    0.378E+00
DAV:   3    -0.191375149397E+03   -0.21595E+00   -0.14894E+00 12240   0.850E+00    0.670E+00
DAV:   4    -0.190984075910E+03    0.39107E+00   -0.13500E+00 12240   0.811E+00    0.295E+00
DAV:   5    -0.190857451033E+03    0.12662E+00   -0.31894E-01 12200   0.253E+00    0.117E+00
DAV:   6    -0.190858554090E+03   -0.11031E-02   -0.12533E-01 12000   0.209E+00    0.166E+00
DAV:   7    -0.190838243893E+03    0.20310E-01   -0.66500E-02 11600   0.161E+00    0.557E-01
DAV:   8    -0.190834200318E+03    0.40436E-02   -0.78488E-03 11800   0.461E-01    0.253E-01
DAV:   9    -0.190834290431E+03   -0.90113E-04   -0.27642E-03 12600   0.327E-01    0.255E-01
DAV:  10    -0.190834031035E+03    0.25940E-03   -0.20488E-03 11080   0.228E-01    0.617E-02
DAV:  11    -0.190834028753E+03    0.22814E-05   -0.20719E-04  7040   0.586E-02
   4 F= -.19083403E+03 E0= -.19072619E+03  d E =-.104057E+01
       N       E                     dE             d eps       ncg     rms          rms(c)
DAV:   1    -0.192264609712E+03   -0.14306E+01   -0.19432E+02  8160   0.309E+01    0.584E+00
DAV:   2    -0.191972158531E+03    0.29245E+00   -0.10048E+01  9960   0.766E+00    0.325E+00
DAV:   3    -0.191845850963E+03    0.12631E+00   -0.15508E+00 10920   0.497E+00    0.360E+00
DAV:   4    -0.191864022540E+03   -0.18172E-01   -0.96114E-01 12160   0.703E+00    0.499E+00
DAV:   5    -0.191611641799E+03    0.25238E+00   -0.73331E-01 12320   0.572E+00    0.182E+00
DAV:   6    -0.191610270100E+03    0.13717E-02   -0.23131E-01 12240   0.296E+00    0.193E+00
DAV:   7    -0.191574822447E+03    0.35448E-01   -0.94100E-02 12280   0.205E+00    0.573E-01
DAV:   8    -0.191570987055E+03    0.38354E-02   -0.17172E-02 11560   0.706E-01    0.472E-01
DAV:   9    -0.191569517346E+03    0.14697E-02   -0.68431E-03 11920   0.503E-01    0.240E-01
DAV:  10    -0.191569356502E+03    0.16084E-03   -0.24607E-03 11600   0.227E-01    0.889E-02
DAV:  11    -0.191569309224E+03    0.47278E-04   -0.41067E-04  9680   0.833E-02
   5 F= -.19156931E+03 E0= -.19146134E+03  d E =-.735280E+00
       N       E                     dE             d eps       ncg     rms          rms(c)
DAV:   1    -0.191644727538E+03   -0.75371E-01   -0.54927E+00  8160   0.501E+00    0.769E-01
DAV:   2    -0.191722230938E+03   -0.77503E-01   -0.36113E-01 12480   0.328E+00    0.261E+00
DAV:   3    -0.191655779471E+03    0.66451E-01   -0.14296E-01 12480   0.253E+00    0.532E-01
DAV:   4    -0.191660508910E+03   -0.47294E-02   -0.29911E-02 10680   0.111E+00    0.912E-01
DAV:   5    -0.191651462501E+03    0.90464E-02   -0.16127E-02 10760   0.864E-01    0.229E-01
DAV:   6    -0.191651042708E+03    0.41979E-03   -0.45809E-03 11240   0.250E-01    0.127E-01
DAV:   7    -0.191650857001E+03    0.18571E-03   -0.14341E-03 11200   0.182E-01    0.143E-01
DAV:   8    -0.191650720570E+03    0.13643E-03   -0.65235E-04  8640   0.151E-01    0.675E-02
DAV:   9    -0.191650691765E+03    0.28805E-04   -0.11060E-04  6000   0.573E-02
   6 F= -.19165069E+03 E0= -.19154125E+03  d E =-.813825E-01
       N       E                     dE             d eps       ncg     rms          rms(c)
DAV:   1    -0.191728253948E+03   -0.77533E-01   -0.65101E+00  8160   0.538E+00    0.641E-01
DAV:   2    -0.191784168187E+03   -0.55914E-01   -0.24280E-01 13160   0.231E+00    0.225E+00
DAV:   3    -0.191736458808E+03    0.47709E-01   -0.11497E-01 12480   0.220E+00    0.534E-01
DAV:   4    -0.191738029680E+03   -0.15709E-02   -0.19295E-02 10480   0.869E-01    0.655E-01
DAV:   5    -0.191733205338E+03    0.48243E-02   -0.85946E-03 11080   0.668E-01    0.173E-01
DAV:   6    -0.191732983149E+03    0.22219E-03   -0.23706E-03 10560   0.190E-01    0.110E-01
DAV:   7    -0.191732856712E+03    0.12644E-03   -0.11306E-03 10920   0.153E-01    0.121E-01
DAV:   8    -0.191732784809E+03    0.71903E-04   -0.63705E-04  8520   0.147E-01
   7 F= -.19173278E+03 E0= -.19162282E+03  d E =-.820930E-01
       N       E                     dE             d eps       ncg     rms          rms(c)
DAV:   1    -0.191812286166E+03   -0.79429E-01   -0.68182E+00  8160   0.557E+00    0.761E-01
DAV:   2    -0.191903201548E+03   -0.90915E-01   -0.36029E-01 12200   0.328E+00    0.303E+00
DAV:   3    -0.191821201579E+03    0.82000E-01   -0.18033E-01 12440   0.274E+00    0.504E-01
DAV:   4    -0.191823691650E+03   -0.24901E-02   -0.21874E-02 10160   0.993E-01    0.726E-01
DAV:   5    -0.191817596676E+03    0.60950E-02   -0.11627E-02 11400   0.791E-01    0.228E-01
DAV:   6    -0.191817804334E+03   -0.20766E-03   -0.53341E-03 11440   0.354E-01    0.318E-01
DAV:   7    -0.191817787335E+03    0.16998E-04   -0.59915E-03 11440   0.453E-01    0.330E-01
DAV:   8    -0.191816711719E+03    0.10756E-02   -0.20449E-03 10160   0.247E-01    0.295E-02
DAV:   9    -0.191816736839E+03   -0.25120E-04   -0.11698E-04  6320   0.333E-02
   8 F= -.19181674E+03 E0= -.19170774E+03  d E =-.839520E-01
       N       E                     dE             d eps       ncg     rms          rms(c)
DAV:   1    -0.191921442018E+03   -0.10473E+00   -0.26234E+01  8160   0.109E+01    0.130E+00
DAV:   2    -0.192151898843E+03   -0.23046E+00   -0.11069E+00 11280   0.511E+00    0.466E+00
DAV:   3    -0.191966663595E+03    0.18524E+00   -0.47577E-01 12360   0.446E+00    0.884E-01
DAV:   4    -0.191957750879E+03    0.89127E-02   -0.33423E-02 12240   0.956E-01    0.626E-01
DAV:   5    -0.191956603122E+03    0.11478E-02   -0.22387E-02 11480   0.114E+00    0.689E-01
DAV:   6    -0.191953803983E+03    0.27991E-02   -0.20916E-02 12600   0.929E-01    0.518E-01
DAV:   7    -0.191954979078E+03   -0.11751E-02   -0.18236E-02 11880   0.807E-01    0.679E-01
DAV:   8    -0.191950667435E+03    0.43116E-02   -0.78520E-03 11880   0.529E-01    0.598E-02
DAV:   9    -0.191950695967E+03   -0.28532E-04   -0.48216E-04 10200   0.679E-02
   9 F= -.19195070E+03 E0= -.19184697E+03  d E =-.133959E+00
       N       E                     dE             d eps       ncg     rms          rms(c)
DAV:   1    -0.191965005919E+03   -0.14338E-01   -0.54775E-01  8160   0.169E+00    0.333E-01
DAV:   2    -0.191964874160E+03    0.13176E-03   -0.28450E-02 10440   0.668E-01    0.414E-01
DAV:   3    -0.191964546942E+03    0.32722E-03   -0.98250E-03 11520   0.721E-01    0.395E-01
DAV:   4    -0.191963152631E+03    0.13943E-02   -0.57396E-03 11320   0.489E-01    0.293E-01
DAV:   5    -0.191963006113E+03    0.14652E-03   -0.37835E-03 10640   0.440E-01    0.277E-01
DAV:   6    -0.191962103185E+03    0.90293E-03   -0.18040E-03 10760   0.283E-01    0.472E-02
DAV:   7    -0.191962204802E+03   -0.10162E-03   -0.42236E-04  8760   0.118E-01    0.119E-01
DAV:   8    -0.191962078755E+03    0.12605E-03   -0.25817E-04  7480   0.100E-01    0.233E-02
DAV:   9    -0.191962080648E+03   -0.18926E-05   -0.21297E-05  6280   0.215E-02
  10 F= -.19196208E+03 E0= -.19185849E+03  d E =-.113847E-01
       N       E                     dE             d eps       ncg     rms          rms(c)
DAV:   1    -0.191991066142E+03   -0.28987E-01   -0.18449E+00  8160   0.287E+00    0.323E-01
DAV:   2    -0.191999681003E+03   -0.86149E-02   -0.64895E-02 10680   0.990E-01    0.756E-01
DAV:   3    -0.191995014703E+03    0.46663E-02   -0.17201E-02 12600   0.912E-01    0.347E-01
DAV:   4    -0.191993990570E+03    0.10241E-02   -0.30970E-03 11400   0.326E-01    0.172E-01
DAV:   5    -0.191993937760E+03    0.52810E-04   -0.18058E-03 11400   0.311E-01    0.191E-01
DAV:   6    -0.191993802622E+03    0.13514E-03   -0.14813E-03 10600   0.249E-01    0.167E-01
DAV:   7    -0.191993787478E+03    0.15144E-04   -0.13731E-03  9640   0.229E-01    0.163E-01
DAV:   8    -0.191993524552E+03    0.26293E-03   -0.45852E-04  8320   0.133E-01    0.169E-02
DAV:   9    -0.191993535169E+03   -0.10617E-04   -0.40503E-05  6400   0.220E-02
  11 F= -.19199354E+03 E0= -.19189209E+03  d E =-.314545E-01
       N       E                     dE             d eps       ncg     rms          rms(c)
DAV:   1    -0.192014236468E+03   -0.20712E-01   -0.78299E-01  8160   0.190E+00    0.229E-01
DAV:   2    -0.192016648523E+03   -0.24121E-02   -0.27251E-02 11640   0.566E-01    0.393E-01
DAV:   3    -0.192015921304E+03    0.72722E-03   -0.64409E-03 12680   0.555E-01    0.293E-01
DAV:   4    -0.192015056877E+03    0.86443E-03   -0.18810E-03 11040   0.267E-01    0.113E-01
DAV:   5    -0.192015293542E+03   -0.23667E-03   -0.13272E-03 10440   0.227E-01    0.222E-01
DAV:   6    -0.192014943628E+03    0.34991E-03   -0.12071E-03  9160   0.209E-01    0.853E-02
DAV:   7    -0.192014928886E+03    0.14742E-04   -0.30222E-04  8520   0.125E-01
  12 F= -.19201493E+03 E0= -.19191507E+03  d E =-.213937E-01
       N       E                     dE             d eps       ncg     rms          rms(c)
DAV:   1    -0.192023875516E+03   -0.89319E-02   -0.13898E-01  8160   0.807E-01    0.926E-02
DAV:   2    -0.192024154605E+03   -0.27909E-03   -0.42998E-03 12040   0.185E-01    0.104E-01
DAV:   3    -0.192024282137E+03   -0.12753E-03   -0.90988E-04 10920   0.215E-01    0.162E-01
DAV:   4    -0.192024041076E+03    0.24106E-03   -0.46295E-04  8440   0.149E-01    0.523E-02
DAV:   5    -0.192024064629E+03   -0.23552E-04   -0.18045E-04  6480   0.893E-02
  13 F= -.19202406E+03 E0= -.19192483E+03  d E =-.913574E-02
       N       E                     dE             d eps       ncg     rms          rms(c)
DAV:   1    -0.192018992708E+03    0.50484E-02   -0.15384E-01  8160   0.884E-01    0.169E-01
DAV:   2    -0.192021302442E+03   -0.23097E-02   -0.10732E-02 11720   0.514E-01    0.556E-01
DAV:   3    -0.192018859839E+03    0.24426E-02   -0.69008E-03 11000   0.508E-01    0.171E-01
DAV:   4    -0.192018668612E+03    0.19123E-03   -0.10662E-03  9600   0.160E-01    0.113E-01
DAV:   5    -0.192018673548E+03   -0.49356E-05   -0.75614E-04  8800   0.190E-01
  14 F= -.19201867E+03 E0= -.19191856E+03  d E =0.539108E-02
       N       E                     dE             d eps       ncg     rms          rms(c)
DAV:   1    -0.192062422497E+03   -0.43754E-01   -0.28827E+00  8160   0.372E+00    0.486E-01
DAV:   2    -0.192068648743E+03   -0.62262E-02   -0.92371E-02 11840   0.102E+00    0.793E-01
DAV:   3    -0.192067462210E+03    0.11865E-02   -0.30488E-02 11800   0.113E+00    0.710E-01
DAV:   4    -0.192063449179E+03    0.40130E-02   -0.13253E-02 12080   0.688E-01    0.397E-01
DAV:   5    -0.192063231730E+03    0.21745E-03   -0.77827E-03  9960   0.595E-01    0.427E-01
DAV:   6    -0.192061567124E+03    0.16646E-02   -0.46018E-03 11480   0.420E-01    0.120E-01
DAV:   7    -0.192061433569E+03    0.13356E-03   -0.85508E-04 10240   0.156E-01    0.712E-02
DAV:   8    -0.192061374738E+03    0.58831E-04   -0.20310E-04  8720   0.112E-01
  15 F= -.19206137E+03 E0= -.19196487E+03  d E =-.427012E-01
       N       E                     dE             d eps       ncg     rms          rms(c)
DAV:   1    -0.192078220015E+03   -0.16786E-01   -0.42444E-01  8160   0.140E+00    0.163E-01
DAV:   2    -0.192078953142E+03   -0.73313E-03   -0.13294E-02 11880   0.317E-01    0.153E-01
DAV:   3    -0.192079741047E+03   -0.78790E-03   -0.33068E-03 11800   0.360E-01    0.346E-01
DAV:   4    -0.192078676294E+03    0.10648E-02   -0.21174E-03  9800   0.287E-01    0.771E-02
DAV:   5    -0.192078736151E+03   -0.59857E-04   -0.38951E-04  8320   0.134E-01
  16 F= -.19207874E+03 E0= -.19198308E+03  d E =-.173614E-01
       N       E                     dE             d eps       ncg     rms          rms(c)
DAV:   1    -0.192061447175E+03    0.17229E-01   -0.58618E-01  8160   0.176E+00    0.335E-01
DAV:   2    -0.192064955507E+03   -0.35083E-02   -0.34440E-02 11800   0.856E-01    0.708E-01
DAV:   3    -0.192061463339E+03    0.34922E-02   -0.16319E-02 11520   0.884E-01    0.419E-01
DAV:   4    -0.192060719147E+03    0.74419E-03   -0.64045E-03 10920   0.509E-01    0.355E-01
DAV:   5    -0.192059937499E+03    0.78165E-03   -0.44667E-03 11200   0.485E-01    0.254E-01
DAV:   6    -0.192059576443E+03    0.36106E-03   -0.22378E-03  9880   0.300E-01    0.183E-01
DAV:   7    -0.192059240408E+03    0.33603E-03   -0.84660E-04  9080   0.214E-01    0.562E-02
DAV:   8    -0.192059214087E+03    0.26321E-04   -0.12037E-04  6400   0.625E-02
  17 F= -.19205921E+03 E0= -.19196333E+03  d E =0.195221E-01
       N       E                     dE             d eps       ncg     rms          rms(c)
DAV:   1    -0.192000513821E+03    0.58727E-01   -0.51053E+00  8160   0.487E+00    0.575E-01
DAV:   2    -0.192011498422E+03   -0.10985E-01   -0.15435E-01 12200   0.124E+00    0.832E-01
DAV:   3    -0.192013145890E+03   -0.16475E-02   -0.42401E-02 11120   0.133E+00    0.924E-01
DAV:   4    -0.192006152577E+03    0.69933E-02   -0.18805E-02 12360   0.838E-01    0.477E-01
DAV:   5    -0.192005126200E+03    0.10264E-02   -0.97321E-03 10160   0.636E-01    0.420E-01
DAV:   6    -0.192004212031E+03    0.91417E-03   -0.51826E-03 12600   0.442E-01    0.239E-01
DAV:   7    -0.192003953558E+03    0.25847E-03   -0.26294E-03 10800   0.391E-01    0.195E-01
DAV:   8    -0.192003444994E+03    0.50856E-03   -0.78254E-04 10240   0.219E-01    0.293E-02
DAV:   9    -0.192003449340E+03   -0.43457E-05   -0.85400E-05  6320   0.351E-02
  18 F= -.19200345E+03 E0= -.19190327E+03  d E =0.557647E-01
       N       E                     dE             d eps       ncg     rms          rms(c)
DAV:   1    -0.192003875161E+03   -0.43017E-03   -0.70999E-01  8160   0.187E+00    0.305E-01
DAV:   2    -0.192004411826E+03   -0.53667E-03   -0.31671E-02 11760   0.576E-01    0.331E-01
DAV:   3    -0.192005650935E+03   -0.12391E-02   -0.10315E-02 12280   0.667E-01    0.525E-01
DAV:   4    -0.192003666222E+03    0.19847E-02   -0.80909E-03 10560   0.542E-01    0.317E-01
DAV:   5    -0.192003181009E+03    0.48521E-03   -0.34883E-03 10000   0.396E-01    0.219E-01
DAV:   6    -0.192002755065E+03    0.42594E-03   -0.16647E-03 10280   0.247E-01    0.129E-01
DAV:   7    -0.192002670550E+03    0.84515E-04   -0.64220E-04  8440   0.182E-01
  19 F= -.19200267E+03 E0= -.19190079E+03  d E =0.778790E-03
       N       E                     dE             d eps       ncg     rms          rms(c)
DAV:   1    -0.191979363561E+03    0.23392E-01   -0.47324E+00  8160   0.469E+00    0.513E-01
DAV:   2    -0.191986503608E+03   -0.71400E-02   -0.11326E-01 12760   0.988E-01    0.598E-01
DAV:   3    -0.191989941572E+03   -0.34380E-02   -0.29889E-02 12320   0.116E+00    0.877E-01
DAV:   4    -0.191983057321E+03    0.68843E-02   -0.14871E-02 11800   0.774E-01    0.314E-01
DAV:   5    -0.191983731708E+03   -0.67439E-03   -0.84379E-03 11040   0.535E-01    0.503E-01
DAV:   6    -0.191982191698E+03    0.15400E-02   -0.68598E-03 11080   0.486E-01    0.228E-01
DAV:   7    -0.191982069517E+03    0.12218E-03   -0.22014E-03 10880   0.323E-01    0.196E-01
DAV:   8    -0.191981585726E+03    0.48379E-03   -0.74100E-04  9400   0.213E-01    0.251E-02
DAV:   9    -0.191981592181E+03   -0.64544E-05   -0.61008E-05  6360   0.308E-02
  20 F= -.19198159E+03 E0= -.19187760E+03  d E =0.210784E-01
       N       E                     dE             d eps       ncg     rms          rms(c)
DAV:   1    -0.191996530872E+03   -0.14945E-01   -0.78863E-01  8160   0.199E+00    0.361E-01
DAV:   2    -0.192000563920E+03   -0.40330E-02   -0.43495E-02 10960   0.915E-01    0.756E-01
DAV:   3    -0.191996513087E+03    0.40508E-02   -0.17096E-02 11960   0.908E-01    0.383E-01
DAV:   4    -0.191995197113E+03    0.13160E-02   -0.50122E-03 11800   0.423E-01    0.270E-01
DAV:   5    -0.191995572742E+03   -0.37563E-03   -0.52953E-03 11240   0.448E-01    0.379E-01
DAV:   6    -0.191994504204E+03    0.10685E-02   -0.34797E-03 10880   0.333E-01    0.159E-01
DAV:   7    -0.191994336294E+03    0.16791E-03   -0.89107E-04  8800   0.218E-01    0.779E-02
DAV:   8    -0.191994252771E+03    0.83522E-04   -0.14078E-04  6760   0.823E-02
  21 F= -.19199425E+03 E0= -.19189050E+03  d E =-.126606E-01
       N       E                     dE             d eps       ncg     rms          rms(c)
DAV:   1    -0.192002441248E+03   -0.81050E-02   -0.36095E-01  8160   0.129E+00    0.168E-01
DAV:   2    -0.192003902194E+03   -0.14609E-02   -0.14571E-02 10560   0.512E-01    0.301E-01
DAV:   3    -0.192003211125E+03    0.69107E-03   -0.35004E-03 12600   0.433E-01    0.194E-01
DAV:   4    -0.192003192182E+03    0.18943E-04   -0.18162E-03 10200   0.257E-01    0.216E-01
DAV:   5    -0.192002842452E+03    0.34973E-03   -0.11908E-03  9120   0.218E-01    0.977E-02
DAV:   6    -0.192002898069E+03   -0.55617E-04   -0.52566E-04  9160   0.143E-01
  22 F= -.19200290E+03 E0= -.19190055E+03  d E =-.864530E-02
       N       E                     dE             d eps       ncg     rms          rms(c)
DAV:   1    -0.192012678614E+03   -0.98362E-02   -0.45549E-01  8160   0.145E+00    0.167E-01
DAV:   2    -0.192013758242E+03   -0.10796E-02   -0.13462E-02 12120   0.370E-01    0.271E-01
DAV:   3    -0.192013705130E+03    0.53113E-04   -0.41335E-03 12440   0.392E-01    0.270E-01
DAV:   4    -0.192013313277E+03    0.39185E-03   -0.17958E-03 10000   0.252E-01    0.165E-01
DAV:   5    -0.192013078646E+03    0.23463E-03   -0.74946E-04  8880   0.210E-01    0.843E-02
DAV:   6    -0.192013144745E+03   -0.66099E-04   -0.44455E-04  9160   0.140E-01
  23 F= -.19201314E+03 E0= -.19191160E+03  d E =-.102467E-01
       N       E                     dE             d eps       ncg     rms          rms(c)
DAV:   1    -0.191997696840E+03    0.15382E-01   -0.10504E+00  8160   0.220E+00    0.266E-01
DAV:   2    -0.192001507112E+03   -0.38103E-02   -0.32607E-02 11880   0.709E-01    0.578E-01
DAV:   3    -0.191999065432E+03    0.24417E-02   -0.10778E-02 10720   0.647E-01    0.321E-01
DAV:   4    -0.191999053802E+03    0.11631E-04   -0.46380E-03 10960   0.402E-01    0.331E-01
DAV:   5    -0.191998233476E+03    0.82033E-03   -0.28618E-03  9680   0.351E-01    0.169E-01
DAV:   6    -0.191998143374E+03    0.90103E-04   -0.12219E-03 10120   0.233E-01    0.147E-01
DAV:   7    -0.191997987546E+03    0.15583E-03   -0.69402E-04  9280   0.200E-01    0.707E-02
DAV:   8    -0.191997913646E+03    0.73901E-04   -0.11447E-04  6480   0.712E-02
  24 F= -.19199791E+03 E0= -.19189486E+03  d E =0.152311E-01
       N       E                     dE             d eps       ncg     rms          rms(c)
DAV:   1    -0.192020341339E+03   -0.22354E-01   -0.21048E+00  8160   0.316E+00    0.414E-01
DAV:   2    -0.192026869166E+03   -0.65278E-02   -0.69635E-02 11880   0.102E+00    0.828E-01
DAV:   3    -0.192022979920E+03    0.38892E-02   -0.22989E-02 11880   0.976E-01    0.500E-01
DAV:   4    -0.192022730834E+03    0.24909E-03   -0.11056E-02 12160   0.644E-01    0.527E-01
DAV:   5    -0.192020525263E+03    0.22056E-02   -0.73856E-03 10080   0.562E-01    0.267E-01
DAV:   6    -0.192020391727E+03    0.13354E-03   -0.31844E-03 10840   0.372E-01    0.244E-01
DAV:   7    -0.192019875651E+03    0.51608E-03   -0.16659E-03 10280   0.312E-01    0.926E-02
DAV:   8    -0.192019729207E+03    0.14644E-03   -0.21122E-04  7000   0.911E-02    0.201E-02
DAV:   9    -0.192019726702E+03    0.25047E-05   -0.51890E-05  7520   0.249E-02
  25 F= -.19201973E+03 E0= -.19191784E+03  d E =-.218131E-01
       N       E                     dE             d eps       ncg     rms          rms(c)
DAV:   1    -0.192021865944E+03   -0.21367E-02   -0.19821E-02  8160   0.302E-01    0.454E-02
DAV:   2    -0.192022050262E+03   -0.18432E-03   -0.10506E-03 11160   0.169E-01    0.126E-01
DAV:   3    -0.192021895580E+03    0.15468E-03   -0.33946E-04  8320   0.129E-01    0.438E-02
DAV:   4    -0.192021913710E+03   -0.18130E-04   -0.11749E-04  5760   0.713E-02
  26 F= -.19202191E+03 E0= -.19192016E+03  d E =-.218701E-02
       N       E                     dE             d eps       ncg     rms          rms(c)
DAV:   1    -0.192037775530E+03   -0.15880E-01   -0.85832E-01  8160   0.199E+00    0.232E-01
DAV:   2    -0.192040147772E+03   -0.23722E-02   -0.23309E-02 12320   0.535E-01    0.475E-01
DAV:   3    -0.192039012420E+03    0.11354E-02   -0.82470E-03 11720   0.550E-01    0.311E-01
DAV:   4    -0.192038460119E+03    0.55230E-03   -0.23620E-03 10760   0.292E-01    0.188E-01
DAV:   5    -0.192038259270E+03    0.20085E-03   -0.13081E-03 10240   0.288E-01    0.147E-01
DAV:   6    -0.192038200368E+03    0.58902E-04   -0.84351E-04 10200   0.196E-01
  27 F= -.19203820E+03 E0= -.19193841E+03  d E =-.162867E-01
       N       E                     dE             d eps       ncg     rms          rms(c)
DAV:   1    -0.192003542394E+03    0.34717E-01   -0.46845E+00  8160   0.466E+00    0.537E-01
DAV:   2    -0.192024141790E+03   -0.20599E-01   -0.13966E-01 13360   0.148E+00    0.137E+00
DAV:   3    -0.192009162097E+03    0.14980E-01   -0.53111E-02 12080   0.138E+00    0.590E-01
DAV:   4    -0.192009256789E+03   -0.94692E-04   -0.15144E-02 10560   0.749E-01    0.598E-01
DAV:   5    -0.192006054476E+03    0.32023E-02   -0.87895E-03 12160   0.684E-01    0.285E-01
DAV:   6    -0.192006190601E+03   -0.13613E-03   -0.44256E-03 11680   0.454E-01    0.316E-01
DAV:   7    -0.192005425675E+03    0.76493E-03   -0.28569E-03 11480   0.414E-01    0.155E-01
DAV:   8    -0.192005075439E+03    0.35024E-03   -0.59911E-04  9840   0.153E-01    0.290E-02
DAV:   9    -0.192005070499E+03    0.49401E-05   -0.79455E-05  7400   0.320E-02
  28 F= -.19200507E+03 E0= -.19190211E+03  d E =0.331299E-01
       N       E                     dE             d eps       ncg     rms          rms(c)
DAV:   1    -0.191992138184E+03    0.12937E-01   -0.32137E+00  8160   0.385E+00    0.410E-01
DAV:   2    -0.191995333176E+03   -0.31950E-02   -0.66602E-02 12560   0.727E-01    0.414E-01
DAV:   3    -0.192000012533E+03   -0.46794E-02   -0.23132E-02 11920   0.890E-01    0.874E-01
DAV:   4    -0.191994013552E+03    0.59990E-02   -0.15861E-02 10760   0.721E-01    0.265E-01
DAV:   5    -0.191993981758E+03    0.31794E-04   -0.39708E-03 10840   0.409E-01    0.305E-01
DAV:   6    -0.191993408864E+03    0.57289E-03   -0.28589E-03 11440   0.376E-01    0.183E-01
DAV:   7    -0.191993240435E+03    0.16843E-03   -0.11485E-03  9920   0.243E-01    0.140E-01
DAV:   8    -0.191993014348E+03    0.22609E-03   -0.40133E-04  8920   0.157E-01    0.271E-02
DAV:   9    -0.191993008625E+03    0.57230E-05   -0.41272E-05  6520   0.313E-02
  29 F= -.19199301E+03 E0= -.19188898E+03  d E =0.120619E-01
       N       E                     dE             d eps       ncg     rms          rms(c)
DAV:   1    -0.191997990112E+03   -0.49758E-02   -0.41301E-01  8160   0.136E+00    0.154E-01
DAV:   2    -0.192000350079E+03   -0.23600E-02   -0.16283E-02 11560   0.497E-01    0.394E-01
DAV:   3    -0.191999038017E+03    0.13121E-02   -0.41107E-03 11600   0.452E-01    0.159E-01
DAV:   4    -0.191998900913E+03    0.13710E-03   -0.71956E-04  8680   0.151E-01    0.122E-01
DAV:   5    -0.191998826026E+03    0.74888E-04   -0.55028E-04  8120   0.144E-01
  30 F= -.19199883E+03 E0= -.19189514E+03  d E =-.581740E-02
       N       E                     dE             d eps       ncg     rms          rms(c)
DAV:   1    -0.192000942544E+03   -0.20416E-02   -0.60524E-02  8160   0.530E-01    0.889E-02
DAV:   2    -0.192001964594E+03   -0.10220E-02   -0.33978E-03 13200   0.336E-01    0.317E-01
DAV:   3    -0.192000968865E+03    0.99573E-03   -0.18574E-03  9800   0.291E-01    0.832E-02
DAV:   4    -0.192001011101E+03   -0.42237E-04   -0.39526E-04  7880   0.126E-01
  31 F= -.19200101E+03 E0= -.19189761E+03  d E =-.218508E-02
       N       E                     dE             d eps       ncg     rms          rms(c)
DAV:   1    -0.192002278937E+03   -0.13101E-02   -0.23678E-02  8160   0.342E-01    0.689E-02
DAV:   2    -0.192003239306E+03   -0.96037E-03   -0.24766E-03 12160   0.306E-01    0.329E-01
DAV:   3    -0.192002244519E+03    0.99479E-03   -0.17572E-03 10040   0.264E-01    0.536E-02
DAV:   4    -0.192002279723E+03   -0.35204E-04   -0.16833E-04  6440   0.843E-02
  32 F= -.19200228E+03 E0= -.19189871E+03  d E =-.126862E-02
       N       E                     dE             d eps       ncg     rms          rms(c)
DAV:   1    -0.192004949494E+03   -0.27050E-02   -0.10158E-01  8160   0.687E-01    0.116E-01
DAV:   2    -0.192007002577E+03   -0.20531E-02   -0.63389E-03 11720   0.477E-01    0.458E-01
DAV:   3    -0.192004965700E+03    0.20369E-02   -0.32620E-03 10960   0.411E-01    0.709E-02
DAV:   4    -0.192005089833E+03   -0.12413E-03   -0.48581E-04  8440   0.138E-01    0.130E-01
DAV:   5    -0.192004966785E+03    0.12305E-03   -0.46547E-04  8240   0.133E-01    0.687E-02
DAV:   6    -0.192004955852E+03    0.10933E-04   -0.18528E-04  6440   0.926E-02
  33 F= -.19200496E+03 E0= -.19190165E+03  d E =-.267613E-02
       N       E                     dE             d eps       ncg     rms          rms(c)
DAV:   1    -0.192005867615E+03   -0.90083E-03   -0.17251E-02  8160   0.287E-01    0.435E-02
DAV:   2    -0.192006079303E+03   -0.21169E-03   -0.95783E-04 11840   0.152E-01    0.135E-01
DAV:   3    -0.192005890838E+03    0.18847E-03   -0.36338E-04  8360   0.138E-01    0.376E-02
DAV:   4    -0.192005889667E+03    0.11708E-05   -0.51932E-05  5920   0.469E-02
  34 F= -.19200589E+03 E0= -.19190263E+03  d E =-.933816E-03
       N       E                     dE             d eps       ncg     rms          rms(c)
DAV:   1    -0.192011377231E+03   -0.54864E-02   -0.35030E-01  8160   0.126E+00    0.131E-01
DAV:   2    -0.192011872877E+03   -0.49565E-03   -0.84666E-03 12320   0.251E-01    0.121E-01
DAV:   3    -0.192012186954E+03   -0.31408E-03   -0.16327E-03 11240   0.288E-01    0.228E-01
DAV:   4    -0.192011750270E+03    0.43668E-03   -0.10686E-03  9280   0.223E-01    0.105E-01
DAV:   5    -0.192011731275E+03    0.18995E-04   -0.51772E-04  8200   0.147E-01
  35 F= -.19201173E+03 E0= -.19190884E+03  d E =-.584161E-02
       N       E                     dE             d eps       ncg     rms          rms(c)
DAV:   1    -0.192001009444E+03    0.10741E-01   -0.13040E+00  8160   0.243E+00    0.252E-01
DAV:   2    -0.192004738565E+03   -0.37291E-02   -0.32325E-02 13200   0.634E-01    0.570E-01
DAV:   3    -0.192002886761E+03    0.18518E-02   -0.11528E-02 11400   0.632E-01    0.337E-01
DAV:   4    -0.192002285530E+03    0.60123E-03   -0.40249E-03 10840   0.334E-01    0.224E-01
DAV:   5    -0.192002096653E+03    0.18888E-03   -0.20008E-03 10080   0.305E-01    0.204E-01
DAV:   6    -0.192001705288E+03    0.39137E-03   -0.92288E-04  9440   0.197E-01    0.627E-02
DAV:   7    -0.192001679084E+03    0.26204E-04   -0.21188E-04  7720   0.634E-02
  36 F= -.19200168E+03 E0= -.19189818E+03  d E =0.100522E-01
       N       E                     dE             d eps       ncg     rms          rms(c)
DAV:   1    -0.191996842466E+03    0.48628E-02   -0.86123E-01  8160   0.197E+00    0.202E-01
DAV:   2    -0.191997667117E+03   -0.82465E-03   -0.17061E-02 12240   0.346E-01    0.169E-01
DAV:   3    -0.191998673203E+03   -0.10061E-02   -0.42732E-03 11360   0.402E-01    0.402E-01
DAV:   4    -0.191997419861E+03    0.12533E-02   -0.32191E-03  9960   0.350E-01    0.143E-01
DAV:   5    -0.191997488009E+03   -0.68148E-04   -0.12749E-03  9720   0.211E-01    0.184E-01
DAV:   6    -0.191997255207E+03    0.23280E-03   -0.91965E-04  9000   0.190E-01    0.797E-02
DAV:   7    -0.191997216485E+03    0.38722E-04   -0.22013E-04  6640   0.999E-02
  37 F= -.19199722E+03 E0= -.19189340E+03  d E =0.446260E-02
       N       E                     dE             d eps       ncg     rms          rms(c)
DAV:   1    -0.191998914093E+03   -0.16589E-02   -0.24007E-01  8160   0.104E+00    0.118E-01
DAV:   2    -0.192000131632E+03   -0.12175E-02   -0.93496E-03 11920   0.384E-01    0.299E-01
DAV:   3    -0.191999536721E+03    0.59491E-03   -0.30611E-03 11080   0.332E-01    0.159E-01
DAV:   4    -0.191999461916E+03    0.74804E-04   -0.80643E-04  8160   0.173E-01
  38 F= -.19199946E+03 E0= -.19189603E+03  d E =-.224543E-02
       N       E                     dE             d eps       ncg     rms          rms(c)
DAV:   1    -0.191999357444E+03    0.17928E-03   -0.27743E-03 10560   0.175E-01    0.548E-02
DAV:   2    -0.191999801617E+03   -0.44417E-03   -0.93906E-04  9560   0.219E-01    0.217E-01
DAV:   3    -0.191999321555E+03    0.48006E-03   -0.73365E-04  8720   0.201E-01    0.414E-02
DAV:   4    -0.191999348020E+03   -0.26464E-04   -0.11003E-04  6000   0.649E-02
  39 F= -.19199935E+03 E0= -.19189576E+03  d E =0.113897E-03
       N       E                     dE             d eps       ncg     rms          rms(c)
DAV:   1    -0.192001657668E+03   -0.23361E-02   -0.16221E-01  8160   0.863E-01    0.106E-01
DAV:   2    -0.192002749324E+03   -0.10917E-02   -0.69104E-03 12080   0.321E-01    0.299E-01
DAV:   3    -0.192002046395E+03    0.70293E-03   -0.24375E-03  9960   0.308E-01    0.124E-01
DAV:   4    -0.192002069740E+03   -0.23345E-04   -0.64878E-04  8200   0.147E-01
  40 F= -.19200207E+03 E0= -.19189910E+03  d E =-.272172E-02
       N       E                     dE             d eps       ncg     rms          rms(c)
DAV:   1    -0.192001841864E+03    0.20453E-03   -0.98975E-04  9160   0.142E-01    0.427E-02
DAV:   2    -0.192002225157E+03   -0.38329E-03   -0.87142E-04  8760   0.185E-01    0.208E-01
DAV:   3    -0.192001825336E+03    0.39982E-03   -0.71138E-04  8520   0.168E-01    0.330E-02
DAV:   4    -0.192001842267E+03   -0.16931E-04   -0.60498E-05  5880   0.486E-02
  41 F= -.19200184E+03 E0= -.19189827E+03  d E =0.227473E-03
       N       E                     dE             d eps       ncg     rms          rms(c)
DAV:   1    -0.192004265745E+03   -0.24404E-02   -0.15974E-01  8160   0.859E-01    0.109E-01
DAV:   2    -0.192005210521E+03   -0.94478E-03   -0.60565E-03 13040   0.328E-01    0.279E-01
DAV:   3    -0.192004529027E+03    0.68149E-03   -0.18944E-03 10640   0.313E-01    0.107E-01
DAV:   4    -0.192004473623E+03    0.55404E-04   -0.37318E-04  8160   0.107E-01
  42 F= -.19200447E+03 E0= -.19190114E+03  d E =-.263136E-02
       N       E                     dE             d eps       ncg     rms          rms(c)
DAV:   1    -0.192002273052E+03    0.22560E-02   -0.99814E-02  8160   0.687E-01    0.110E-01
DAV:   2    -0.192005690034E+03   -0.34170E-02   -0.94862E-03 12440   0.539E-01    0.609E-01
DAV:   3    -0.192002356801E+03    0.33332E-02   -0.59304E-03 10960   0.470E-01    0.641E-02
DAV:   4    -0.192002463860E+03   -0.10706E-03   -0.36103E-04  8240   0.125E-01    0.101E-01
DAV:   5    -0.192002361499E+03    0.10236E-03   -0.14230E-04  6400   0.894E-02    0.180E-02
DAV:   6    -0.192002373354E+03   -0.11855E-04   -0.32138E-05  6160   0.382E-02
  43 F= -.19200237E+03 E0= -.19189885E+03  d E =0.210027E-02
       N       E                     dE             d eps       ncg     rms          rms(c)
DAV:   1    -0.191999734968E+03    0.26265E-02   -0.24307E-01  8160   0.107E+00    0.137E-01
DAV:   2    -0.192001124058E+03   -0.13891E-02   -0.87536E-03 11840   0.420E-01    0.372E-01
DAV:   3    -0.191999988478E+03    0.11356E-02   -0.34094E-03 10800   0.363E-01    0.138E-01
DAV:   4    -0.192000074055E+03   -0.85577E-04   -0.11134E-03  8800   0.194E-01    0.173E-01
DAV:   5    -0.191999843313E+03    0.23074E-03   -0.71814E-04  8600   0.178E-01    0.833E-02
DAV:   6    -0.191999807015E+03    0.36298E-04   -0.26020E-04  6920   0.109E-01
  44 F= -.19199981E+03 E0= -.19189627E+03  d E =0.256634E-02
       N       E                     dE             d eps       ncg     rms          rms(c)
DAV:   1    -0.191997859369E+03    0.19839E-02   -0.21110E-01  8160   0.991E-01    0.120E-01
DAV:   2    -0.191998594453E+03   -0.73508E-03   -0.59026E-03 12680   0.314E-01    0.248E-01
DAV:   3    -0.191998064874E+03    0.52958E-03   -0.18567E-03 10360   0.295E-01    0.125E-01
DAV:   4    -0.191998224087E+03   -0.15921E-03   -0.97414E-04  8880   0.200E-01    0.183E-01
DAV:   5    -0.191997913850E+03    0.31024E-03   -0.66955E-04  8440   0.170E-01    0.571E-02
DAV:   6    -0.191997989601E+03   -0.75751E-04   -0.29970E-04  7840   0.121E-01
  45 F= -.19199799E+03 E0= -.19189423E+03  d E =0.181741E-02
       N       E                     dE             d eps       ncg     rms          rms(c)
DAV:   1    -0.192001079099E+03   -0.31652E-02   -0.44123E-01  8160   0.143E+00    0.171E-01
DAV:   2    -0.192003580026E+03   -0.25009E-02   -0.15774E-02 13320   0.539E-01    0.463E-01
DAV:   3    -0.192001778347E+03    0.18017E-02   -0.51840E-03 11360   0.489E-01    0.173E-01
DAV:   4    -0.192001805120E+03   -0.26773E-04   -0.15336E-03  9720   0.217E-01    0.203E-01
DAV:   5    -0.192001505796E+03    0.29932E-03   -0.11260E-03  8720   0.204E-01    0.985E-02
DAV:   6    -0.192001424579E+03    0.81216E-04   -0.37234E-04  7720   0.103E-01
  46 F= -.19200142E+03 E0= -.19189812E+03  d E =-.343498E-02
       N       E                     dE             d eps       ncg     rms          rms(c)
DAV:   1    -0.192002118999E+03   -0.61320E-03   -0.14529E-02  8160   0.274E-01    0.658E-02
DAV:   2    -0.192002816391E+03   -0.69739E-03   -0.17327E-03 12280   0.305E-01    0.240E-01
DAV:   3    -0.192002074233E+03    0.74216E-03   -0.10147E-03  9960   0.255E-01    0.253E-02
DAV:   4    -0.192002110193E+03   -0.35960E-04   -0.69407E-05  6080   0.619E-02
  47 F= -.19200211E+03 E0= -.19189855E+03  d E =-.685613E-03
       N       E                     dE             d eps       ncg     rms          rms(c)
DAV:   1    -0.192003022991E+03   -0.94876E-03   -0.56553E-02  8160   0.509E-01    0.572E-02
DAV:   2    -0.192003191408E+03   -0.16842E-03   -0.18583E-03 13520   0.164E-01    0.964E-02
DAV:   3    -0.192003142669E+03    0.48739E-04   -0.37890E-04  8880   0.135E-01
  48 F= -.19200314E+03 E0= -.19189956E+03  d E =-.103248E-02
       N       E                     dE             d eps       ncg     rms          rms(c)
DAV:   1    -0.192006359193E+03   -0.31678E-02   -0.37572E-01  8160   0.132E+00    0.161E-01
DAV:   2    -0.192007806014E+03   -0.14468E-02   -0.11498E-02 13400   0.402E-01    0.346E-01
DAV:   3    -0.192007007124E+03    0.79889E-03   -0.42249E-03 12000   0.428E-01    0.219E-01
DAV:   4    -0.192006828958E+03    0.17817E-03   -0.16325E-03  9960   0.224E-01    0.172E-01
DAV:   5    -0.192006648232E+03    0.18073E-03   -0.98927E-04  8760   0.212E-01    0.118E-01
DAV:   6    -0.192006549448E+03    0.98784E-04   -0.45889E-04  8520   0.128E-01
  49 F= -.19200655E+03 E0= -.19190361E+03  d E =-.340678E-02
       N       E                     dE             d eps       ncg     rms          rms(c)
DAV:   1    -0.192004026772E+03    0.26215E-02   -0.23312E-01  8160   0.105E+00    0.125E-01
DAV:   2    -0.192005150926E+03   -0.11242E-02   -0.79975E-03 13360   0.366E-01    0.267E-01
DAV:   3    -0.192004427725E+03    0.72320E-03   -0.28270E-03 11440   0.367E-01    0.165E-01
DAV:   4    -0.192004349247E+03    0.78478E-04   -0.10773E-03  8280   0.187E-01    0.143E-01
DAV:   5    -0.192004191004E+03    0.15824E-03   -0.51946E-04  8040   0.149E-01    0.603E-02
DAV:   6    -0.192004142619E+03    0.48385E-04   -0.13035E-04  5960   0.630E-02
  50 F= -.19200414E+03 E0= -.19190086E+03  d E =0.240683E-02
       N       E                     dE             d eps       ncg     rms          rms(c)
DAV:   1    -0.192004462918E+03   -0.27191E-03   -0.29229E-02  8160   0.372E-01    0.490E-02
DAV:   2    -0.192004549682E+03   -0.86764E-04   -0.10851E-03 13600   0.105E-01    0.734E-02
DAV:   3    -0.192004519668E+03    0.30014E-04   -0.26370E-04  7920   0.116E-01
  51 F= -.19200452E+03 E0= -.19190093E+03  d E =-.377049E-03
       N       E                     dE             d eps       ncg     rms          rms(c)
DAV:   1    -0.192004320617E+03    0.22906E-03   -0.21976E-03  8160   0.117E-01    0.381E-02
DAV:   2    -0.192004486082E+03   -0.16546E-03   -0.43322E-04  9720   0.155E-01    0.124E-01
DAV:   3    -0.192004297428E+03    0.18865E-03   -0.29592E-04  8160   0.140E-01    0.313E-02
DAV:   4    -0.192004307543E+03   -0.10115E-04   -0.67778E-05  5760   0.500E-02
  52 F= -.19200431E+03 E0= -.19190093E+03  d E =0.212125E-03
       N       E                     dE             d eps       ncg     rms          rms(c)
DAV:   1    -0.192006052139E+03   -0.17547E-02   -0.10941E-01  8160   0.714E-01    0.794E-02
DAV:   2    -0.192006324407E+03   -0.27227E-03   -0.35138E-03 12360   0.185E-01    0.126E-01
DAV:   3    -0.192006339145E+03   -0.14737E-04   -0.10538E-03  9320   0.192E-01    0.146E-01
DAV:   4    -0.192006178115E+03    0.16103E-03   -0.45479E-04  7720   0.124E-01    0.515E-02
DAV:   5    -0.192006174242E+03    0.38733E-05   -0.13540E-04  6080   0.876E-02
  53 F= -.19200617E+03 E0= -.19190306E+03  d E =-.186670E-02
       N       E                     dE             d eps       ncg     rms          rms(c)
DAV:   1    -0.192006093322E+03    0.84793E-04   -0.16140E-02  8160   0.290E-01    0.454E-02
DAV:   2    -0.192006271630E+03   -0.17831E-03   -0.93569E-04 12000   0.139E-01    0.123E-01
DAV:   3    -0.192006125087E+03    0.14654E-03   -0.47399E-04  8280   0.140E-01    0.634E-02
DAV:   4    -0.192006109765E+03    0.15323E-04   -0.13424E-04  5440   0.693E-02
  54 F= -.19200611E+03 E0= -.19190275E+03  d E =0.644767E-04
       N       E                     dE             d eps       ncg     rms          rms(c)
DAV:   1    -0.192008050841E+03   -0.19258E-02   -0.14489E-01  8160   0.815E-01    0.903E-02
DAV:   2    -0.192008666433E+03   -0.61559E-03   -0.44287E-03 13560   0.275E-01    0.214E-01
DAV:   3    -0.192008272302E+03    0.39413E-03   -0.11898E-03 10120   0.251E-01    0.910E-02
DAV:   4    -0.192008195570E+03    0.76732E-04   -0.15373E-04  6240   0.765E-02
  55 F= -.19200820E+03 E0= -.19190493E+03  d E =-.208580E-02
       N       E                     dE             d eps       ncg     rms          rms(c)
DAV:   1    -0.192008811560E+03   -0.53926E-03   -0.10899E-02  8360   0.245E-01    0.934E-02
DAV:   2    -0.192011491297E+03   -0.26797E-02   -0.62948E-03 10920   0.470E-01    0.574E-01
DAV:   3    -0.192008688867E+03    0.28024E-02   -0.50005E-03 10040   0.416E-01    0.317E-02
DAV:   4    -0.192008736219E+03   -0.47353E-04   -0.83045E-05  5960   0.475E-02
  56 F= -.19200874E+03 E0= -.19190521E+03  d E =-.540650E-03
       N       E                     dE             d eps       ncg     rms          rms(c)
DAV:   1    -0.192011673512E+03   -0.29846E-02   -0.26623E-01  8160   0.111E+00    0.153E-01
DAV:   2    -0.192012939089E+03   -0.12656E-02   -0.96549E-03 12720   0.417E-01    0.346E-01
DAV:   3    -0.192011957902E+03    0.98119E-03   -0.32578E-03 11640   0.408E-01    0.159E-01
DAV:   4    -0.192011792343E+03    0.16556E-03   -0.85486E-04  8840   0.170E-01    0.120E-01
DAV:   5    -0.192011812554E+03   -0.20210E-04   -0.90994E-04  8560   0.185E-01
  57 F= -.19201181E+03 E0= -.19190804E+03  d E =-.307633E-02
       N       E                     dE             d eps       ncg     rms          rms(c)
DAV:   1    -0.192009668969E+03    0.21234E-02   -0.14652E-01  8160   0.847E-01    0.120E-01
DAV:   2    -0.192010543396E+03   -0.87443E-03   -0.63798E-03 11040   0.362E-01    0.300E-01
DAV:   3    -0.192009834880E+03    0.70852E-03   -0.28432E-03 11040   0.333E-01    0.156E-01
DAV:   4    -0.192009772904E+03    0.61976E-04   -0.10267E-03  8320   0.196E-01    0.129E-01
DAV:   5    -0.192009627907E+03    0.14500E-03   -0.49536E-04  8160   0.162E-01    0.627E-02
DAV:   6    -0.192009571133E+03    0.56774E-04   -0.14976E-04  6480   0.696E-02
  58 F= -.19200957E+03 E0= -.19190617E+03  d E =0.224142E-02
       N       E                     dE             d eps       ncg     rms          rms(c)
DAV:   1    -0.192009140725E+03    0.48718E-03   -0.15838E-01  8160   0.935E-01    0.207E-01
DAV:   2    -0.192009427046E+03   -0.28632E-03   -0.97136E-03 11600   0.422E-01    0.372E-01
DAV:   3    -0.192008901629E+03    0.52542E-03   -0.64418E-03 11440   0.501E-01    0.307E-01
DAV:   4    -0.192008456404E+03    0.44523E-03   -0.32787E-03 10640   0.346E-01    0.227E-01
DAV:   5    -0.192008082583E+03    0.37382E-03   -0.17260E-03  9600   0.310E-01    0.135E-01
DAV:   6    -0.192007957486E+03    0.12510E-03   -0.65003E-04  9320   0.174E-01    0.103E-01
DAV:   7    -0.192007857275E+03    0.10021E-03   -0.26213E-04  7680   0.115E-01    0.287E-02
DAV:   8    -0.192007860927E+03   -0.36514E-05   -0.35264E-05  6320   0.320E-02
  59 F= -.19200786E+03 E0= -.19190501E+03  d E =0.171021E-02
       N       E                     dE             d eps       ncg     rms          rms(c)
DAV:   1    -0.192005783218E+03    0.20741E-02   -0.15645E-01  8160   0.852E-01    0.105E-01
DAV:   2    -0.192006318522E+03   -0.53530E-03   -0.53424E-03 12040   0.252E-01    0.214E-01
DAV:   3    -0.192006092070E+03    0.22645E-03   -0.18654E-03 10320   0.260E-01    0.151E-01
DAV:   4    -0.192005959643E+03    0.13243E-03   -0.60971E-04  8240   0.142E-01    0.932E-02
DAV:   5    -0.192005894668E+03    0.64975E-04   -0.25573E-04  7080   0.125E-01
  60 F= -.19200589E+03 E0= -.19190334E+03  d E =0.196626E-02
       N       E                     dE             d eps       ncg     rms          rms(c)
DAV:   1    -0.192005241264E+03    0.71838E-03   -0.39698E-01  8160   0.136E+00    0.162E-01
DAV:   2    -0.192005928917E+03   -0.68765E-03   -0.94198E-03 11560   0.311E-01    0.225E-01
DAV:   3    -0.192005857590E+03    0.71327E-04   -0.28207E-03 12040   0.362E-01    0.237E-01
DAV:   4    -0.192005597744E+03    0.25985E-03   -0.15686E-03 10200   0.246E-01    0.178E-01
DAV:   5    -0.192005350527E+03    0.24722E-03   -0.95849E-04  8200   0.202E-01    0.972E-02
DAV:   6    -0.192005410935E+03   -0.60408E-04   -0.55175E-04  8240   0.152E-01
  61 F= -.19200541E+03 E0= -.19190261E+03  d E =0.483733E-03
       N       E                     dE             d eps       ncg     rms          rms(c)
DAV:   1    -0.192007933249E+03   -0.25827E-02   -0.18238E-01  8160   0.944E-01    0.134E-01
DAV:   2    -0.192008395951E+03   -0.46270E-03   -0.72567E-03 11480   0.295E-01    0.224E-01
DAV:   3    -0.192008283387E+03    0.11256E-03   -0.26488E-03 10280   0.313E-01    0.207E-01
DAV:   4    -0.192007987130E+03    0.29626E-03   -0.12580E-03  8600   0.204E-01    0.122E-01
DAV:   5    -0.192007931899E+03    0.55230E-04   -0.61648E-04  8320   0.168E-01
  62 F= -.19200793E+03 E0= -.19190478E+03  d E =-.252096E-02
       N       E                     dE             d eps       ncg     rms          rms(c)
DAV:   1    -0.192006301004E+03    0.16861E-02   -0.88911E-02  8160   0.671E-01    0.102E-01
DAV:   2    -0.192006942972E+03   -0.64197E-03   -0.44650E-03 11680   0.313E-01    0.274E-01
DAV:   3    -0.192006355744E+03    0.58723E-03   -0.22108E-03 10280   0.287E-01    0.122E-01
DAV:   4    -0.192006332228E+03    0.23516E-04   -0.64907E-04  8280   0.162E-01
  63 F= -.19200633E+03 E0= -.19190385E+03  d E =0.159967E-02
       N       E                     dE             d eps       ncg     rms          rms(c)
DAV:   1    -0.192005093036E+03    0.12627E-02   -0.22993E-01  8160   0.113E+00    0.249E-01
DAV:   2    -0.192005191558E+03   -0.98522E-04   -0.12482E-02 11360   0.498E-01    0.396E-01
DAV:   3    -0.192004496731E+03    0.69483E-03   -0.67549E-03 11080   0.571E-01    0.332E-01
DAV:   4    -0.192003821603E+03    0.67513E-03   -0.41496E-03 11080   0.386E-01    0.250E-01
DAV:   5    -0.192003780500E+03    0.41103E-04   -0.32245E-03  9680   0.354E-01    0.252E-01
DAV:   6    -0.192003223302E+03    0.55720E-03   -0.15911E-03  9720   0.239E-01    0.105E-01
DAV:   7    -0.192003133015E+03    0.90287E-04   -0.35038E-04  8080   0.136E-01
  64 F= -.19200313E+03 E0= -.19190111E+03  d E =0.319921E-02
       N       E                     dE             d eps       ncg     rms          rms(c)
DAV:   1    -0.192010280536E+03   -0.70572E-02   -0.73960E-01  8160   0.188E+00    0.284E-01
DAV:   2    -0.192011597235E+03   -0.13167E-02   -0.27348E-02 11760   0.597E-01    0.470E-01
DAV:   3    -0.192011124679E+03    0.47256E-03   -0.11100E-02 11520   0.659E-01    0.419E-01
DAV:   4    -0.192009929683E+03    0.11950E-02   -0.57423E-03 11040   0.435E-01    0.281E-01
DAV:   5    -0.192009586364E+03    0.34332E-03   -0.30969E-03  9560   0.366E-01    0.223E-01
DAV:   6    -0.192009109489E+03    0.47687E-03   -0.14138E-03  9680   0.229E-01    0.863E-02
DAV:   7    -0.192009106303E+03    0.31857E-05   -0.41767E-04  8720   0.154E-01
  65 F= -.19200911E+03 E0= -.19190694E+03  d E =-.597329E-02
       N       E                     dE             d eps       ncg     rms          rms(c)
DAV:   1    -0.192012798806E+03   -0.36893E-02   -0.36848E-01  8160   0.129E+00    0.142E-01
DAV:   2    -0.192013621275E+03   -0.82247E-03   -0.95483E-03 13560   0.344E-01    0.211E-01
DAV:   3    -0.192013413039E+03    0.20824E-03   -0.21420E-03 10920   0.329E-01    0.183E-01
DAV:   4    -0.192013164678E+03    0.24836E-03   -0.85672E-04  9280   0.202E-01    0.104E-01
DAV:   5    -0.192013111241E+03    0.53437E-04   -0.46031E-04  8720   0.164E-01
  66 F= -.19201311E+03 E0= -.19191101E+03  d E =-.400494E-02
       N       E                     dE             d eps       ncg     rms          rms(c)
DAV:   1    -0.192008920101E+03    0.42446E-02   -0.35153E-01  8160   0.127E+00    0.153E-01
DAV:   2    -0.192011075413E+03   -0.21553E-02   -0.11954E-02 13560   0.497E-01    0.465E-01
DAV:   3    -0.192009252425E+03    0.18230E-02   -0.53410E-03 11440   0.453E-01    0.161E-01
DAV:   4    -0.192009241362E+03    0.11063E-04   -0.13643E-03  9800   0.207E-01    0.156E-01
DAV:   5    -0.192009060673E+03    0.18069E-03   -0.68358E-04  8280   0.194E-01    0.955E-02
DAV:   6    -0.192008986526E+03    0.74147E-04   -0.28814E-04  7440   0.113E-01
  67 F= -.19200899E+03 E0= -.19190645E+03  d E =0.412472E-02
       N       E                     dE             d eps       ncg     rms          rms(c)
DAV:   1    -0.192009314532E+03   -0.25386E-03   -0.75137E-02  8160   0.611E-01    0.149E-01
DAV:   2    -0.192009926007E+03   -0.61148E-03   -0.51746E-03 10520   0.438E-01    0.322E-01
DAV:   3    -0.192008912203E+03    0.10138E-02   -0.25471E-03 11440   0.384E-01    0.122E-01
DAV:   4    -0.192008907144E+03    0.50594E-05   -0.84532E-04  8800   0.203E-01
  68 F= -.19200891E+03 E0= -.19190573E+03  d E =0.793821E-04
       N       E                     dE             d eps       ncg     rms          rms(c)
DAV:   1    -0.192005005152E+03    0.39071E-02   -0.77656E-01  8160   0.186E+00    0.192E-01
DAV:   2    -0.192006018457E+03   -0.10133E-02   -0.15358E-02 12640   0.385E-01    0.225E-01
DAV:   3    -0.192006353192E+03   -0.33474E-03   -0.38465E-03 11640   0.423E-01    0.318E-01
DAV:   4    -0.192005575225E+03    0.77797E-03   -0.21123E-03  9720   0.304E-01    0.151E-01
DAV:   5    -0.192005567249E+03    0.79759E-05   -0.12576E-03  9200   0.226E-01    0.166E-01
DAV:   6    -0.192005410088E+03    0.15716E-03   -0.87073E-04  8400   0.173E-01    0.963E-02
DAV:   7    -0.192005390820E+03    0.19268E-04   -0.40363E-04  8080   0.149E-01
  69 F= -.19200539E+03 E0= -.19190260E+03  d E =0.351632E-02
       N       E                     dE             d eps       ncg     rms          rms(c)
DAV:   1    -0.192007890293E+03   -0.24802E-02   -0.35797E-01  8160   0.127E+00    0.155E-01
DAV:   2    -0.192010413896E+03   -0.25236E-02   -0.13377E-02 13520   0.622E-01    0.439E-01
DAV:   3    -0.192008417004E+03    0.19969E-02   -0.39185E-03 11560   0.486E-01    0.129E-01
DAV:   4    -0.192008540792E+03   -0.12379E-03   -0.10909E-03  9320   0.213E-01    0.178E-01
DAV:   5    -0.192008272110E+03    0.26868E-03   -0.78857E-04  8160   0.182E-01    0.855E-02
DAV:   6    -0.192008324225E+03   -0.52115E-04   -0.45687E-04  8600   0.136E-01
  70 F= -.19200832E+03 E0= -.19190605E+03  d E =-.293341E-02
       N       E                     dE             d eps       ncg     rms          rms(c)
DAV:   1    -0.192009141969E+03   -0.86986E-03   -0.36278E-02  8160   0.413E-01    0.534E-02
DAV:   2    -0.192009271693E+03   -0.12972E-03   -0.11777E-03 11320   0.151E-01    0.944E-02
DAV:   3    -0.192009183846E+03    0.87847E-04   -0.29084E-04  9720   0.135E-01
  71 F= -.19200918E+03 E0= -.19190668E+03  d E =-.859621E-03
       N       E                     dE             d eps       ncg     rms          rms(c)
DAV:   1    -0.192009472549E+03   -0.20086E-03   -0.68632E-03  8160   0.188E-01    0.422E-02
DAV:   2    -0.192009787675E+03   -0.31513E-03   -0.77910E-04 10520   0.174E-01    0.182E-01
DAV:   3    -0.192009459175E+03    0.32850E-03   -0.56332E-04  8640   0.158E-01    0.350E-02
DAV:   4    -0.192009471686E+03   -0.12511E-04   -0.68712E-05  5600   0.494E-02
  72 F= -.19200947E+03 E0= -.19190681E+03  d E =-.287840E-03
       N       E                     dE             d eps       ncg     rms          rms(c)
DAV:   1    -0.192011409022E+03   -0.19498E-02   -0.13695E-01  8160   0.791E-01    0.103E-01
DAV:   2    -0.192011977934E+03   -0.56891E-03   -0.42709E-03 13600   0.287E-01    0.232E-01
DAV:   3    -0.192011523963E+03    0.45397E-03   -0.13735E-03 10320   0.274E-01    0.101E-01
DAV:   4    -0.192011441940E+03    0.82022E-04   -0.31346E-04  7280   0.101E-01
  73 F= -.19201144E+03 E0= -.19190879E+03  d E =-.197025E-02
       N       E                     dE             d eps       ncg     rms          rms(c)
DAV:   1    -0.192010392783E+03    0.11312E-02   -0.37200E-02  8160   0.429E-01    0.114E-01
DAV:   2    -0.192014879405E+03   -0.44866E-02   -0.10448E-02 12080   0.622E-01    0.714E-01
DAV:   3    -0.192010316666E+03    0.45627E-02   -0.75035E-03 10320   0.536E-01    0.539E-02
DAV:   4    -0.192010365867E+03   -0.49201E-04   -0.17754E-04  6880   0.869E-02
  74 F= -.19201037E+03 E0= -.19190758E+03  d E =0.107607E-02
       N       E                     dE             d eps       ncg     rms          rms(c)
DAV:   1    -0.192011886431E+03   -0.15698E-02   -0.98215E-02  8160   0.677E-01    0.832E-02
DAV:   2    -0.192012149459E+03   -0.26303E-03   -0.37623E-03 12400   0.216E-01    0.126E-01
DAV:   3    -0.192012154057E+03   -0.45982E-05   -0.97679E-04  8920   0.200E-01
  75 F= -.19201215E+03 E0= -.19190971E+03  d E =-.178819E-02
       N       E                     dE             d eps       ncg     rms          rms(c)
DAV:   1    -0.192012560412E+03   -0.41095E-03   -0.92778E-03  8920   0.256E-01    0.842E-02
DAV:   2    -0.192014319980E+03   -0.17596E-02   -0.40049E-03 11280   0.417E-01    0.441E-01
DAV:   3    -0.192012522326E+03    0.17977E-02   -0.33365E-03 10080   0.365E-01    0.783E-02
DAV:   4    -0.192012506950E+03    0.15375E-04   -0.16100E-04  6600   0.867E-02
  76 F= -.19201251E+03 E0= -.19191006E+03  d E =-.352893E-03
       N       E                     dE             d eps       ncg     rms          rms(c)
DAV:   1    -0.192014323164E+03   -0.18008E-02   -0.11843E-01  8160   0.737E-01    0.979E-02
DAV:   2    -0.192015107242E+03   -0.78408E-03   -0.45818E-03 13080   0.337E-01    0.266E-01
DAV:   3    -0.192014451100E+03    0.65614E-03   -0.18120E-03  9800   0.275E-01    0.996E-02
DAV:   4    -0.192014514942E+03   -0.63842E-04   -0.68126E-04  8160   0.163E-01
  77 F= -.19201451E+03 E0= -.19191211E+03  d E =-.200799E-02
       N       E                     dE             d eps       ncg     rms          rms(c)
DAV:   1    -0.192013075405E+03    0.13757E-02   -0.55454E-02  8160   0.511E-01    0.787E-02
DAV:   2    -0.192014073180E+03   -0.99778E-03   -0.31042E-03 11960   0.358E-01    0.291E-01
DAV:   3    -0.192013083408E+03    0.98977E-03   -0.14773E-03  9640   0.289E-01    0.470E-02
DAV:   4    -0.192013129957E+03   -0.46549E-04   -0.18937E-04  6320   0.983E-02
  78 F= -.19201313E+03 E0= -.19191046E+03  d E =0.138499E-02
       N       E                     dE             d eps       ncg     rms          rms(c)
DAV:   1    -0.192011601716E+03    0.14817E-02   -0.43684E-01  8160   0.145E+00    0.274E-01
DAV:   2    -0.192017061288E+03   -0.54596E-02   -0.23321E-02 12560   0.102E+00    0.755E-01
DAV:   3    -0.192010485273E+03    0.65760E-02   -0.11313E-02 12000   0.831E-01    0.154E-01
DAV:   4    -0.192011987959E+03   -0.15027E-02   -0.49512E-03 10440   0.419E-01    0.473E-01
DAV:   5    -0.192010110985E+03    0.18770E-02   -0.45887E-03 10440   0.401E-01    0.111E-01
DAV:   6    -0.192009978192E+03    0.13279E-03   -0.57565E-04  9720   0.107E-01    0.409E-02
DAV:   7    -0.192009985989E+03   -0.77971E-05   -0.13997E-04  7360   0.794E-02
  79 F= -.19200999E+03 E0= -.19190693E+03  d E =0.314397E-02
       N       E                     dE             d eps       ncg     rms          rms(c)
DAV:   1    -0.192009593199E+03    0.38499E-03   -0.28183E-02  8160   0.365E-01    0.577E-02
DAV:   2    -0.192009685906E+03   -0.92706E-04   -0.11187E-03 11440   0.145E-01    0.101E-01
DAV:   3    -0.192009628352E+03    0.57554E-04   -0.37581E-04  8720   0.145E-01
  80 F= -.19200963E+03 E0= -.19190594E+03  d E =0.357637E-03
       N       E                     dE             d eps       ncg     rms          rms(c)
DAV:   1    -0.192013145381E+03   -0.34595E-02   -0.42378E-01  8160   0.140E+00    0.213E-01
DAV:   2    -0.192017989948E+03   -0.48446E-02   -0.20357E-02 12760   0.903E-01    0.652E-01
DAV:   3    -0.192013235615E+03    0.47543E-02   -0.87782E-03 11520   0.690E-01    0.180E-01
DAV:   4    -0.192013578566E+03   -0.34295E-03   -0.26425E-03  9640   0.315E-01    0.269E-01
DAV:   5    -0.192012871485E+03    0.70708E-03   -0.14069E-03  9640   0.229E-01    0.536E-02
DAV:   6    -0.192012863591E+03    0.78940E-05   -0.22390E-04  6040   0.645E-02
  81 F= -.19201286E+03 E0= -.19191004E+03  d E =-.323524E-02
       N       E                     dE             d eps       ncg     rms          rms(c)
DAV:   1    -0.192013233239E+03   -0.36175E-03   -0.10938E-02  8240   0.227E-01    0.295E-02
DAV:   2    -0.192013287848E+03   -0.54609E-04   -0.45165E-04 11360   0.851E-02
  82 F= -.19201329E+03 E0= -.19191059E+03  d E =-.424257E-03
       N       E                     dE             d eps       ncg     rms          rms(c)
DAV:   1    -0.192014559146E+03   -0.13259E-02   -0.66073E-02  8160   0.543E-01    0.662E-02
DAV:   2    -0.192014737753E+03   -0.17861E-03   -0.16967E-03 12680   0.184E-01    0.131E-01
DAV:   3    -0.192014616678E+03    0.12107E-03   -0.63373E-04  8760   0.167E-01    0.857E-02
DAV:   4    -0.192014609854E+03    0.68243E-05   -0.31716E-04  7120   0.110E-01
  83 F= -.19201461E+03 E0= -.19191176E+03  d E =-.132201E-02
       N       E                     dE             d eps       ncg     rms          rms(c)
DAV:   1    -0.192015265240E+03   -0.64856E-03   -0.17030E-02  8160   0.293E-01    0.458E-02
DAV:   2    -0.192015432501E+03   -0.16726E-03   -0.71391E-04 11640   0.136E-01    0.132E-01
DAV:   3    -0.192015268924E+03    0.16358E-03   -0.42415E-04  8400   0.134E-01    0.482E-02
DAV:   4    -0.192015288961E+03   -0.20037E-04   -0.12680E-04  5840   0.746E-02
  84 F= -.19201529E+03 E0= -.19191258E+03  d E =-.679107E-03
       N       E                     dE             d eps       ncg     rms          rms(c)
DAV:   1    -0.192018450246E+03   -0.31813E-02   -0.25884E-01  8160   0.108E+00    0.121E-01
DAV:   2    -0.192018977979E+03   -0.52773E-03   -0.59053E-03 12880   0.270E-01    0.184E-01
DAV:   3    -0.192018851996E+03    0.12598E-03   -0.17365E-03 11440   0.301E-01    0.175E-01
DAV:   4    -0.192018612837E+03    0.23916E-03   -0.73247E-04  8440   0.176E-01    0.859E-02
DAV:   5    -0.192018641151E+03   -0.28314E-04   -0.47138E-04  8080   0.138E-01
  85 F= -.19201864E+03 E0= -.19191600E+03  d E =-.335219E-02
       N       E                     dE             d eps       ncg     rms          rms(c)
DAV:   1    -0.192012295141E+03    0.63177E-02   -0.97473E-01  8160   0.207E+00    0.220E-01
DAV:   2    -0.192016527888E+03   -0.42327E-02   -0.25531E-02 13320   0.662E-01    0.618E-01
DAV:   3    -0.192013623794E+03    0.29041E-02   -0.11605E-02 11440   0.659E-01    0.288E-01
DAV:   4    -0.192013243801E+03    0.37999E-03   -0.24879E-03 10360   0.298E-01    0.186E-01
DAV:   5    -0.192012943449E+03    0.30035E-03   -0.11057E-03  9600   0.259E-01    0.110E-01
DAV:   6    -0.192012821977E+03    0.12147E-03   -0.43104E-04  9320   0.135E-01    0.601E-02
DAV:   7    -0.192012910805E+03   -0.88827E-04   -0.34896E-04  8840   0.139E-01
  86 F= -.19201291E+03 E0= -.19191054E+03  d E =0.573035E-02
       N       E                     dE             d eps       ncg     rms          rms(c)
DAV:   1    -0.192010605501E+03    0.22165E-02   -0.41321E-01  8160   0.135E+00    0.144E-01
DAV:   2    -0.192011194116E+03   -0.58862E-03   -0.86388E-03 12520   0.308E-01    0.184E-01
DAV:   3    -0.192011435913E+03   -0.24180E-03   -0.29414E-03 12080   0.342E-01    0.267E-01
DAV:   4    -0.192010947254E+03    0.48866E-03   -0.16029E-03  9840   0.237E-01    0.122E-01
DAV:   5    -0.192010882357E+03    0.64897E-04   -0.58407E-04  8400   0.178E-01
  87 F= -.19201088E+03 E0= -.19190773E+03  d E =0.202845E-02
       N       E                     dE             d eps       ncg     rms          rms(c)
DAV:   1    -0.192011208642E+03   -0.26139E-03   -0.68420E-02  8160   0.569E-01    0.795E-02
DAV:   2    -0.192011848652E+03   -0.64001E-03   -0.26457E-03 13600   0.255E-01    0.241E-01
DAV:   3    -0.192011269339E+03    0.57931E-03   -0.11632E-03  9720   0.248E-01    0.630E-02
DAV:   4    -0.192011270748E+03   -0.14091E-05   -0.13035E-04  5680   0.689E-02
  88 F= -.19201127E+03 E0= -.19190826E+03  d E =-.388391E-03
       N       E                     dE             d eps       ncg     rms          rms(c)
DAV:   1    -0.192011939565E+03   -0.67023E-03   -0.13497E-01  8160   0.780E-01    0.115E-01
DAV:   2    -0.192014852701E+03   -0.29131E-02   -0.87748E-03 13480   0.502E-01    0.571E-01
DAV:   3    -0.192011987666E+03    0.28650E-02   -0.58393E-03 10320   0.462E-01    0.786E-02
DAV:   4    -0.192012024028E+03   -0.36362E-04   -0.31782E-04  8000   0.101E-01
  89 F= -.19201202E+03 E0= -.19190863E+03  d E =-.753280E-03
       N       E                     dE             d eps       ncg     rms          rms(c)
DAV:   1    -0.192012120321E+03   -0.13266E-03   -0.33179E-01  8160   0.123E+00    0.130E-01
DAV:   2    -0.192013416402E+03   -0.12961E-02   -0.79941E-03 13520   0.400E-01    0.329E-01
DAV:   3    -0.192012451536E+03    0.96487E-03   -0.27166E-03 11280   0.379E-01    0.132E-01
DAV:   4    -0.192012435984E+03    0.15553E-04   -0.69980E-04  8280   0.155E-01
  90 F= -.19201244E+03 E0= -.19190942E+03  d E =-.411956E-03
       N       E                     dE             d eps       ncg     rms          rms(c)
DAV:   1    -0.192013612218E+03   -0.11607E-02   -0.10955E-01  8160   0.727E-01    0.112E-01
DAV:   2    -0.192014675520E+03   -0.10633E-02   -0.53459E-03 13560   0.334E-01    0.330E-01
DAV:   3    -0.192013772176E+03    0.90334E-03   -0.32283E-03 10840   0.343E-01    0.143E-01
DAV:   4    -0.192013663542E+03    0.10863E-03   -0.61464E-04  8280   0.143E-01    0.844E-02
DAV:   5    -0.192013625740E+03    0.37802E-04   -0.32664E-04  8520   0.142E-01
  91 F= -.19201363E+03 E0= -.19191053E+03  d E =-.118976E-02
       N       E                     dE             d eps       ncg     rms          rms(c)
DAV:   1    -0.192014402301E+03   -0.73876E-03   -0.45524E-02  8160   0.462E-01    0.607E-02
DAV:   2    -0.192014683516E+03   -0.28121E-03   -0.19112E-03 12920   0.179E-01    0.161E-01
DAV:   3    -0.192014484083E+03    0.19943E-03   -0.73218E-04  8400   0.168E-01    0.675E-02
DAV:   4    -0.192014489440E+03   -0.53569E-05   -0.16233E-04  6120   0.865E-02
  92 F= -.19201449E+03 E0= -.19191136E+03  d E =-.863700E-03
       N       E                     dE             d eps       ncg     rms          rms(c)
DAV:   1    -0.192015082157E+03   -0.59807E-03   -0.22142E-02  8160   0.328E-01    0.457E-02
DAV:   2    -0.192015145966E+03   -0.63809E-04   -0.73934E-04 11360   0.906E-02
  93 F= -.19201515E+03 E0= -.19191206E+03  d E =-.656526E-03
       N       E                     dE             d eps       ncg     rms          rms(c)
DAV:   1    -0.192016105682E+03   -0.10235E-02   -0.56104E-02  8160   0.518E-01    0.840E-02
DAV:   2    -0.192016884311E+03   -0.77863E-03   -0.29901E-03 13040   0.278E-01    0.297E-01
DAV:   3    -0.192016111365E+03    0.77295E-03   -0.18364E-03 10000   0.260E-01    0.685E-02
DAV:   4    -0.192016177719E+03   -0.66354E-04   -0.27973E-04  7760   0.118E-01
  94 F= -.19201618E+03 E0= -.19191255E+03  d E =-.103175E-02
       N       E                     dE             d eps       ncg     rms          rms(c)
DAV:   1    -0.192016126820E+03   -0.15455E-04   -0.49239E-04 10040   0.118E-01    0.321E-02
DAV:   2    -0.192016321082E+03   -0.19426E-03   -0.37241E-04  8680   0.143E-01    0.138E-01
DAV:   3    -0.192016114572E+03    0.20651E-03   -0.27815E-04  7640   0.127E-01    0.192E-02
DAV:   4    -0.192016125552E+03   -0.10980E-04   -0.25842E-05  5560   0.320E-02
  95 F= -.19201613E+03 E0= -.19191278E+03  d E =0.521678E-04
       N       E                     dE             d eps       ncg     rms          rms(c)
DAV:   1    -0.192017212085E+03   -0.10975E-02   -0.68111E-02  8160   0.562E-01    0.709E-02
DAV:   2    -0.192017522782E+03   -0.31070E-03   -0.26208E-03 12480   0.191E-01    0.158E-01
DAV:   3    -0.192017361659E+03    0.16112E-03   -0.95672E-04  8720   0.189E-01    0.994E-02
DAV:   4    -0.192017300551E+03    0.61108E-04   -0.27572E-04  6880   0.965E-02
  96 F= -.19201730E+03 E0= -.19191380E+03  d E =-.117500E-02
       N       E                     dE             d eps       ncg     rms          rms(c)
DAV:   1    -0.192015845520E+03    0.15161E-02   -0.96746E-02  8160   0.673E-01    0.833E-02
DAV:   2    -0.192016612556E+03   -0.76704E-03   -0.37336E-03 13000   0.317E-01    0.232E-01
DAV:   3    -0.192015943005E+03    0.66955E-03   -0.11809E-03 10120   0.271E-01    0.411E-02
DAV:   4    -0.192015962909E+03   -0.19905E-04   -0.11237E-04  5920   0.705E-02
  97 F= -.19201596E+03 E0= -.19191270E+03  d E =0.133764E-02
       N       E                     dE             d eps       ncg     rms          rms(c)
DAV:   1    -0.192014249584E+03    0.16934E-02   -0.20205E-01  8160   0.976E-01    0.126E-01
DAV:   2    -0.192014608822E+03   -0.35924E-03   -0.57561E-03 12320   0.274E-01    0.154E-01
DAV:   3    -0.192014520064E+03    0.88758E-04   -0.14595E-03 11160   0.275E-01    0.150E-01
DAV:   4    -0.192014430123E+03    0.89941E-04   -0.90055E-04  8680   0.199E-01
  98 F= -.19201443E+03 E0= -.19191118E+03  d E =0.153279E-02
       N       E                     dE             d eps       ncg     rms          rms(c)
DAV:   1    -0.192013983438E+03    0.53663E-03   -0.25200E-02  8160   0.383E-01    0.112E-01
DAV:   2    -0.192016667040E+03   -0.26836E-02   -0.65329E-03 12360   0.505E-01    0.549E-01
DAV:   3    -0.192013882056E+03    0.27850E-02   -0.52751E-03 10520   0.449E-01    0.901E-02
DAV:   4    -0.192013886275E+03   -0.42183E-05   -0.38723E-04  8400   0.130E-01
  99 F= -.19201389E+03 E0= -.19191038E+03  d E =0.543848E-03
       N       E                     dE             d eps       ncg     rms          rms(c)
DAV:   1    -0.192015174745E+03   -0.12927E-02   -0.20811E-01  8160   0.988E-01    0.103E-01
DAV:   2    -0.192015825924E+03   -0.65118E-03   -0.63282E-03 13240   0.286E-01    0.193E-01
DAV:   3    -0.192015610442E+03    0.21548E-03   -0.13950E-03 10920   0.269E-01    0.131E-01
DAV:   4    -0.192015484586E+03    0.12586E-03   -0.40086E-04  7760   0.124E-01    0.869E-02
DAV:   5    -0.192015440372E+03    0.44215E-04   -0.25047E-04  6760   0.103E-01
 100 F= -.19201544E+03 E0= -.19191185E+03  d E =-.155410E-02
