<?xml version="1.0" encoding="ISO-8859-1"?>
<modeling>
 <generator>
  <i name="program" type="string">vasp </i>
  <i name="version" type="string">5.4.1  </i>
  <i name="subversion" type="string">05Feb16 (build Jul 05 2020 17:13:04) complex                          parallel </i>
  <i name="platform" type="string">IFC91_ompi </i>
  <i name="date" type="string">2024 04 25 </i>
  <i name="time" type="string">03:15:13 </i>
 </generator>
 <incar>
  <i type="int" name="ISTART">     0</i>
  <i type="string" name="PREC">normal</i>
  <i type="string" name="ALGO"> Normal</i>
  <i type="int" name="ISPIN">     1</i>
  <i type="int" name="ICHARG">     2</i>
  <i type="int" name="IBRION">     1</i>
  <i type="int" name="NSW">   100</i>
  <i type="int" name="ISIF">     3</i>
  <i type="int" name="ISYM">     0</i>
  <i name="SYMPREC">      0.00000001</i>
  <i name="POTIM">      0.50000000</i>
  <i type="logical" name="LREAL"> F  </i>
  <i type="logical" name="LPLANE"> F  </i>
  <i type="int" name="ISMEAR">     0</i>
  <i type="logical" name="LWAVE"> F  </i>
  <i type="logical" name="LCHARG"> F  </i>
  <v type="int" name="KPOINT_BSE">    -1     0     0     0</v>
 </incar>
 <kpoints>
  <generation param="Gamma">
   <v type="int" name="divisions">       8        8        1 </v>
   <v name="usershift">      0.00000000       0.00000000       0.00000000 </v>
   <v name="genvec1">      0.12500000       0.00000000       0.00000000 </v>
   <v name="genvec2">     -0.00000000       0.12500000       0.00000000 </v>
   <v name="genvec3">      0.00000000       0.00000000       1.00000000 </v>
   <v name="shift">      0.00000000       0.00000000       0.00000000 </v>
  </generation>
  <varray name="kpointlist" >
   <v>       0.00000000       0.00000000       0.00000000 </v>
   <v>       0.12500000       0.00000000       0.00000000 </v>
   <v>       0.25000000       0.00000000       0.00000000 </v>
   <v>       0.37500000       0.00000000       0.00000000 </v>
   <v>       0.50000000       0.00000000       0.00000000 </v>
   <v>       0.00000000       0.12500000       0.00000000 </v>
   <v>       0.12500000       0.12500000       0.00000000 </v>
   <v>       0.25000000       0.12500000       0.00000000 </v>
   <v>       0.37500000       0.12500000       0.00000000 </v>
   <v>       0.50000000       0.12500000       0.00000000 </v>
   <v>      -0.37500000       0.12500000       0.00000000 </v>
   <v>      -0.25000000       0.12500000       0.00000000 </v>
   <v>      -0.12500000       0.12500000       0.00000000 </v>
   <v>       0.00000000       0.25000000       0.00000000 </v>
   <v>       0.12500000       0.25000000       0.00000000 </v>
   <v>       0.25000000       0.25000000       0.00000000 </v>
   <v>       0.37500000       0.25000000       0.00000000 </v>
   <v>       0.50000000       0.25000000       0.00000000 </v>
   <v>      -0.37500000       0.25000000       0.00000000 </v>
   <v>      -0.25000000       0.25000000       0.00000000 </v>
   <v>      -0.12500000       0.25000000       0.00000000 </v>
   <v>      -0.00000000       0.37500000       0.00000000 </v>
   <v>       0.12500000       0.37500000       0.00000000 </v>
   <v>       0.25000000       0.37500000       0.00000000 </v>
   <v>       0.37500000       0.37500000       0.00000000 </v>
   <v>       0.50000000       0.37500000       0.00000000 </v>
   <v>      -0.37500000       0.37500000       0.00000000 </v>
   <v>      -0.25000000       0.37500000       0.00000000 </v>
   <v>      -0.12500000       0.37500000       0.00000000 </v>
   <v>       0.00000000       0.50000000       0.00000000 </v>
   <v>       0.12500000       0.50000000       0.00000000 </v>
   <v>       0.25000000       0.50000000       0.00000000 </v>
   <v>       0.37500000       0.50000000       0.00000000 </v>
   <v>       0.50000000       0.50000000       0.00000000 </v>
  </varray>
  <varray name="weights" >
   <v>       0.01562500 </v>
   <v>       0.03125000 </v>
   <v>       0.03125000 </v>
   <v>       0.03125000 </v>
   <v>       0.01562500 </v>
   <v>       0.03125000 </v>
   <v>       0.03125000 </v>
   <v>       0.03125000 </v>
   <v>       0.03125000 </v>
   <v>       0.03125000 </v>
   <v>       0.03125000 </v>
   <v>       0.03125000 </v>
   <v>       0.03125000 </v>
   <v>       0.03125000 </v>
   <v>       0.03125000 </v>
   <v>       0.03125000 </v>
   <v>       0.03125000 </v>
   <v>       0.03125000 </v>
   <v>       0.03125000 </v>
   <v>       0.03125000 </v>
   <v>       0.03125000 </v>
   <v>       0.03125000 </v>
   <v>       0.03125000 </v>
   <v>       0.03125000 </v>
   <v>       0.03125000 </v>
   <v>       0.03125000 </v>
   <v>       0.03125000 </v>
   <v>       0.03125000 </v>
   <v>       0.03125000 </v>
   <v>       0.01562500 </v>
   <v>       0.03125000 </v>
   <v>       0.03125000 </v>
   <v>       0.03125000 </v>
   <v>       0.01562500 </v>
  </varray>
 </kpoints>
 <parameters>
  <separator name="general" >
   <i type="string" name="SYSTEM">unknown system</i>
   <i type="logical" name="LCOMPAT"> F  </i>
  </separator>
  <separator name="electronic" >
   <i type="string" name="PREC">normal</i>
   <i name="ENMAX">    280.00000000</i>
   <i name="ENAUG">    373.43800000</i>
   <i name="EDIFF">      0.00010000</i>
   <i type="int" name="IALGO">    38</i>
   <i type="int" name="IWAVPR">    11</i>
   <i type="int" name="NBANDS">   120</i>
   <i name="NELECT">    159.00000000</i>
   <i type="int" name="TURBO">     0</i>
   <i type="int" name="IRESTART">     0</i>
   <i type="int" name="NREBOOT">     0</i>
   <i type="int" name="NMIN">     0</i>
   <i name="EREF">      0.00000000</i>
   <separator name="electronic smearing" >
    <i type="int" name="ISMEAR">     0</i>
    <i name="SIGMA">      0.20000000</i>
    <i name="KSPACING">      0.50000000</i>
    <i type="logical" name="KGAMMA"> T  </i>
   </separator>
   <separator name="electronic projectors" >
    <i type="logical" name="LREAL"> F  </i>
    <v name="ROPT">      0.00000000      0.00000000      0.00000000      0.00000000</v>
    <i type="int" name="LMAXPAW">  -100</i>
    <i type="int" name="LMAXMIX">     2</i>
    <i type="logical" name="NLSPLINE"> F  </i>
   </separator>
   <separator name="electronic startup" >
    <i type="int" name="ISTART">     0</i>
    <i type="int" name="ICHARG">     2</i>
    <i type="int" name="INIWAV">     1</i>
   </separator>
   <separator name="electronic spin" >
    <i type="int" name="ISPIN">     1</i>
    <i type="logical" name="LNONCOLLINEAR"> F  </i>
    <v name="MAGMOM">      1.00000000      1.00000000      1.00000000      1.00000000      1.00000000      1.00000000      1.00000000      1.00000000      1.00000000      1.00000000      1.00000000      1.00000000      1.00000000      1.00000000      1.00000000      1.00000000      1.00000000      1.00000000      1.00000000      1.00000000
      1.00000000      1.00000000      1.00000000      1.00000000      1.00000000      1.00000000      1.00000000</v>
    <i name="NUPDOWN">     -1.00000000</i>
    <i type="logical" name="LSORBIT"> F  </i>
    <v name="SAXIS">      0.00000000      0.00000000      1.00000000</v>
    <i type="logical" name="LSPIRAL"> F  </i>
    <v name="QSPIRAL">      0.00000000      0.00000000      0.00000000</v>
    <i type="logical" name="LZEROZ"> F  </i>
   </separator>
   <separator name="electronic exchange-correlation" >
    <i type="logical" name="LASPH"> F  </i>
    <i type="logical" name="LMETAGGA"> F  </i>
   </separator>
   <separator name="electronic convergence" >
    <i type="int" name="NELM">    60</i>
    <i type="int" name="NELMDL">    -5</i>
    <i type="int" name="NELMIN">     2</i>
    <i name="ENINI">    280.00000000</i>
    <separator name="electronic convergence detail" >
     <i type="logical" name="LDIAG"> T  </i>
     <i type="logical" name="LSUBROT"> F  </i>
     <i name="WEIMIN">      0.00100000</i>
     <i name="EBREAK">      0.00000021</i>
     <i name="DEPER">      0.30000000</i>
     <i type="int" name="NRMM">     4</i>
     <i name="TIME">      0.40000000</i>
    </separator>
   </separator>
   <separator name="electronic mixer" >
    <i name="AMIX">      0.40000000</i>
    <i name="BMIX">      1.00000000</i>
    <i name="AMIN">      0.10000000</i>
    <i name="AMIX_MAG">      1.60000000</i>
    <i name="BMIX_MAG">      1.00000000</i>
    <separator name="electronic mixer details" >
     <i type="int" name="IMIX">     4</i>
     <i type="logical" name="MIXFIRST"> F  </i>
     <i type="int" name="MAXMIX">   -45</i>
     <i name="WC">    100.00000000</i>
     <i type="int" name="INIMIX">     1</i>
     <i type="int" name="MIXPRE">     1</i>
     <i type="int" name="MREMOVE">     5</i>
    </separator>
   </separator>
   <separator name="electronic dipolcorrection" >
    <i type="logical" name="LDIPOL"> F  </i>
    <i type="logical" name="LMONO"> F  </i>
    <i type="int" name="IDIPOL">     0</i>
    <i name="EPSILON">      1.00000000</i>
    <v name="DIPOL">   -100.00000000   -100.00000000   -100.00000000</v>
    <i name="EFIELD">      0.00000000</i>
   </separator>
  </separator>
  <separator name="grids" >
   <i type="int" name="NGX">    42</i>
   <i type="int" name="NGY">    42</i>
   <i type="int" name="NGZ">   126</i>
   <i type="int" name="NGXF">    84</i>
   <i type="int" name="NGYF">    84</i>
   <i type="int" name="NGZF">   252</i>
   <i type="logical" name="ADDGRID"> F  </i>
  </separator>
  <separator name="ionic" >
   <i type="int" name="NSW">   100</i>
   <i type="int" name="IBRION">     1</i>
   <i type="int" name="ISIF">     3</i>
   <i name="PSTRESS">      0.00000000</i>
   <i name="EDIFFG">      0.00100000</i>
   <i type="int" name="NFREE">     0</i>
   <i name="POTIM">      0.50000000</i>
   <i name="SMASS">     -3.00000000</i>
   <i name="SCALEE">      1.00000000</i>
  </separator>
  <separator name="ionic md" >
   <i name="TEBEG">      0.00010000</i>
   <i name="TEEND">      0.00010000</i>
   <i type="int" name="NBLOCK">     1</i>
   <i type="int" name="KBLOCK">   100</i>
   <i type="int" name="NPACO">   256</i>
   <i name="APACO">     16.00000000</i>
  </separator>
  <separator name="symmetry" >
   <i type="int" name="ISYM">     0</i>
   <i name="SYMPREC">      0.00000001</i>
  </separator>
  <separator name="dos" >
   <i type="logical" name="LORBIT"> F  </i>
   <v name="RWIGS">     -1.00000000     -1.00000000     -1.00000000     -1.00000000</v>
   <i type="int" name="NEDOS">   301</i>
   <i name="EMIN">     10.00000000</i>
   <i name="EMAX">    -10.00000000</i>
   <i name="EFERMI">      0.00000000</i>
  </separator>
  <separator name="writing" >
   <i type="int" name="NWRITE">     2</i>
   <i type="logical" name="LWAVE"> F  </i>
   <i type="logical" name="LCHARG"> F  </i>
   <i type="logical" name="LPARD"> F  </i>
   <i type="logical" name="LVTOT"> F  </i>
   <i type="logical" name="LVHAR"> F  </i>
   <i type="logical" name="LELF"> F  </i>
   <i type="logical" name="LOPTICS"> F  </i>
   <v name="STM">      0.00000000      0.00000000      0.00000000      0.00000000      0.00000000      0.00000000      0.00000000</v>
  </separator>
  <separator name="performance" >
   <i type="int" name="NPAR">    40</i>
   <i type="int" name="NSIM">     4</i>
   <i type="int" name="NBLK">    -1</i>
   <i type="logical" name="LPLANE"> F  </i>
   <i type="logical" name="LSCALAPACK"> T  </i>
   <i type="logical" name="LSCAAWARE"> F  </i>
   <i type="logical" name="LSCALU"> F  </i>
   <i type="logical" name="LASYNC"> F  </i>
   <i type="logical" name="LORBITALREAL"> F  </i>
  </separator>
  <separator name="miscellaneous" >
   <i type="int" name="IDIOT">     3</i>
   <i type="logical" name="LMUSIC"> F  </i>
   <v name="POMASS">     50.94100000     95.94000000    183.85000000     32.06600000</v>
   <v name="DARWINR">      0.00000000      0.00000000      0.00000000      0.00000000</v>
   <v name="DARWINV">      1.00000000      1.00000000      1.00000000      1.00000000</v>
   <i type="logical" name="LCORR"> T  </i>
  </separator>
  <i type="logical" name="GGA_COMPAT"> T  </i>
  <i type="logical" name="LBERRY"> F  </i>
  <i type="int" name="ICORELEVEL">     0</i>
  <i type="logical" name="LDAU"> F  </i>
  <i type="int" name="I_CONSTRAINED_M">     0</i>
  <separator name="electronic exchange-correlation" >
   <i type="string" name="GGA">--</i>
   <i type="int" name="VOSKOWN">     0</i>
   <i type="logical" name="LHFCALC"> F  </i>
   <i type="string" name="PRECFOCK"></i>
   <i type="logical" name="LSYMGRAD"> F  </i>
   <i type="logical" name="LHFONE"> F  </i>
   <i type="logical" name="LRHFCALC"> F  </i>
   <i type="logical" name="LTHOMAS"> F  </i>
   <i type="logical" name="LMODELHF"> F  </i>
   <i name="ENCUT4O">     -1.00000000</i>
   <i type="int" name="EXXOEP">     0</i>
   <i type="int" name="FOURORBIT">     0</i>
   <i name="AEXX">      0.00000000</i>
   <i name="HFALPHA">      0.00000000</i>
   <i name="MCALPHA">      0.00000000</i>
   <i name="ALDAX">      1.00000000</i>
   <i name="AGGAX">      1.00000000</i>
   <i name="ALDAC">      1.00000000</i>
   <i name="AGGAC">      1.00000000</i>
   <i type="int" name="NKREDX">     1</i>
   <i type="int" name="NKREDY">     1</i>
   <i type="int" name="NKREDZ">     1</i>
   <i type="logical" name="SHIFTRED"> F  </i>
   <i type="logical" name="ODDONLY"> F  </i>
   <i type="logical" name="EVENONLY"> F  </i>
   <i type="int" name="LMAXFOCK">     0</i>
   <i type="int" name="NMAXFOCKAE">     0</i>
   <i type="logical" name="LFOCKAEDFT"> F  </i>
   <i name="HFSCREEN">      0.00000000</i>
   <i name="HFSCREENC">      0.00000000</i>
   <i type="int" name="NBANDSGWLOW">     0</i>
  </separator>
  <separator name="vdW DFT" >
   <i type="logical" name="LUSE_VDW"> F  </i>
   <i name="Zab_VDW">     -0.84910000</i>
   <i name="PARAM1">      0.12340000</i>
   <i name="PARAM2">      1.00000000</i>
   <i name="PARAM3">      0.00000000</i>
  </separator>
  <separator name="model GW" >
   <i type="int" name="MODEL_GW">     0</i>
   <i name="MODEL_EPS0">     58.26239943</i>
   <i name="MODEL_ALPHA">      1.00000000</i>
  </separator>
  <separator name="linear response parameters" >
   <i type="logical" name="LEPSILON"> F  </i>
   <i type="logical" name="LRPA"> F  </i>
   <i type="logical" name="LNABLA"> F  </i>
   <i type="logical" name="LVEL"> F  </i>
   <i type="int" name="KINTER">     0</i>
   <i name="CSHIFT">      0.10000000</i>
   <i name="OMEGAMAX">     -1.00000000</i>
   <i name="DEG_THRESHOLD">      0.00200000</i>
  </separator>
  <separator name="orbital magnetization" >
   <i type="logical" name="NUCIND"> F  </i>
   <v name="MAGPOS">      0.00000000      0.00000000      0.00000000</v>
   <i type="logical" name="LNICSALL"> T  </i>
   <i type="logical" name="ORBITALMAG"> F  </i>
   <i type="logical" name="LMAGBLOCH"> F  </i>
   <i type="logical" name="LCHIMAG"> F  </i>
   <i type="logical" name="LGAUGE"> T  </i>
   <i type="int" name="MAGATOM">     0</i>
   <v name="MAGDIPOL">      0.00000000      0.00000000      0.00000000</v>
   <v name="AVECCONST">      0.00000000      0.00000000      0.00000000</v>
  </separator>
  <separator name="response functions" >
   <i type="logical" name="LADDER"> F  </i>
   <i type="logical" name="LFXC"> F  </i>
   <i type="logical" name="LHARTREE"> T  </i>
   <i type="int" name="IBSE">     0</i>
   <v type="int" name="KPOINT">    -1     0     0     0</v>
   <i type="logical" name="LTCTE"> F  </i>
   <i type="logical" name="LTETE"> F  </i>
   <i type="logical" name="LTRIPLET"> F  </i>
   <i type="logical" name="LFXCEPS"> F  </i>
   <i type="logical" name="LFXHEG"> F  </i>
   <i type="int" name="NATURALO">     0</i>
   <i type="logical" name="L2ORDER"> F  </i>
   <i type="logical" name="LUSEW"> F  </i>
   <i name="ENCUTGW">     -2.00000000</i>
   <i name="ENCUTGWSOFT">     -2.00000000</i>
   <i name="ENCUTLF">     -1.00000000</i>
   <i type="int" name="LMAXMP2">    -1</i>
   <i name="SCISSOR">      0.00000000</i>
   <i type="int" name="NOMEGA">     0</i>
   <i type="int" name="NOMEGAR">     0</i>
   <i type="int" name="NBANDSGW">    -1</i>
   <i type="int" name="NBANDSO">    -1</i>
   <i type="int" name="NBANDSV">    -1</i>
   <i type="int" name="NELM">     1</i>
   <i type="int" name="NELMHF">     1</i>
   <i type="int" name="DIM">     3</i>
   <i type="int" name="ANTIRES">     0</i>
   <i name="OMEGAMAX">    -30.00000000</i>
   <i name="OMEGAMIN">    -30.00000000</i>
   <i name="OMEGATL">   -200.00000000</i>
   <i type="int" name="OMEGAGRID">     0</i>
   <i name="CSHIFT">     -0.10000000</i>
   <i type="logical" name="SELFENERGY"> F  </i>
   <i type="logical" name="LSPECTRAL"> F  </i>
   <i type="logical" name="LSPECTRALGW"> F  </i>
   <i type="logical" name="LSINGLES"> F  </i>
   <i type="logical" name="LFERMIGW"> F  </i>
   <i type="logical" name="ODDONLYGW"> F  </i>
   <i type="logical" name="EVENONLYGW"> F  </i>
   <i type="int" name="NKREDLFX">     1</i>
   <i type="int" name="NKREDLFY">     1</i>
   <i type="int" name="NKREDLFZ">     1</i>
   <i type="int" name="MAXMEM">  1800</i>
   <i type="int" name="TELESCOPE">     0</i>
   <i type="int" name="TAUPAR">     1</i>
   <i type="int" name="OMEGAPAR">    -1</i>
   <i name="LAMBDA">      1.00000000</i>
  </separator>
  <separator name="External order field" >
   <i name="OFIELD_KAPPA">      0.00000000</i>
   <v name="OFIELD_K">      0.00000000      0.00000000      0.00000000</v>
   <i name="OFIELD_Q6_NEAR">      0.00000000</i>
   <i name="OFIELD_Q6_FAR">      0.00000000</i>
   <i name="OFIELD_A">      0.00000000</i>
  </separator>
 </parameters>
 <atominfo>
  <atoms>      27 </atoms>
  <types>       4 </types>
  <array name="atoms" >
   <dimension dim="1">ion</dimension>
   <field type="string">element</field>
   <field type="int">atomtype</field>
   <set>
    <rc><c>V </c><c>   1</c></rc>
    <rc><c>V </c><c>   1</c></rc>
    <rc><c>V </c><c>   1</c></rc>
    <rc><c>Mo</c><c>   2</c></rc>
    <rc><c>Mo</c><c>   2</c></rc>
    <rc><c>Mo</c><c>   2</c></rc>
    <rc><c>W </c><c>   3</c></rc>
    <rc><c>W </c><c>   3</c></rc>
    <rc><c>W </c><c>   3</c></rc>
    <rc><c>S </c><c>   4</c></rc>
    <rc><c>S </c><c>   4</c></rc>
    <rc><c>S </c><c>   4</c></rc>
    <rc><c>S </c><c>   4</c></rc>
    <rc><c>S </c><c>   4</c></rc>
    <rc><c>S </c><c>   4</c></rc>
    <rc><c>S </c><c>   4</c></rc>
    <rc><c>S </c><c>   4</c></rc>
    <rc><c>S </c><c>   4</c></rc>
    <rc><c>S </c><c>   4</c></rc>
    <rc><c>S </c><c>   4</c></rc>
    <rc><c>S </c><c>   4</c></rc>
    <rc><c>S </c><c>   4</c></rc>
    <rc><c>S </c><c>   4</c></rc>
    <rc><c>S </c><c>   4</c></rc>
    <rc><c>S </c><c>   4</c></rc>
    <rc><c>S </c><c>   4</c></rc>
    <rc><c>S </c><c>   4</c></rc>
   </set>
  </array>
  <array name="atomtypes" >
   <dimension dim="1">type</dimension>
   <field type="int">atomspertype</field>
   <field type="string">element</field>
   <field>mass</field>
   <field>valence</field>
   <field type="string">pseudopotential</field>
   <set>
    <rc><c>   3</c><c>V </c><c>     50.94100000</c><c>      5.00000000</c><c> PAW_PBE V 08Apr2002                    </c></rc>
    <rc><c>   3</c><c>Mo</c><c>     95.94000000</c><c>      6.00000000</c><c> PAW_PBE Mo 08Apr2002                   </c></rc>
    <rc><c>   3</c><c>W </c><c>    183.85000000</c><c>      6.00000000</c><c> PAW_PBE W 08Apr2002                    </c></rc>
    <rc><c>  18</c><c>S </c><c>     32.06600000</c><c>      6.00000000</c><c>  PAW_PBE S 17Jan2003                   </c></rc>
   </set>
  </array>
 </atominfo>
 <structure name="initialpos" >
  <crystal>
   <varray name="basis" >
    <v>       8.66999996       5.03999989       0.00000000 </v>
    <v>      -8.66999982       5.04000013       0.00000000 </v>
    <v>       0.00000000       0.00000000      30.00000000 </v>
   </varray>
   <i name="volume">   2621.80797419 </i>
   <varray name="rec_basis" >
    <v>       0.05767013       0.09920635       0.00000000 </v>
    <v>      -0.05767013       0.09920635       0.00000000 </v>
    <v>       0.00000000       0.00000000       0.03333333 </v>
   </varray>
  </crystal>
  <varray name="positions" >
   <v>       0.33333334       0.66666669       0.00000000 </v>
   <v>       0.00000000       0.66666669       0.00000000 </v>
   <v>       0.66666669       0.66666669       0.00000000 </v>
   <v>       0.33333334       0.33333334       0.00000000 </v>
   <v>       1.00000000       0.33333334       0.00000000 </v>
   <v>       0.00000000       0.00000000       0.00000000 </v>
   <v>       0.33333334       0.00000000       0.00000000 </v>
   <v>       0.66666669       0.00000000       0.00000000 </v>
   <v>       0.66666669       0.33333334       0.00000000 </v>
   <v>       0.11068511       0.22244981       0.95539999 </v>
   <v>       0.22244981       0.11068511       0.04460000 </v>
   <v>       0.11068511       0.55578315       0.95539999 </v>
   <v>       0.22244981       0.44401845       0.04460000 </v>
   <v>       0.11068511       0.88911647       0.95539999 </v>
   <v>       0.22244981       0.77735180       0.04460000 </v>
   <v>       0.44401845       0.22244981       0.95539999 </v>
   <v>       0.55578315       0.11068511       0.04460000 </v>
   <v>       0.44401845       0.55578315       0.95539999 </v>
   <v>       0.55578315       0.44401845       0.04460000 </v>
   <v>       0.44401845       0.88911647       0.95539999 </v>
   <v>       0.55578315       0.77735180       0.04460000 </v>
   <v>       0.77735180       0.22244981       0.95539999 </v>
   <v>       0.88911647       0.11068511       0.04460000 </v>
   <v>       0.77735180       0.55578315       0.95539999 </v>
   <v>       0.88911647       0.44401845       0.04460000 </v>
   <v>       0.77735180       0.88911647       0.95539999 </v>
   <v>       0.88911647       0.77735180       0.04460000 </v>
  </varray>
 </structure>
 <calculation>
  <scstep>
   <time name="dav">   21.61   21.66</time>
   <time name="total">   21.66   21.71</time>
   <energy>
    <i name="alphaZ">     81.65567618 </i>
    <i name="ewald">  41891.19377233 </i>
    <i name="hartreedc"> -47723.83912524 </i>
    <i name="XCdc">   -242.92452248 </i>
    <i name="pawpsdc">   3467.42045192 </i>
    <i name="pawaedc">  -2871.19716117 </i>
    <i name="eentropy">     -0.54275280 </i>
    <i name="bandstr">   -239.31162479 </i>
    <i name="atom">   6761.44252427 </i>
    <i name="e_fr_energy">   1123.89723821 </i>
    <i name="e_wo_entrp">   1124.43999101 </i>
    <i name="e_0_energy">   1124.16861461 </i>
   </energy>
  </scstep>
  <scstep>
   <time name="dav">   28.11   28.18</time>
   <time name="total">   28.11   28.19</time>
   <energy>
    <i name="e_fr_energy">     -2.84490619 </i>
    <i name="e_wo_entrp">     -2.64126067 </i>
    <i name="e_0_energy">     -2.74308343 </i>
   </energy>
  </scstep>
  <scstep>
   <time name="dav">   27.37   27.44</time>
   <time name="total">   27.37   27.44</time>
   <energy>
    <i name="e_fr_energy">   -199.87162942 </i>
    <i name="e_wo_entrp">   -199.60823939 </i>
    <i name="e_0_energy">   -199.73993441 </i>
   </energy>
  </scstep>
  <scstep>
   <time name="dav">   30.15   30.22</time>
   <time name="total">   30.15   30.23</time>
   <energy>
    <i name="e_fr_energy">   -209.06146662 </i>
    <i name="e_wo_entrp">   -208.78433204 </i>
    <i name="e_0_energy">   -208.92289933 </i>
   </energy>
  </scstep>
  <scstep>
   <time name="dav">   28.39   28.46</time>
   <time name="total">   28.85   28.93</time>
   <energy>
    <i name="e_fr_energy">   -209.35474242 </i>
    <i name="e_wo_entrp">   -209.07984201 </i>
    <i name="e_0_energy">   -209.21729221 </i>
   </energy>
  </scstep>
  <scstep>
   <time name="dav">   30.68   30.76</time>
   <time name="total">   31.18   31.26</time>
   <energy>
    <i name="e_fr_energy">   -240.94126431 </i>
    <i name="e_wo_entrp">   -240.66643303 </i>
    <i name="e_0_energy">   -240.80384867 </i>
   </energy>
  </scstep>
  <scstep>
   <time name="dav">   32.10   32.17</time>
   <time name="total">   32.60   32.68</time>
   <energy>
    <i name="e_fr_energy">   -196.27609220 </i>
    <i name="e_wo_entrp">   -195.94545873 </i>
    <i name="e_0_energy">   -196.11077547 </i>
   </energy>
  </scstep>
  <scstep>
   <time name="dav">   29.96   30.04</time>
   <time name="total">   30.48   30.57</time>
   <energy>
    <i name="e_fr_energy">   -189.53033026 </i>
    <i name="e_wo_entrp">   -189.19327554 </i>
    <i name="e_0_energy">   -189.36180290 </i>
   </energy>
  </scstep>
  <scstep>
   <time name="dav">   30.91   30.98</time>
   <time name="total">   31.43   31.51</time>
   <energy>
    <i name="e_fr_energy">   -188.08211684 </i>
    <i name="e_wo_entrp">   -187.73663865 </i>
    <i name="e_0_energy">   -187.90937774 </i>
   </energy>
  </scstep>
  <scstep>
   <time name="dav">   32.71   32.79</time>
   <time name="total">   33.25   33.34</time>
   <energy>
    <i name="e_fr_energy">   -186.92928605 </i>
    <i name="e_wo_entrp">   -186.57545141 </i>
    <i name="e_0_energy">   -186.75236873 </i>
   </energy>
  </scstep>
  <scstep>
   <time name="dav">   32.49   32.57</time>
   <time name="total">   33.02   33.11</time>
   <energy>
    <i name="e_fr_energy">   -187.07598523 </i>
    <i name="e_wo_entrp">   -186.73693232 </i>
    <i name="e_0_energy">   -186.90645878 </i>
   </energy>
  </scstep>
  <scstep>
   <time name="dav">   31.11   31.19</time>
   <time name="total">   31.65   31.74</time>
   <energy>
    <i name="e_fr_energy">   -186.92490294 </i>
    <i name="e_wo_entrp">   -186.58423971 </i>
    <i name="e_0_energy">   -186.75457133 </i>
   </energy>
  </scstep>
  <scstep>
   <time name="dav">   31.71   31.78</time>
   <time name="total">   32.25   32.33</time>
   <energy>
    <i name="e_fr_energy">   -186.85481174 </i>
    <i name="e_wo_entrp">   -186.51045512 </i>
    <i name="e_0_energy">   -186.68263343 </i>
   </energy>
  </scstep>
  <scstep>
   <time name="dav">   31.20   31.28</time>
   <time name="total">   31.74   31.83</time>
   <energy>
    <i name="e_fr_energy">   -186.84308410 </i>
    <i name="e_wo_entrp">   -186.49688619 </i>
    <i name="e_0_energy">   -186.66998514 </i>
   </energy>
  </scstep>
  <scstep>
   <time name="dav">   31.53   31.60</time>
   <time name="total">   32.06   32.15</time>
   <energy>
    <i name="e_fr_energy">   -186.82988380 </i>
    <i name="e_wo_entrp">   -186.48279127 </i>
    <i name="e_0_energy">   -186.65633753 </i>
   </energy>
  </scstep>
  <scstep>
   <time name="dav">   30.16   30.23</time>
   <time name="total">   30.69   30.78</time>
   <energy>
    <i name="e_fr_energy">   -186.82756478 </i>
    <i name="e_wo_entrp">   -186.48092314 </i>
    <i name="e_0_energy">   -186.65424396 </i>
   </energy>
  </scstep>
  <scstep>
   <time name="dav">   31.06   31.13</time>
   <time name="total">   31.60   31.68</time>
   <energy>
    <i name="e_fr_energy">   -186.82624738 </i>
    <i name="e_wo_entrp">   -186.48043762 </i>
    <i name="e_0_energy">   -186.65334250 </i>
   </energy>
  </scstep>
  <scstep>
   <time name="dav">   30.97   31.04</time>
   <time name="total">   31.51   31.59</time>
   <energy>
    <i name="e_fr_energy">   -186.82574266 </i>
    <i name="e_wo_entrp">   -186.47951814 </i>
    <i name="e_0_energy">   -186.65263040 </i>
   </energy>
  </scstep>
  <scstep>
   <time name="dav">   26.72   26.79</time>
   <time name="total">   27.26   27.33</time>
   <energy>
    <i name="e_fr_energy">   -186.82639152 </i>
    <i name="e_wo_entrp">   -186.48057299 </i>
    <i name="e_0_energy">   -186.65348226 </i>
   </energy>
  </scstep>
  <scstep>
   <time name="dav">   20.67   20.71</time>
   <time name="total">   21.20   21.26</time>
   <energy>
    <i name="e_fr_energy">   -186.82687185 </i>
    <i name="e_wo_entrp">   -186.48111717 </i>
    <i name="e_0_energy">   -186.65399451 </i>
   </energy>
  </scstep>
  <scstep>
   <time name="dav">   20.35   20.40</time>
   <time name="total">   20.89   20.95</time>
   <energy>
    <i name="e_fr_energy">   -186.82792129 </i>
    <i name="e_wo_entrp">   -186.48211281 </i>
    <i name="e_0_energy">   -186.65501705 </i>
   </energy>
  </scstep>
  <scstep>
   <time name="dav">   21.51   21.56</time>
   <time name="total">   22.05   22.11</time>
   <energy>
    <i name="e_fr_energy">   -186.82900267 </i>
    <i name="e_wo_entrp">   -186.48317275 </i>
    <i name="e_0_energy">   -186.65608771 </i>
   </energy>
  </scstep>
  <scstep>
   <time name="dav">   17.74   17.78</time>
   <time name="total">   18.27   18.32</time>
   <energy>
    <i name="e_fr_energy">   -186.82947796 </i>
    <i name="e_wo_entrp">   -186.48364875 </i>
    <i name="e_0_energy">   -186.65656336 </i>
   </energy>
  </scstep>
  <scstep>
   <time name="dav">   19.70   19.75</time>
   <time name="total">   20.24   20.29</time>
   <energy>
    <i name="e_fr_energy">   -186.83012562 </i>
    <i name="e_wo_entrp">   -186.48429480 </i>
    <i name="e_0_energy">   -186.65721021 </i>
   </energy>
  </scstep>
  <scstep>
   <time name="dav">   18.05   18.09</time>
   <time name="total">   18.59   18.65</time>
   <energy>
    <i name="e_fr_energy">   -186.83047564 </i>
    <i name="e_wo_entrp">   -186.48463168 </i>
    <i name="e_0_energy">   -186.65755366 </i>
   </energy>
  </scstep>
  <scstep>
   <time name="dav">   18.95   19.00</time>
   <time name="total">   19.49   19.54</time>
   <energy>
    <i name="e_fr_energy">   -186.83072042 </i>
    <i name="e_wo_entrp">   -186.48488752 </i>
    <i name="e_0_energy">   -186.65780397 </i>
   </energy>
  </scstep>
  <scstep>
   <time name="dav">   20.70   20.75</time>
   <time name="total">   20.74   20.80</time>
   <energy>
    <i name="alphaZ">     81.65567618 </i>
    <i name="ewald">  41891.19377233 </i>
    <i name="hartreedc"> -47833.69760066 </i>
    <i name="XCdc">   -231.60755491 </i>
    <i name="pawpsdc">   4192.07447887 </i>
    <i name="pawaedc">  -3610.07480431 </i>
    <i name="eentropy">     -0.34583260 </i>
    <i name="bandstr">  -1437.47144905 </i>
    <i name="atom">   6761.44252427 </i>
    <i name="e_fr_energy">   -186.83078988 </i>
    <i name="e_wo_entrp">   -186.48495728 </i>
    <i name="e_0_energy">   -186.65787358 </i>
   </energy>
  </scstep>
  <structure>
   <crystal>
    <varray name="basis" >
     <v>       8.66999996       5.03999989       0.00000000 </v>
     <v>      -8.66999982       5.04000013       0.00000000 </v>
     <v>       0.00000000       0.00000000      30.00000000 </v>
    </varray>
    <i name="volume">   2621.80797419 </i>
    <varray name="rec_basis" >
     <v>       0.05767013       0.09920635       0.00000000 </v>
     <v>      -0.05767013       0.09920635       0.00000000 </v>
     <v>       0.00000000       0.00000000       0.03333333 </v>
    </varray>
   </crystal>
   <varray name="positions" >
    <v>       0.33333334       0.66666669       0.00000000 </v>
    <v>       0.00000000       0.66666669       0.00000000 </v>
    <v>       0.66666669       0.66666669       0.00000000 </v>
    <v>       0.33333334       0.33333334       0.00000000 </v>
    <v>       1.00000000       0.33333334       0.00000000 </v>
    <v>       0.00000000       0.00000000       0.00000000 </v>
    <v>       0.33333334       0.00000000       0.00000000 </v>
    <v>       0.66666669       0.00000000       0.00000000 </v>
    <v>       0.66666669       0.33333334       0.00000000 </v>
    <v>       0.11068511       0.22244981       0.95539999 </v>
    <v>       0.22244981       0.11068511       0.04460000 </v>
    <v>       0.11068511       0.55578315       0.95539999 </v>
    <v>       0.22244981       0.44401845       0.04460000 </v>
    <v>       0.11068511       0.88911647       0.95539999 </v>
    <v>       0.22244981       0.77735180       0.04460000 </v>
    <v>       0.44401845       0.22244981       0.95539999 </v>
    <v>       0.55578315       0.11068511       0.04460000 </v>
    <v>       0.44401845       0.55578315       0.95539999 </v>
    <v>       0.55578315       0.44401845       0.04460000 </v>
    <v>       0.44401845       0.88911647       0.95539999 </v>
    <v>       0.55578315       0.77735180       0.04460000 </v>
    <v>       0.77735180       0.22244981       0.95539999 </v>
    <v>       0.88911647       0.11068511       0.04460000 </v>
    <v>       0.77735180       0.55578315       0.95539999 </v>
    <v>       0.88911647       0.44401845       0.04460000 </v>
    <v>       0.77735180       0.88911647       0.95539999 </v>
    <v>       0.88911647       0.77735180       0.04460000 </v>
   </varray>
  </structure>
  <varray name="forces" >
   <v>       0.22933494      -0.37623468      -0.05483791 </v>
   <v>      -0.00814156       0.01583245       0.02872558 </v>
   <v>      -0.00889176       0.01497151       0.02931225 </v>
   <v>      -0.27942143      -0.40030741      -0.13269529 </v>
   <v>       0.49806237       0.02389916      -0.13856293 </v>
   <v>      -0.23634259       0.38813639       0.17102636 </v>
   <v>      -0.51613308      -0.08480489       0.11838410 </v>
   <v>       0.34254262       0.38913502       0.11375586 </v>
   <v>      -0.05266843       0.06732537      -0.09129849 </v>
   <v>       0.09644591       0.03498584      -2.94174146 </v>
   <v>       0.07040942      -0.03201692       2.92955803 </v>
   <v>      -0.31884596       0.66843869      -1.40931558 </v>
   <v>      -0.53245823       0.70594023       2.17063193 </v>
   <v>       0.62669494      -0.55998773      -2.14490896 </v>
   <v>       0.23598098      -0.52197730       1.40856393 </v>
   <v>       0.26120410       0.03634189      -2.91533479 </v>
   <v>      -0.10824203      -0.03906131       2.92669763 </v>
   <v>      -0.32856956       0.66152241      -1.41266362 </v>
   <v>      -0.36782789       0.69436023       2.11682438 </v>
   <v>       0.46754076      -0.56449884      -2.09016821 </v>
   <v>       0.23614579      -0.52038251       1.41171689 </v>
   <v>       0.02981758      -0.10176635      -2.91846897 </v>
   <v>      -0.18810328      -0.18650731       2.92759951 </v>
   <v>      -0.23538878       0.51596138      -1.43616092 </v>
   <v>      -0.61190134       0.54804459       2.10853463 </v>
   <v>       0.37604674      -0.70952506      -2.15298128 </v>
   <v>       0.32270977      -0.66782488       1.37780731 </v>
  </varray>
  <varray name="stress" >
   <v>       7.27026247      -0.13449908      -1.56552878 </v>
   <v>      -0.13449914       4.50475672      -0.00054753 </v>
   <v>      -1.56552887      -0.00054761      30.31222511 </v>
  </varray>
  <energy>
   <i name="e_fr_energy">   -186.83078988 </i>
   <i name="e_wo_entrp">   -186.65787358 </i>
   <i name="e_0_energy">     -0.34583260 </i>
  </energy>
  <time name="totalsc">  780.34  782.43</time>
 </calculation>
 <calculation>
  <scstep>
   <time name="dav">   21.57   21.62</time>
   <time name="total">   22.11   22.16</time>
   <energy>
    <i name="alphaZ">     78.91660458 </i>
    <i name="ewald">  39376.56714161 </i>
    <i name="hartreedc"> -45333.83019852 </i>
    <i name="XCdc">   -239.07971209 </i>
    <i name="pawpsdc">   4192.05153235 </i>
    <i name="pawaedc">  -3610.05222034 </i>
    <i name="eentropy">     -0.28807735 </i>
    <i name="bandstr">  -1413.24996776 </i>
    <i name="atom">   6761.44252427 </i>
    <i name="e_fr_energy">   -187.52237324 </i>
    <i name="e_wo_entrp">   -187.23429590 </i>
    <i name="e_0_energy">   -187.37833457 </i>
   </energy>
  </scstep>
  <scstep>
   <time name="dav">   30.17   30.24</time>
   <time name="total">   30.70   30.78</time>
   <energy>
    <i name="e_fr_energy">   -189.50583404 </i>
    <i name="e_wo_entrp">   -189.17934811 </i>
    <i name="e_0_energy">   -189.34259108 </i>
   </energy>
  </scstep>
  <scstep>
   <time name="dav">   30.69   30.76</time>
   <time name="total">   31.25   31.33</time>
   <energy>
    <i name="e_fr_energy">   -189.34972560 </i>
    <i name="e_wo_entrp">   -189.07524841 </i>
    <i name="e_0_energy">   -189.21248701 </i>
   </energy>
  </scstep>
  <scstep>
   <time name="dav">   31.21   31.28</time>
   <time name="total">   31.75   31.84</time>
   <energy>
    <i name="e_fr_energy">   -188.77244470 </i>
    <i name="e_wo_entrp">   -188.48591378 </i>
    <i name="e_0_energy">   -188.62917924 </i>
   </energy>
  </scstep>
  <scstep>
   <time name="dav">   26.23   26.29</time>
   <time name="total">   26.78   26.85</time>
   <energy>
    <i name="e_fr_energy">   -188.73039933 </i>
    <i name="e_wo_entrp">   -188.44407415 </i>
    <i name="e_0_energy">   -188.58723674 </i>
   </energy>
  </scstep>
  <scstep>
   <time name="dav">   32.29   32.37</time>
   <time name="total">   32.83   32.92</time>
   <energy>
    <i name="e_fr_energy">   -188.77867333 </i>
    <i name="e_wo_entrp">   -188.48969841 </i>
    <i name="e_0_energy">   -188.63418587 </i>
   </energy>
  </scstep>
  <scstep>
   <time name="dav">   31.20   31.28</time>
   <time name="total">   31.75   31.83</time>
   <energy>
    <i name="e_fr_energy">   -188.71174379 </i>
    <i name="e_wo_entrp">   -188.42538157 </i>
    <i name="e_0_energy">   -188.56856268 </i>
   </energy>
  </scstep>
  <scstep>
   <time name="dav">   28.37   28.44</time>
   <time name="total">   28.91   28.99</time>
   <energy>
    <i name="e_fr_energy">   -188.68853227 </i>
    <i name="e_wo_entrp">   -188.40301870 </i>
    <i name="e_0_energy">   -188.54577548 </i>
   </energy>
  </scstep>
  <scstep>
   <time name="dav">   30.49   30.56</time>
   <time name="total">   31.03   31.11</time>
   <energy>
    <i name="e_fr_energy">   -188.68974210 </i>
    <i name="e_wo_entrp">   -188.40444520 </i>
    <i name="e_0_energy">   -188.54709365 </i>
   </energy>
  </scstep>
  <scstep>
   <time name="dav">   31.85   31.92</time>
   <time name="total">   32.39   32.48</time>
   <energy>
    <i name="e_fr_energy">   -188.68757771 </i>
    <i name="e_wo_entrp">   -188.40267323 </i>
    <i name="e_0_energy">   -188.54512547 </i>
   </energy>
  </scstep>
  <scstep>
   <time name="dav">   28.59   28.66</time>
   <time name="total">   29.14   29.21</time>
   <energy>
    <i name="e_fr_energy">   -188.68707684 </i>
    <i name="e_wo_entrp">   -188.40239431 </i>
    <i name="e_0_energy">   -188.54473558 </i>
   </energy>
  </scstep>
  <scstep>
   <time name="dav">   25.59   25.65</time>
   <time name="total">   25.63   25.70</time>
   <energy>
    <i name="alphaZ">     78.91660458 </i>
    <i name="ewald">  39376.56714161 </i>
    <i name="hartreedc"> -45344.80276023 </i>
    <i name="XCdc">   -237.98156708 </i>
    <i name="pawpsdc">   3950.89921326 </i>
    <i name="pawaedc">  -3365.41202815 </i>
    <i name="eentropy">     -0.28468766 </i>
    <i name="bandstr">  -1408.03160270 </i>
    <i name="atom">   6761.44252427 </i>
    <i name="e_fr_energy">   -188.68716210 </i>
    <i name="e_wo_entrp">   -188.40247444 </i>
    <i name="e_0_energy">   -188.54481827 </i>
   </energy>
  </scstep>
  <structure>
   <crystal>
    <varray name="basis" >
     <v>       8.85231862       5.10297377       0.00000000 </v>
     <v>      -8.85628251       5.10979310       0.00000000 </v>
     <v>       0.00000000       0.00000000      30.00000000 </v>
    </varray>
    <i name="volume">   2712.80681786 </i>
    <varray name="rec_basis" >
     <v>       0.05650745       0.09793859       0.00000000 </v>
     <v>      -0.05643204       0.09789475       0.00000000 </v>
     <v>       0.00000000       0.00000000       0.03333333 </v>
    </varray>
   </crystal>
   <varray name="positions" >
    <v>       0.33217074       0.66422799      -0.00008818 </v>
    <v>       0.00005312       0.66676511       0.00004619 </v>
    <v>       0.66671360       0.66676308       0.00004714 </v>
    <v>       0.33064009       0.33219488      -0.00021339 </v>
    <v>       1.00150007       0.33206203      -0.00022282 </v>
    <v>       0.00120007       0.00251515       0.00027503 </v>
    <v>       0.33149150       0.00103009       0.00019037 </v>
    <v>       0.66948209       0.00090938       0.00018293 </v>
    <v>       0.66684237       0.33380209      -0.00014682 </v>
    <v>       0.11112088       0.22234892       0.95066941 </v>
    <v>       0.22249247       0.11033599       0.04931099 </v>
    <v>       0.11299716       0.55986937       0.95313369 </v>
    <v>       0.22434704       0.44887845       0.04809057 </v>
    <v>       0.10974859       0.88469281       0.95195079 </v>
    <v>       0.22060817       0.77419709       0.04686509 </v>
    <v>       0.44491910       0.22189703       0.95071187 </v>
    <v>       0.55529506       0.11079931       0.04930639 </v>
    <v>       0.44627035       0.55986332       0.95312830 </v>
    <v>       0.55808299       0.44836500       0.04800404 </v>
    <v>       0.44261755       0.88511401       0.95203881 </v>
    <v>       0.55394961       0.77420426       0.04687016 </v>
    <v>       0.77694770       0.22187980       0.95070683 </v>
    <v>       0.88770051       0.11031582       0.04930784 </v>
    <v>       0.77916629       0.55890742       0.95309052 </v>
    <v>       0.89003699       0.44834379       0.04799071 </v>
    <v>       0.77500225       0.88467447       0.95193781 </v>
    <v>       0.88681810       0.77325777       0.04681563 </v>
   </varray>
  </structure>
  <varray name="forces" >
   <v>       0.18375123      -0.32033418      -0.11214725 </v>
   <v>      -0.00424819       0.00175882       0.08801513 </v>
   <v>       0.00391269       0.00400787       0.08789242 </v>
   <v>      -0.09357187      -0.58833658      -0.03258255 </v>
   <v>       0.55623047      -0.20869085      -0.03604208 </v>
   <v>      -0.32225622       0.55759881       0.02317122 </v>
   <v>      -0.53131335       0.10667981      -0.07101946 </v>
   <v>       0.17715277       0.51572341      -0.07754191 </v>
   <v>       0.07044839      -0.13750688       0.08969352 </v>
   <v>       0.00119278      -0.00803842      -0.40117142 </v>
   <v>       0.11352819       0.00569781       0.28473224 </v>
   <v>       0.00179121       0.04325387       0.06077679 </v>
   <v>      -0.03017920       0.07238849       0.11657442 </v>
   <v>       0.06390577       0.05070641       0.07045402 </v>
   <v>      -0.06123976       0.06755129      -0.13929730 </v>
   <v>       0.09617911      -0.00543177      -0.04135046 </v>
   <v>       0.02020034      -0.01022691      -0.11476950 </v>
   <v>      -0.01567055       0.03453909       0.05587689 </v>
   <v>       0.09667536       0.03941198      -0.17219892 </v>
   <v>      -0.06363670       0.08084934       0.38296291 </v>
   <v>      -0.04998626       0.07130814      -0.13333285 </v>
   <v>      -0.06044168      -0.09518543      -0.03300200 </v>
   <v>      -0.04786580      -0.08678613       0.29184960 </v>
   <v>       0.05097575      -0.06198519       0.05028227 </v>
   <v>      -0.06442088      -0.05140135      -0.17247099 </v>
   <v>      -0.09651811      -0.04045326       0.07072286 </v>
   <v>       0.00540450      -0.03709819      -0.13607762 </v>
  </varray>
  <varray name="stress" >
   <v>     -19.94319977       0.04568482      -0.00181868 </v>
   <v>       0.04568480     -19.55926717       0.07962829 </v>
   <v>      -0.00181867       0.07962834      -1.84963293 </v>
  </varray>
  <energy>
   <i name="e_fr_energy">   -188.68716210 </i>
   <i name="e_wo_entrp">   -188.54481827 </i>
   <i name="e_0_energy">     -0.28468766 </i>
  </energy>
  <time name="totalsc">  396.07  397.12</time>
 </calculation>
 <calculation>
  <scstep>
   <time name="dav">   23.65   23.71</time>
   <time name="total">   24.19   24.25</time>
   <energy>
    <i name="alphaZ">     82.34675784 </i>
    <i name="ewald">  41303.34079459 </i>
    <i name="hartreedc"> -47302.22178637 </i>
    <i name="XCdc">   -233.85111875 </i>
    <i name="pawpsdc">   3950.27295371 </i>
    <i name="pawaedc">  -3364.77851152 </i>
    <i name="eentropy">     -0.24029269 </i>
    <i name="bandstr">  -1386.93869580 </i>
    <i name="atom">   6761.44252427 </i>
    <i name="e_fr_energy">   -190.62737471 </i>
    <i name="e_wo_entrp">   -190.38708203 </i>
    <i name="e_0_energy">   -190.50722837 </i>
   </energy>
  </scstep>
  <scstep>
   <time name="dav">   28.80   28.87</time>
   <time name="total">   29.33   29.41</time>
   <energy>
    <i name="e_fr_energy">   -190.54615575 </i>
    <i name="e_wo_entrp">   -190.30843783 </i>
    <i name="e_0_energy">   -190.42729679 </i>
   </energy>
  </scstep>
  <scstep>
   <time name="dav">   30.42   30.49</time>
   <time name="total">   30.94   31.02</time>
   <energy>
    <i name="e_fr_energy">   -190.12309173 </i>
    <i name="e_wo_entrp">   -189.87070919 </i>
    <i name="e_0_energy">   -189.99690046 </i>
   </energy>
  </scstep>
  <scstep>
   <time name="dav">   30.95   31.02</time>
   <time name="total">   31.48   31.57</time>
   <energy>
    <i name="e_fr_energy">   -189.89537993 </i>
    <i name="e_wo_entrp">   -189.65622372 </i>
    <i name="e_0_energy">   -189.77580182 </i>
   </energy>
  </scstep>
  <scstep>
   <time name="dav">   29.25   29.32</time>
   <time name="total">   29.79   29.87</time>
   <energy>
    <i name="e_fr_energy">   -189.81179732 </i>
    <i name="e_wo_entrp">   -189.56858780 </i>
    <i name="e_0_energy">   -189.69019256 </i>
   </energy>
  </scstep>
  <scstep>
   <time name="dav">   29.39   29.46</time>
   <time name="total">   29.93   30.01</time>
   <energy>
    <i name="e_fr_energy">   -189.79980914 </i>
    <i name="e_wo_entrp">   -189.55654245 </i>
    <i name="e_0_energy">   -189.67817580 </i>
   </energy>
  </scstep>
  <scstep>
   <time name="dav">   28.77   28.84</time>
   <time name="total">   29.30   29.38</time>
   <energy>
    <i name="e_fr_energy">   -189.79363855 </i>
    <i name="e_wo_entrp">   -189.55056705 </i>
    <i name="e_0_energy">   -189.67210280 </i>
   </energy>
  </scstep>
  <scstep>
   <time name="dav">   28.92   28.99</time>
   <time name="total">   29.45   29.53</time>
   <energy>
    <i name="e_fr_energy">   -189.79330532 </i>
    <i name="e_wo_entrp">   -189.55018786 </i>
    <i name="e_0_energy">   -189.67174659 </i>
   </energy>
  </scstep>
  <scstep>
   <time name="dav">   26.91   26.97</time>
   <time name="total">   27.44   27.51</time>
   <energy>
    <i name="e_fr_energy">   -189.79383314 </i>
    <i name="e_wo_entrp">   -189.55063215 </i>
    <i name="e_0_energy">   -189.67223264 </i>
   </energy>
  </scstep>
  <scstep>
   <time name="dav">   26.87   26.93</time>
   <time name="total">   27.40   27.47</time>
   <energy>
    <i name="e_fr_energy">   -189.79368787 </i>
    <i name="e_wo_entrp">   -189.55037476 </i>
    <i name="e_0_energy">   -189.67203131 </i>
   </energy>
  </scstep>
  <scstep>
   <time name="dav">   23.57   23.63</time>
   <time name="total">   24.11   24.17</time>
   <energy>
    <i name="e_fr_energy">   -189.79345405 </i>
    <i name="e_wo_entrp">   -189.55013849 </i>
    <i name="e_0_energy">   -189.67179627 </i>
   </energy>
  </scstep>
  <scstep>
   <time name="dav">   17.13   17.17</time>
   <time name="total">   17.17   17.22</time>
   <energy>
    <i name="alphaZ">     82.34675784 </i>
    <i name="ewald">  41303.34079459 </i>
    <i name="hartreedc"> -47275.47044883 </i>
    <i name="XCdc">   -235.24733090 </i>
    <i name="pawpsdc">   4038.88729597 </i>
    <i name="pawaedc">  -3454.59296601 </i>
    <i name="eentropy">     -0.24330267 </i>
    <i name="bandstr">  -1410.25678533 </i>
    <i name="atom">   6761.44252427 </i>
    <i name="e_fr_energy">   -189.79346107 </i>
    <i name="e_wo_entrp">   -189.55015840 </i>
    <i name="e_0_energy">   -189.67180974 </i>
   </energy>
  </scstep>
  <structure>
   <crystal>
    <varray name="basis" >
     <v>       8.66442358       4.99703622       0.00000000 </v>
     <v>      -8.66780601       5.00285123       0.00000000 </v>
     <v>       0.00000000       0.00000000      30.00000000 </v>
    </varray>
    <i name="volume">   2599.80488057 </i>
    <varray name="rec_basis" >
     <v>       0.05772954       0.10002065       0.00000000 </v>
     <v>      -0.05766244       0.09998162       0.00000000 </v>
     <v>       0.00000000       0.00000000       0.03333333 </v>
    </varray>
   </crystal>
   <varray name="positions" >
    <v>       0.33181404       0.66351886      -0.00015171 </v>
    <v>       0.00005197       0.66677211       0.00009605 </v>
    <v>       0.66672403       0.66676599       0.00009692 </v>
    <v>       0.32957103       0.33130585      -0.00023184 </v>
    <v>       1.00168687       0.33118143      -0.00024324 </v>
    <v>       0.00181866       0.00375183       0.00028815 </v>
    <v>       0.33115885       0.00171709       0.00015014 </v>
    <v>       0.67051055       0.00159746       0.00013900 </v>
    <v>       0.66668116       0.33350577      -0.00009601 </v>
    <v>       0.11110865       0.22233441       0.95044216 </v>
    <v>       0.22261097       0.11023659       0.04947228 </v>
    <v>       0.11307087       0.55993961       0.95316811 </v>
    <v>       0.22443854       0.44902782       0.04815660 </v>
    <v>       0.10989435       0.88471588       0.95199070 </v>
    <v>       0.22066180       0.77436820       0.04678619 </v>
    <v>       0.44500242       0.22179576       0.95068845 </v>
    <v>       0.55529744       0.11076292       0.04924137 </v>
    <v>       0.44631279       0.55993580       0.95315995 </v>
    <v>       0.55824142       0.44833786       0.04790650 </v>
    <v>       0.44269100       0.88530954       0.95225575 </v>
    <v>       0.55402029       0.77437083       0.04679464 </v>
    <v>       0.77673124       0.22177941       0.95068814 </v>
    <v>       0.88751011       0.11021735       0.04947316 </v>
    <v>       0.77911207       0.55875542       0.95311900 </v>
    <v>       0.88988958       0.44832006       0.04789301 </v>
    <v>       0.77484223       0.88469974       0.95197787 </v>
    <v>       0.88676155       0.77319087       0.04673855 </v>
   </varray>
  </structure>
  <varray name="forces" >
   <v>       0.17466588      -0.30866287      -0.09862111 </v>
   <v>      -0.00363972      -0.00403038       0.08377302 </v>
   <v>       0.00751505       0.00163082       0.08366693 </v>
   <v>      -0.02602254      -0.64348742       0.00053528 </v>
   <v>       0.56691085      -0.29771704       0.00086963 </v>
   <v>      -0.35578192       0.61224891      -0.01196321 </v>
   <v>      -0.54312482       0.17995407      -0.09714374 </v>
   <v>       0.11973057       0.56677465      -0.09978176 </v>
   <v>       0.11518753      -0.21252510       0.10815825 </v>
   <v>       0.00680677      -0.01657972      -0.97508543 </v>
   <v>       0.01212544       0.01226815       0.86818428 </v>
   <v>      -0.03108000       0.08560929      -0.38166181 </v>
   <v>      -0.06386243       0.12430559       0.59970933 </v>
   <v>       0.03625051      -0.08775143      -0.42196925 </v>
   <v>       0.02059877      -0.05180374       0.31200728 </v>
   <v>       0.00760675       0.00222947      -0.60643326 </v>
   <v>       0.02620217      -0.02153759       0.44106010 </v>
   <v>      -0.03484489       0.08659517      -0.38560713 </v>
   <v>      -0.03626506       0.07816461       0.30485168 </v>
   <v>       0.00314154      -0.03197297      -0.07727862 </v>
   <v>       0.01393335      -0.05804713       0.31504839 </v>
   <v>      -0.01997878      -0.01235804      -0.59825962 </v>
   <v>      -0.00615304       0.00373272       0.87348782 </v>
   <v>      -0.02766885       0.07287094      -0.41372807 </v>
   <v>      -0.03073637       0.08088344       0.30344001 </v>
   <v>       0.04106761      -0.08481473      -0.42124477 </v>
   <v>       0.02741562      -0.07597965       0.29398578 </v>
  </varray>
  <varray name="stress" >
   <v>     -10.16499734       0.01628229      -0.02805772 </v>
   <v>       0.01628220      -9.84598207       0.09536821 </v>
   <v>      -0.02805773       0.09536825       6.48090523 </v>
  </varray>
  <energy>
   <i name="e_fr_energy">   -189.79346107 </i>
   <i name="e_wo_entrp">   -189.67180974 </i>
   <i name="e_0_energy">     -0.24330267 </i>
  </energy>
  <time name="totalsc">  372.14  373.13</time>
 </calculation>
 <calculation>
  <scstep>
   <time name="dav">   21.58   21.64</time>
   <time name="total">   22.10   22.16</time>
   <energy>
    <i name="alphaZ">     85.82086092 </i>
    <i name="ewald">  42834.53644818 </i>
    <i name="hartreedc"> -48851.00588055 </i>
    <i name="XCdc">   -232.96086784 </i>
    <i name="pawpsdc">   4038.90868064 </i>
    <i name="pawaedc">  -3454.61190619 </i>
    <i name="eentropy">     -0.20903776 </i>
    <i name="bandstr">  -1373.32857989 </i>
    <i name="atom">   6761.44252427 </i>
    <i name="e_fr_energy">   -191.40775822 </i>
    <i name="e_wo_entrp">   -191.19872046 </i>
    <i name="e_0_energy">   -191.30323934 </i>
   </energy>
  </scstep>
  <scstep>
   <time name="dav">   31.38   31.46</time>
   <time name="total">   31.89   31.97</time>
   <energy>
    <i name="e_fr_energy">   -191.15920220 </i>
    <i name="e_wo_entrp">   -190.95024009 </i>
    <i name="e_0_energy">   -191.05472114 </i>
   </energy>
  </scstep>
  <scstep>
   <time name="dav">   29.98   30.06</time>
   <time name="total">   30.49   30.57</time>
   <energy>
    <i name="e_fr_energy">   -191.37514940 </i>
    <i name="e_wo_entrp">   -191.14754391 </i>
    <i name="e_0_energy">   -191.26134665 </i>
   </energy>
  </scstep>
  <scstep>
   <time name="dav">   30.00   30.07</time>
   <time name="total">   30.52   30.60</time>
   <energy>
    <i name="e_fr_energy">   -190.98407591 </i>
    <i name="e_wo_entrp">   -190.77600633 </i>
    <i name="e_0_energy">   -190.88004112 </i>
   </energy>
  </scstep>
  <scstep>
   <time name="dav">   29.92   29.99</time>
   <time name="total">   30.43   30.51</time>
   <energy>
    <i name="e_fr_energy">   -190.85745103 </i>
    <i name="e_wo_entrp">   -190.64340866 </i>
    <i name="e_0_energy">   -190.75042984 </i>
   </energy>
  </scstep>
  <scstep>
   <time name="dav">   29.56   29.63</time>
   <time name="total">   30.07   30.15</time>
   <energy>
    <i name="e_fr_energy">   -190.85855409 </i>
    <i name="e_wo_entrp">   -190.64257857 </i>
    <i name="e_0_energy">   -190.75056633 </i>
   </energy>
  </scstep>
  <scstep>
   <time name="dav">   28.72   28.79</time>
   <time name="total">   29.24   29.32</time>
   <energy>
    <i name="e_fr_energy">   -190.83824389 </i>
    <i name="e_wo_entrp">   -190.62232093 </i>
    <i name="e_0_energy">   -190.73028241 </i>
   </energy>
  </scstep>
  <scstep>
   <time name="dav">   29.09   29.16</time>
   <time name="total">   29.60   29.68</time>
   <energy>
    <i name="e_fr_energy">   -190.83420032 </i>
    <i name="e_wo_entrp">   -190.61877626 </i>
    <i name="e_0_energy">   -190.72648829 </i>
   </energy>
  </scstep>
  <scstep>
   <time name="dav">   30.81   30.88</time>
   <time name="total">   31.32   31.41</time>
   <energy>
    <i name="e_fr_energy">   -190.83429043 </i>
    <i name="e_wo_entrp">   -190.61879978 </i>
    <i name="e_0_energy">   -190.72654510 </i>
   </energy>
  </scstep>
  <scstep>
   <time name="dav">   27.61   27.68</time>
   <time name="total">   28.13   28.20</time>
   <energy>
    <i name="e_fr_energy">   -190.83403103 </i>
    <i name="e_wo_entrp">   -190.61844562 </i>
    <i name="e_0_energy">   -190.72623833 </i>
   </energy>
  </scstep>
  <scstep>
   <time name="dav">   19.47   19.52</time>
   <time name="total">   19.51   19.56</time>
   <energy>
    <i name="alphaZ">     85.82086092 </i>
    <i name="ewald">  42834.53644818 </i>
    <i name="hartreedc"> -48822.21479901 </i>
    <i name="XCdc">   -234.28596201 </i>
    <i name="pawpsdc">   4064.52011883 </i>
    <i name="pawaedc">  -3480.42093119 </i>
    <i name="eentropy">     -0.21568261 </i>
    <i name="bandstr">  -1400.01660614 </i>
    <i name="atom">   6761.44252427 </i>
    <i name="e_fr_energy">   -190.83402875 </i>
    <i name="e_wo_entrp">   -190.61834614 </i>
    <i name="e_0_energy">   -190.72618745 </i>
   </energy>
  </scstep>
  <structure>
   <crystal>
    <varray name="basis" >
     <v>       8.48278999       4.89752844       0.00000000 </v>
     <v>      -8.48600511       4.90306050       0.00000000 </v>
     <v>       0.00000000       0.00000000      30.00000000 </v>
    </varray>
    <i name="volume">   2494.56251826 </i>
    <varray name="rec_basis" >
     <v>       0.05896497       0.10205403       0.00000000 </v>
     <v>      -0.05889844       0.10201536       0.00000000 </v>
     <v>       0.00000000       0.00000000       0.03333333 </v>
    </varray>
   </crystal>
   <varray name="positions" >
    <v>       0.33052897       0.66099888      -0.00034427 </v>
    <v>       0.00000006       0.66674476       0.00026575 </v>
    <v>       0.66676065       0.66673799       0.00026642 </v>
    <v>       0.32540846       0.32713897      -0.00020269 </v>
    <v>       1.00166560       0.32703526      -0.00021018 </v>
    <v>       0.00445355       0.00905140       0.00023365 </v>
    <v>       0.33048806       0.00500291      -0.00007294 </v>
    <v>       0.67453586       0.00492130      -0.00008624 </v>
    <v>       0.66564456       0.33150933       0.00014337 </v>
    <v>       0.11101626       0.22217679       0.94793905 </v>
    <v>       0.22260236       0.11043132       0.05176233 </v>
    <v>       0.11355268       0.56073999       0.95200391 </v>
    <v>       0.22506675       0.45021364       0.04980633 </v>
    <v>       0.10909180       0.88373119       0.95070079 </v>
    <v>       0.22023245       0.77355549       0.04781381 </v>
    <v>       0.44493577       0.22192829       0.94895542 </v>
    <v>       0.55523777       0.11049683       0.05062447 </v>
    <v>       0.44683096       0.56076044       0.95198840 </v>
    <v>       0.55850526       0.44924488       0.04894111 </v>
    <v>       0.44231734       0.88472179       0.95170613 </v>
    <v>       0.55347716       0.77354393       0.04782607 </v>
    <v>       0.77684586       0.22192218       0.94897187 </v>
    <v>       0.88779635       0.11042824       0.05177265 </v>
    <v>       0.77969091       0.55975945       0.95187020 </v>
    <v>       0.89066235       0.44921787       0.04892374 </v>
    <v>       0.77454683       0.88371315       0.95068984 </v>
    <v>       0.88631983       0.77248819       0.04771090 </v>
   </varray>
  </structure>
  <varray name="forces" >
   <v>       0.19204227      -0.33682326      -0.05854824 </v>
   <v>       0.00092576       0.00143547       0.05312060 </v>
   <v>      -0.00001828      -0.00160462       0.05311376 </v>
   <v>       0.05137735      -0.62744495       0.02478950 </v>
   <v>       0.51935226      -0.35522665       0.02965367 </v>
   <v>      -0.34605004       0.59369409      -0.04028191 </v>
   <v>      -0.61753329       0.19784426      -0.06269244 </v>
   <v>       0.13975001       0.63543452      -0.05603650 </v>
   <v>       0.14358401      -0.26436934       0.07450123 </v>
   <v>      -0.00036700       0.00744328      -0.76480159 </v>
   <v>      -0.05858645      -0.01543148       0.67184420 </v>
   <v>       0.03833721      -0.05093269      -0.29418685 </v>
   <v>       0.00920517      -0.01647688       0.40550153 </v>
   <v>      -0.07521790      -0.01909598      -0.25549714 </v>
   <v>      -0.01964741       0.02370852       0.19376092 </v>
   <v>      -0.08642591       0.03894659      -0.46141806 </v>
   <v>       0.03785066      -0.06416455       0.29232943 </v>
   <v>       0.04288712      -0.04865513      -0.29261172 </v>
   <v>      -0.05986660      -0.05340870       0.16270459 </v>
   <v>      -0.02126038       0.03866144       0.07367447 </v>
   <v>      -0.02669101       0.02015346       0.19159878 </v>
   <v>       0.01047248       0.09525332      -0.46080819 </v>
   <v>       0.04026127       0.04086072       0.67295382 </v>
   <v>       0.00674700       0.00686836      -0.26637408 </v>
   <v>       0.07531378       0.02378694       0.15980025 </v>
   <v>       0.05676391       0.05584859      -0.25941700 </v>
   <v>      -0.05320598       0.07369465       0.21332697 </v>
  </varray>
  <varray name="stress" >
   <v>      -5.85868333      -0.17746049      -0.02085636 </v>
   <v>      -0.17746045      -5.68098809      -0.09643830 </v>
   <v>      -0.02085632      -0.09643839       4.56062317 </v>
  </varray>
  <energy>
   <i name="e_fr_energy">   -190.83402875 </i>
   <i name="e_wo_entrp">   -190.72618745 </i>
   <i name="e_0_energy">     -0.21568261 </i>
  </energy>
  <time name="totalsc">  355.40  356.34</time>
 </calculation>
 <calculation>
  <scstep>
   <time name="dav">   21.58   21.63</time>
   <time name="total">   22.09   22.14</time>
   <energy>
    <i name="alphaZ">     90.20724846 </i>
    <i name="ewald">  44679.90816749 </i>
    <i name="hartreedc"> -50723.06453987 </i>
    <i name="XCdc">   -231.82774186 </i>
    <i name="pawpsdc">   4064.61339239 </i>
    <i name="pawaedc">  -3480.51077762 </i>
    <i name="eentropy">     -0.20447690 </i>
    <i name="bandstr">  -1352.82840608 </i>
    <i name="atom">   6761.44252427 </i>
    <i name="e_fr_energy">   -192.26460971 </i>
    <i name="e_wo_entrp">   -192.06013281 </i>
    <i name="e_0_energy">   -192.16237126 </i>
   </energy>
  </scstep>
  <scstep>
   <time name="dav">   25.28   25.34</time>
   <time name="total">   25.79   25.86</time>
   <energy>
    <i name="e_fr_energy">   -191.97215853 </i>
    <i name="e_wo_entrp">   -191.75157718 </i>
    <i name="e_0_energy">   -191.86186785 </i>
   </energy>
  </scstep>
  <scstep>
   <time name="dav">   27.27   27.33</time>
   <time name="total">   27.78   27.85</time>
   <energy>
    <i name="e_fr_energy">   -191.84585096 </i>
    <i name="e_wo_entrp">   -191.64756207 </i>
    <i name="e_0_energy">   -191.74670652 </i>
   </energy>
  </scstep>
  <scstep>
   <time name="dav">   29.81   29.88</time>
   <time name="total">   30.32   30.40</time>
   <energy>
    <i name="e_fr_energy">   -191.86402254 </i>
    <i name="e_wo_entrp">   -191.64088582 </i>
    <i name="e_0_energy">   -191.75245418 </i>
   </energy>
  </scstep>
  <scstep>
   <time name="dav">   30.16   30.24</time>
   <time name="total">   30.67   30.75</time>
   <energy>
    <i name="e_fr_energy">   -191.61164180 </i>
    <i name="e_wo_entrp">   -191.40110775 </i>
    <i name="e_0_energy">   -191.50637477 </i>
   </energy>
  </scstep>
  <scstep>
   <time name="dav">   29.97   30.04</time>
   <time name="total">   30.48   30.56</time>
   <energy>
    <i name="e_fr_energy">   -191.61027010 </i>
    <i name="e_wo_entrp">   -191.39506529 </i>
    <i name="e_0_energy">   -191.50266770 </i>
   </energy>
  </scstep>
  <scstep>
   <time name="dav">   30.06   30.14</time>
   <time name="total">   30.57   30.65</time>
   <energy>
    <i name="e_fr_energy">   -191.57482245 </i>
    <i name="e_wo_entrp">   -191.35750400 </i>
    <i name="e_0_energy">   -191.46616322 </i>
   </energy>
  </scstep>
  <scstep>
   <time name="dav">   28.60   28.67</time>
   <time name="total">   29.11   29.19</time>
   <energy>
    <i name="e_fr_energy">   -191.57098706 </i>
    <i name="e_wo_entrp">   -191.35524041 </i>
    <i name="e_0_energy">   -191.46311373 </i>
   </energy>
  </scstep>
  <scstep>
   <time name="dav">   29.40   29.47</time>
   <time name="total">   29.90   29.98</time>
   <energy>
    <i name="e_fr_energy">   -191.56951735 </i>
    <i name="e_wo_entrp">   -191.35381456 </i>
    <i name="e_0_energy">   -191.46166595 </i>
   </energy>
  </scstep>
  <scstep>
   <time name="dav">   28.68   28.74</time>
   <time name="total">   29.18   29.26</time>
   <energy>
    <i name="e_fr_energy">   -191.56935650 </i>
    <i name="e_wo_entrp">   -191.35358291 </i>
    <i name="e_0_energy">   -191.46146971 </i>
   </energy>
  </scstep>
  <scstep>
   <time name="dav">   24.78   24.84</time>
   <time name="total">   24.82   24.89</time>
   <energy>
    <i name="alphaZ">     90.20724846 </i>
    <i name="ewald">  44679.90816749 </i>
    <i name="hartreedc"> -50689.19230029 </i>
    <i name="XCdc">   -233.33853665 </i>
    <i name="pawpsdc">   4089.04237533 </i>
    <i name="pawaedc">  -3505.08875047 </i>
    <i name="eentropy">     -0.21593945 </i>
    <i name="bandstr">  -1384.33409791 </i>
    <i name="atom">   6761.44252427 </i>
    <i name="e_fr_energy">   -191.56930922 </i>
    <i name="e_wo_entrp">   -191.35336978 </i>
    <i name="e_0_energy">   -191.46133950 </i>
   </energy>
  </scstep>
  <structure>
   <crystal>
    <varray name="basis" >
     <v>       8.26343435       4.77043635       0.00000000 </v>
     <v>      -8.27751358       4.79478691       0.00000000 </v>
     <v>       0.00000000       0.00000000      30.00000000 </v>
    </varray>
    <i name="volume">   2373.26275431 </i>
    <varray name="rec_basis" >
     <v>       0.06061006       0.10463460       0.00000000 </v>
     <v>      -0.06030225       0.10445663       0.00000000 </v>
     <v>       0.00000000       0.00000000       0.03333333 </v>
    </varray>
   </crystal>
   <varray name="positions" >
    <v>       0.32778441       0.65557685      -0.00058844 </v>
    <v>      -0.00000503       0.66673326       0.00049218 </v>
    <v>       0.66675255       0.66670345       0.00049278 </v>
    <v>       0.31786568       0.31878841      -0.00008301 </v>
    <v>       1.00088452       0.31870917      -0.00006958 </v>
    <v>       0.00944854       0.01911822       0.00005173 </v>
    <v>       0.32875801       0.01198825      -0.00037010 </v>
    <v>       0.68331150       0.01192957      -0.00035774 </v>
    <v>       0.66331687       0.32703668       0.00048010 </v>
    <v>       0.11105685       0.22218984       0.94417400 </v>
    <v>       0.22195666       0.11082607       0.05515465 </v>
    <v>       0.11342687       0.56031177       0.95033228 </v>
    <v>       0.22518901       0.45045926       0.05202453 </v>
    <v>       0.10786100       0.88345181       0.94909291 </v>
    <v>       0.22008729       0.77333801       0.04910607 </v>
    <v>       0.44470286       0.22304494       0.94645711 </v>
    <v>       0.55475206       0.10947317       0.05243411 </v>
    <v>       0.44680689       0.56033905       0.95032108 </v>
    <v>       0.55755024       0.44954603       0.05014663 </v>
    <v>       0.44233214       0.88476857       0.95146525 </v>
    <v>       0.55317429       0.77332886       0.04910952 </v>
    <v>       0.77819787       0.22304723       0.94647992 </v>
    <v>       0.88881590       0.11082229       0.05516990 </v>
    <v>       0.78016230       0.56046523       0.95025697 </v>
    <v>       0.89192985       0.44950180       0.05011723 </v>
    <v>       0.77549372       0.88341725       0.94906913 </v>
    <v>       0.88660160       0.77329940       0.04904069 </v>
   </varray>
  </structure>
  <varray name="forces" >
   <v>       0.25523097      -0.44446141      -0.07302274 </v>
   <v>       0.01379481       0.03707431       0.06163132 </v>
   <v>      -0.03766834       0.00567897       0.05778012 </v>
   <v>       0.09982974      -0.03512764      -0.10394457 </v>
   <v>      -0.00959029      -0.09554319      -0.11334101 </v>
   <v>       0.00335055      -0.00968403       0.05999778 </v>
   <v>      -0.47726714       0.11208402       0.09225546 </v>
   <v>       0.13664347       0.46276764       0.08033793 </v>
   <v>       0.13295721      -0.24189606      -0.04210045 </v>
   <v>      -0.04427091       0.07499811      -0.23845263 </v>
   <v>      -0.07614487      -0.08372402       0.26045734 </v>
   <v>       0.09930867      -0.19225410      -0.00868489 </v>
   <v>       0.10184607      -0.17337544       0.09452722 </v>
   <v>      -0.22184184       0.10705639      -0.00414274 </v>
   <v>      -0.05563643       0.14438463      -0.12124680 </v>
   <v>      -0.15657535       0.07761584      -0.18939133 </v>
   <v>       0.07379678      -0.13352562       0.02232186 </v>
   <v>       0.11595904      -0.18145308      -0.00707997 </v>
   <v>      -0.00783014      -0.20612158      -0.10243491 </v>
   <v>      -0.09778503       0.17751996       0.42217037 </v>
   <v>      -0.09629371       0.12060503      -0.12216344 </v>
   <v>       0.01378777       0.17569174      -0.17911624 </v>
   <v>       0.11085359       0.02540098       0.26717305 </v>
   <v>       0.04754444      -0.08108941       0.05101832 </v>
   <v>       0.17809770      -0.09950166      -0.10608316 </v>
   <v>       0.01730328       0.24681678      -0.00006969 </v>
   <v>      -0.11940005       0.21006281      -0.05839619 </v>
  </varray>
  <varray name="stress" >
   <v>       0.13860762      -0.60240073       0.37957962 </v>
   <v>      -0.60240078       0.88184658      -0.67848110 </v>
   <v>       0.37957958      -0.67848098      -0.73362450 </v>
  </varray>
  <energy>
   <i name="e_fr_energy">   -191.56930922 </i>
   <i name="e_wo_entrp">   -191.46133950 </i>
   <i name="e_0_energy">     -0.21593945 </i>
  </energy>
  <time name="totalsc">  352.46  353.39</time>
 </calculation>
 <calculation>
  <scstep>
   <time name="dav">   21.57   21.62</time>
   <time name="total">   22.07   22.13</time>
   <energy>
    <i name="alphaZ">     89.88600482 </i>
    <i name="ewald">  44519.49407380 </i>
    <i name="hartreedc"> -50525.89994473 </i>
    <i name="XCdc">   -233.62682809 </i>
    <i name="pawpsdc">   4089.29292752 </i>
    <i name="pawaedc">  -3505.33560750 </i>
    <i name="eentropy">     -0.21667619 </i>
    <i name="bandstr">  -1386.68120145 </i>
    <i name="atom">   6761.44252427 </i>
    <i name="e_fr_energy">   -191.64472754 </i>
    <i name="e_wo_entrp">   -191.42805135 </i>
    <i name="e_0_energy">   -191.53638944 </i>
   </energy>
  </scstep>
  <scstep>
   <time name="dav">   30.51   30.58</time>
   <time name="total">   31.02   31.10</time>
   <energy>
    <i name="e_fr_energy">   -191.72223094 </i>
    <i name="e_wo_entrp">   -191.49472478 </i>
    <i name="e_0_energy">   -191.60847786 </i>
   </energy>
  </scstep>
  <scstep>
   <time name="dav">   30.52   30.60</time>
   <time name="total">   31.03   31.11</time>
   <energy>
    <i name="e_fr_energy">   -191.65577947 </i>
    <i name="e_wo_entrp">   -191.43831704 </i>
    <i name="e_0_energy">   -191.54704826 </i>
   </energy>
  </scstep>
  <scstep>
   <time name="dav">   26.76   26.82</time>
   <time name="total">   27.26   27.34</time>
   <energy>
    <i name="e_fr_energy">   -191.66050891 </i>
    <i name="e_wo_entrp">   -191.44179360 </i>
    <i name="e_0_energy">   -191.55115125 </i>
   </energy>
  </scstep>
  <scstep>
   <time name="dav">   26.96   27.02</time>
   <time name="total">   27.47   27.54</time>
   <energy>
    <i name="e_fr_energy">   -191.65146250 </i>
    <i name="e_wo_entrp">   -191.43164494 </i>
    <i name="e_0_energy">   -191.54155372 </i>
   </energy>
  </scstep>
  <scstep>
   <time name="dav">   27.98   28.04</time>
   <time name="total">   28.48   28.56</time>
   <energy>
    <i name="e_fr_energy">   -191.65104271 </i>
    <i name="e_wo_entrp">   -191.43264020 </i>
    <i name="e_0_energy">   -191.54184145 </i>
   </energy>
  </scstep>
  <scstep>
   <time name="dav">   27.94   28.01</time>
   <time name="total">   28.46   28.53</time>
   <energy>
    <i name="e_fr_energy">   -191.65085700 </i>
    <i name="e_wo_entrp">   -191.43200035 </i>
    <i name="e_0_energy">   -191.54142868 </i>
   </energy>
  </scstep>
  <scstep>
   <time name="dav">   22.66   22.71</time>
   <time name="total">   23.17   23.23</time>
   <energy>
    <i name="e_fr_energy">   -191.65072057 </i>
    <i name="e_wo_entrp">   -191.43182765 </i>
    <i name="e_0_energy">   -191.54127411 </i>
   </energy>
  </scstep>
  <scstep>
   <time name="dav">   17.34   17.39</time>
   <time name="total">   17.38   17.43</time>
   <energy>
    <i name="alphaZ">     89.88600482 </i>
    <i name="ewald">  44519.49407380 </i>
    <i name="hartreedc"> -50529.53567157 </i>
    <i name="XCdc">   -233.50120648 </i>
    <i name="pawpsdc">   4084.28352189 </i>
    <i name="pawaedc">  -3500.25888004 </i>
    <i name="eentropy">     -0.21889194 </i>
    <i name="bandstr">  -1383.24216651 </i>
    <i name="atom">   6761.44252427 </i>
    <i name="e_fr_energy">   -191.65069177 </i>
    <i name="e_wo_entrp">   -191.43179983 </i>
    <i name="e_0_energy">   -191.54124580 </i>
   </energy>
  </scstep>
  <structure>
   <crystal>
    <varray name="basis" >
     <v>       8.26375002       4.77118797       0.00000000 </v>
     <v>      -8.29183182       4.81979694       0.00000000 </v>
     <v>       0.00000000       0.00000000      30.00000000 </v>
    </varray>
    <i name="volume">   2381.74455927 </i>
    <varray name="rec_basis" >
     <v>       0.06070924       0.10444233       0.00000000 </v>
     <v>      -0.06009697       0.10408862       0.00000000 </v>
     <v>       0.00000000       0.00000000       0.03333333 </v>
    </varray>
   </crystal>
   <varray name="positions" >
    <v>       0.32647096       0.65295881      -0.00069016 </v>
    <v>       0.00020996       0.66687228       0.00057718 </v>
    <v>       0.66667587       0.66683510       0.00057196 </v>
    <v>       0.31824370       0.31864896      -0.00024504 </v>
    <v>       1.00043410       0.31858192      -0.00024660 </v>
    <v>       0.00923222       0.01870120       0.00014942 </v>
    <v>       0.32803266       0.01357675      -0.00021893 </v>
    <v>       0.68557801       0.01349916      -0.00022548 </v>
    <v>       0.66261773       0.32568755       0.00040364 </v>
    <v>       0.11129106       0.22266824       0.94396198 </v>
    <v>       0.22137296       0.11061958       0.05541309 </v>
    <v>       0.11278579       0.55913195       0.95038953 </v>
    <v>       0.22463514       0.44933729       0.05207562 </v>
    <v>       0.10781330       0.88459051       0.94915695 </v>
    <v>       0.22063229       0.77419812       0.04886494 </v>
    <v>       0.44465121       0.22380193       0.94627360 </v>
    <v>       0.55433704       0.10867301       0.05238921 </v>
    <v>       0.44625839       0.55916437       0.95038066 </v>
    <v>       0.55657998       0.44856664       0.04993614 </v>
    <v>       0.44291324       0.88589034       0.95212537 </v>
    <v>       0.55350146       0.77418751       0.04886733 </v>
    <v>       0.77902047       0.22380254       0.94631165 </v>
    <v>       0.88920035       0.11062118       0.05543833 </v>
    <v>       0.77988329       0.55990982       0.95040379 </v>
    <v>       0.89189226       0.44851979       0.04990165 </v>
    <v>       0.77668408       0.88456464       0.94913971 </v>
    <v>       0.88726694       0.77460527       0.04889434 </v>
   </varray>
  </structure>
  <varray name="forces" >
   <v>       0.29305235      -0.50852835      -0.03705080 </v>
   <v>      -0.00280749       0.07363770       0.07202821 </v>
   <v>      -0.06051429       0.03683349       0.06978886 </v>
   <v>       0.07732142      -0.16430923       0.00182809 </v>
   <v>       0.11420511      -0.14407038       0.00645515 </v>
   <v>      -0.08119639       0.13749588      -0.04865865 </v>
   <v>      -0.53571544       0.11348885      -0.01090938 </v>
   <v>       0.16882774       0.51769298      -0.00594897 </v>
   <v>       0.14352673      -0.26972911       0.00104573 </v>
   <v>      -0.00401813       0.01189273      -0.12752563 </v>
   <v>      -0.09368865      -0.00265475       0.21750706 </v>
   <v>       0.04478664      -0.12171739      -0.04285265 </v>
   <v>       0.05569543      -0.09578389       0.05727349 </v>
   <v>      -0.12252740       0.07548296       0.00212200 </v>
   <v>      -0.02902384       0.10921769      -0.14324684 </v>
   <v>      -0.06426066       0.02937107      -0.15526703 </v>
   <v>       0.04028652      -0.07303085      -0.00873535 </v>
   <v>       0.08405242      -0.09862863      -0.04188600 </v>
   <v>       0.01451796      -0.09398586      -0.11988760 </v>
   <v>      -0.06081515       0.10850067       0.47916404 </v>
   <v>      -0.08039082       0.07912544      -0.14505415 </v>
   <v>       0.00702956       0.07451162      -0.15155233 </v>
   <v>       0.04549460       0.07961318       0.21249331 </v>
   <v>       0.03456640      -0.05708894       0.08285971 </v>
   <v>       0.07162420      -0.06261188      -0.12676618 </v>
   <v>      -0.00199723       0.14525476       0.00208651 </v>
   <v>      -0.05803161       0.10002022      -0.03931059 </v>
  </varray>
  <varray name="stress" >
   <v>      -0.15167911       0.00919900       0.05796198 </v>
   <v>       0.00919911      -0.16679428      -0.14411718 </v>
   <v>       0.05796198      -0.14411725      -1.38112160 </v>
  </varray>
  <energy>
   <i name="e_fr_energy">   -191.65069177 </i>
   <i name="e_wo_entrp">   -191.54124580 </i>
   <i name="e_0_energy">     -0.21889194 </i>
  </energy>
  <time name="totalsc">  278.48  279.21</time>
 </calculation>
 <calculation>
  <scstep>
   <time name="dav">   21.57   21.63</time>
   <time name="total">   22.08   22.14</time>
   <energy>
    <i name="alphaZ">     89.98752074 </i>
    <i name="ewald">  44568.00364207 </i>
    <i name="hartreedc"> -50578.93554983 </i>
    <i name="XCdc">   -233.42541646 </i>
    <i name="pawpsdc">   4083.83974931 </i>
    <i name="pawaedc">  -3499.81111361 </i>
    <i name="eentropy">     -0.21744647 </i>
    <i name="bandstr">  -1382.61216398 </i>
    <i name="atom">   6761.44252427 </i>
    <i name="e_fr_energy">   -191.72825395 </i>
    <i name="e_wo_entrp">   -191.51080748 </i>
    <i name="e_0_energy">   -191.61953071 </i>
   </energy>
  </scstep>
  <scstep>
   <time name="dav">   32.03   32.11</time>
   <time name="total">   32.54   32.62</time>
   <energy>
    <i name="e_fr_energy">   -191.78416819 </i>
    <i name="e_wo_entrp">   -191.55470597 </i>
    <i name="e_0_energy">   -191.66943708 </i>
   </energy>
  </scstep>
  <scstep>
   <time name="dav">   30.49   30.56</time>
   <time name="total">   30.99   31.07</time>
   <energy>
    <i name="e_fr_energy">   -191.73645881 </i>
    <i name="e_wo_entrp">   -191.51842119 </i>
    <i name="e_0_energy">   -191.62744000 </i>
   </energy>
  </scstep>
  <scstep>
   <time name="dav">   26.36   26.42</time>
   <time name="total">   26.86   26.94</time>
   <energy>
    <i name="e_fr_energy">   -191.73802968 </i>
    <i name="e_wo_entrp">   -191.51948102 </i>
    <i name="e_0_energy">   -191.62875535 </i>
   </energy>
  </scstep>
  <scstep>
   <time name="dav">   27.61   27.68</time>
   <time name="total">   28.12   28.20</time>
   <energy>
    <i name="e_fr_energy">   -191.73320534 </i>
    <i name="e_wo_entrp">   -191.51317248 </i>
    <i name="e_0_energy">   -191.62318891 </i>
   </energy>
  </scstep>
  <scstep>
   <time name="dav">   26.57   26.63</time>
   <time name="total">   27.08   27.15</time>
   <energy>
    <i name="e_fr_energy">   -191.73298315 </i>
    <i name="e_wo_entrp">   -191.51348714 </i>
    <i name="e_0_energy">   -191.62323514 </i>
   </energy>
  </scstep>
  <scstep>
   <time name="dav">   27.34   27.41</time>
   <time name="total">   27.85   27.92</time>
   <energy>
    <i name="e_fr_energy">   -191.73285671 </i>
    <i name="e_wo_entrp">   -191.51289499 </i>
    <i name="e_0_energy">   -191.62287585 </i>
   </energy>
  </scstep>
  <scstep>
   <time name="dav">   22.44   22.49</time>
   <time name="total">   22.47   22.53</time>
   <energy>
    <i name="alphaZ">     89.98752074 </i>
    <i name="ewald">  44568.00364207 </i>
    <i name="hartreedc"> -50578.77802700 </i>
    <i name="XCdc">   -233.44290405 </i>
    <i name="pawpsdc">   4087.05951877 </i>
    <i name="pawaedc">  -3503.07048892 </i>
    <i name="eentropy">     -0.21993574 </i>
    <i name="bandstr">  -1382.71463495 </i>
    <i name="atom">   6761.44252427 </i>
    <i name="e_fr_energy">   -191.73278481 </i>
    <i name="e_wo_entrp">   -191.51284907 </i>
    <i name="e_0_energy">   -191.62281694 </i>
   </energy>
  </scstep>
  <structure>
   <crystal>
    <varray name="basis" >
     <v>       8.25881835       4.76830126       0.00000000 </v>
     <v>      -8.28718865       4.81740960       0.00000000 </v>
[...]
      <set comment="kpoint 31">
       <r>  -17.5409    1.0000 </r>
       <r>  -17.2270    1.0000 </r>
       <r>  -16.9118    1.0000 </r>
       <r>  -16.5948    1.0000 </r>
       <r>  -16.4926    1.0000 </r>
       <r>  -16.3446    1.0000 </r>
       <r>  -16.2823    1.0000 </r>
       <r>  -16.2356    1.0000 </r>
       <r>  -16.0920    1.0000 </r>
       <r>  -16.0469    1.0000 </r>
       <r>  -15.9442    1.0000 </r>
       <r>  -15.8149    1.0000 </r>
       <r>  -15.7446    1.0000 </r>
       <r>  -15.6841    1.0000 </r>
       <r>  -15.6530    1.0000 </r>
       <r>  -15.5771    1.0000 </r>
       <r>  -15.5111    1.0000 </r>
       <r>  -15.3437    1.0000 </r>
       <r>   -9.7157    1.0000 </r>
       <r>   -9.4270    1.0000 </r>
       <r>   -9.3281    1.0000 </r>
       <r>   -9.0315    1.0000 </r>
       <r>   -8.8854    1.0000 </r>
       <r>   -8.7693    1.0000 </r>
       <r>   -8.4446    1.0000 </r>
       <r>   -8.4008    1.0000 </r>
       <r>   -8.3419    1.0000 </r>
       <r>   -8.3227    1.0000 </r>
       <r>   -8.2408    1.0000 </r>
       <r>   -8.2105    1.0000 </r>
       <r>   -8.1530    1.0000 </r>
       <r>   -8.1054    1.0000 </r>
       <r>   -8.0322    1.0000 </r>
       <r>   -7.8729    1.0000 </r>
       <r>   -7.8163    1.0000 </r>
       <r>   -7.6239    1.0000 </r>
       <r>   -7.4533    1.0000 </r>
       <r>   -7.4049    1.0000 </r>
       <r>   -7.3795    1.0000 </r>
       <r>   -7.1896    1.0000 </r>
       <r>   -7.1249    1.0000 </r>
       <r>   -7.0707    1.0000 </r>
       <r>   -6.9988    1.0000 </r>
       <r>   -6.9336    1.0000 </r>
       <r>   -6.8758    1.0000 </r>
       <r>   -6.8440    1.0000 </r>
       <r>   -6.7125    1.0000 </r>
       <r>   -6.6061    1.0000 </r>
       <r>   -6.5774    1.0000 </r>
       <r>   -6.4641    1.0000 </r>
       <r>   -6.4116    1.0000 </r>
       <r>   -6.2905    1.0000 </r>
       <r>   -6.2459    1.0000 </r>
       <r>   -6.2089    1.0000 </r>
       <r>   -6.1493    1.0000 </r>
       <r>   -6.0840    1.0000 </r>
       <r>   -6.0212    1.0000 </r>
       <r>   -5.9811    1.0000 </r>
       <r>   -5.8953    1.0000 </r>
       <r>   -5.8636    1.0000 </r>
       <r>   -5.7465    1.0000 </r>
       <r>   -5.6369    1.0000 </r>
       <r>   -5.5946    1.0000 </r>
       <r>   -5.4162    1.0000 </r>
       <r>   -5.3127    1.0000 </r>
       <r>   -5.0855    1.0000 </r>
       <r>   -5.0675    1.0000 </r>
       <r>   -4.9599    1.0000 </r>
       <r>   -4.8210    1.0000 </r>
       <r>   -4.6227    1.0000 </r>
       <r>   -4.5292    1.0000 </r>
       <r>   -4.3739    1.0000 </r>
       <r>   -4.3304    1.0000 </r>
       <r>   -4.2356    1.0000 </r>
       <r>   -4.2191    1.0000 </r>
       <r>   -4.0546    1.0000 </r>
       <r>   -3.7132    0.9999 </r>
       <r>   -3.5733    0.9981 </r>
       <r>   -3.4290    0.9698 </r>
       <r>   -3.1047    0.3389 </r>
       <r>   -2.9496    0.0652 </r>
       <r>   -2.8023    0.0053 </r>
       <r>   -2.7251    0.0010 </r>
       <r>   -2.6765    0.0003 </r>
       <r>   -2.5465    0.0000 </r>
       <r>   -2.4892    0.0000 </r>
       <r>   -2.3940    0.0000 </r>
       <r>   -2.1342    0.0000 </r>
       <r>   -2.0744    0.0000 </r>
       <r>   -1.9828    0.0000 </r>
       <r>   -1.8992    0.0000 </r>
       <r>   -1.6635    0.0000 </r>
       <r>   -1.4081    0.0000 </r>
       <r>   -1.3488    0.0000 </r>
       <r>   -1.2598    0.0000 </r>
       <r>   -1.2219    0.0000 </r>
       <r>   -1.0522    0.0000 </r>
       <r>   -1.0318    0.0000 </r>
       <r>   -0.9688    0.0000 </r>
       <r>   -0.8705    0.0000 </r>
       <r>   -0.7676    0.0000 </r>
       <r>   -0.7125    0.0000 </r>
       <r>   -0.6558    0.0000 </r>
       <r>   -0.6062    0.0000 </r>
       <r>   -0.4658    0.0000 </r>
       <r>   -0.2824    0.0000 </r>
       <r>   -0.2360    0.0000 </r>
       <r>   -0.1065    0.0000 </r>
       <r>   -0.0537    0.0000 </r>
       <r>    0.2215    0.0000 </r>
       <r>    0.4108    0.0000 </r>
       <r>    0.5073    0.0000 </r>
       <r>    0.7733    0.0000 </r>
       <r>    0.8177    0.0000 </r>
       <r>    1.2716    0.0000 </r>
       <r>    1.4058    0.0000 </r>
       <r>    1.4660    0.0000 </r>
       <r>    2.1295    0.0000 </r>
       <r>    2.2809    0.0000 </r>
       <r>    2.3838    0.0000 </r>
      </set>
      <set comment="kpoint 32">
       <r>  -17.5419    1.0000 </r>
       <r>  -17.1339    1.0000 </r>
       <r>  -17.0633    1.0000 </r>
       <r>  -16.5819    1.0000 </r>
       <r>  -16.4278    1.0000 </r>
       <r>  -16.3059    1.0000 </r>
       <r>  -16.2719    1.0000 </r>
       <r>  -16.2153    1.0000 </r>
       <r>  -16.1665    1.0000 </r>
       <r>  -16.0384    1.0000 </r>
       <r>  -15.9935    1.0000 </r>
       <r>  -15.8196    1.0000 </r>
       <r>  -15.7408    1.0000 </r>
       <r>  -15.7047    1.0000 </r>
       <r>  -15.6451    1.0000 </r>
       <r>  -15.5536    1.0000 </r>
       <r>  -15.4843    1.0000 </r>
       <r>  -15.3485    1.0000 </r>
       <r>   -9.6639    1.0000 </r>
       <r>   -9.5572    1.0000 </r>
       <r>   -9.4170    1.0000 </r>
       <r>   -8.9630    1.0000 </r>
       <r>   -8.7533    1.0000 </r>
       <r>   -8.5616    1.0000 </r>
       <r>   -8.4792    1.0000 </r>
       <r>   -8.4433    1.0000 </r>
       <r>   -8.3762    1.0000 </r>
       <r>   -8.3598    1.0000 </r>
       <r>   -8.2480    1.0000 </r>
       <r>   -8.2252    1.0000 </r>
       <r>   -8.1656    1.0000 </r>
       <r>   -8.1240    1.0000 </r>
       <r>   -8.0579    1.0000 </r>
       <r>   -7.9857    1.0000 </r>
       <r>   -7.7938    1.0000 </r>
       <r>   -7.5597    1.0000 </r>
       <r>   -7.4699    1.0000 </r>
       <r>   -7.4250    1.0000 </r>
       <r>   -7.3740    1.0000 </r>
       <r>   -7.2715    1.0000 </r>
       <r>   -7.1041    1.0000 </r>
       <r>   -7.0549    1.0000 </r>
       <r>   -6.9668    1.0000 </r>
       <r>   -6.9441    1.0000 </r>
       <r>   -6.8896    1.0000 </r>
       <r>   -6.7913    1.0000 </r>
       <r>   -6.7038    1.0000 </r>
       <r>   -6.6477    1.0000 </r>
       <r>   -6.5741    1.0000 </r>
       <r>   -6.5023    1.0000 </r>
       <r>   -6.3943    1.0000 </r>
       <r>   -6.3596    1.0000 </r>
       <r>   -6.2675    1.0000 </r>
       <r>   -6.1986    1.0000 </r>
       <r>   -6.1183    1.0000 </r>
       <r>   -6.0843    1.0000 </r>
       <r>   -5.9842    1.0000 </r>
       <r>   -5.9031    1.0000 </r>
       <r>   -5.8725    1.0000 </r>
       <r>   -5.7757    1.0000 </r>
       <r>   -5.6621    1.0000 </r>
       <r>   -5.6138    1.0000 </r>
       <r>   -5.5286    1.0000 </r>
       <r>   -5.4471    1.0000 </r>
       <r>   -5.2772    1.0000 </r>
       <r>   -5.2443    1.0000 </r>
       <r>   -5.1313    1.0000 </r>
       <r>   -5.0224    1.0000 </r>
       <r>   -4.8608    1.0000 </r>
       <r>   -4.6528    1.0000 </r>
       <r>   -4.4944    1.0000 </r>
       <r>   -4.4254    1.0000 </r>
       <r>   -4.3176    1.0000 </r>
       <r>   -4.2204    1.0000 </r>
       <r>   -4.1896    1.0000 </r>
       <r>   -4.0194    1.0000 </r>
       <r>   -3.7474    1.0000 </r>
       <r>   -3.5295    0.9952 </r>
       <r>   -3.4108    0.9598 </r>
       <r>   -3.0584    0.2287 </r>
       <r>   -2.9653    0.0805 </r>
       <r>   -2.8479    0.0128 </r>
       <r>   -2.7352    0.0012 </r>
       <r>   -2.6727    0.0003 </r>
       <r>   -2.5733    0.0000 </r>
       <r>   -2.5334    0.0000 </r>
       <r>   -2.4783    0.0000 </r>
       <r>   -2.1679    0.0000 </r>
       <r>   -2.0575    0.0000 </r>
       <r>   -1.9899    0.0000 </r>
       <r>   -1.8761    0.0000 </r>
       <r>   -1.5903    0.0000 </r>
       <r>   -1.3622    0.0000 </r>
       <r>   -1.3329    0.0000 </r>
       <r>   -1.2819    0.0000 </r>
       <r>   -1.1861    0.0000 </r>
       <r>   -1.0572    0.0000 </r>
       <r>   -0.9909    0.0000 </r>
       <r>   -0.9534    0.0000 </r>
       <r>   -0.8758    0.0000 </r>
       <r>   -0.7826    0.0000 </r>
       <r>   -0.6787    0.0000 </r>
       <r>   -0.6331    0.0000 </r>
       <r>   -0.6065    0.0000 </r>
       <r>   -0.4233    0.0000 </r>
       <r>   -0.3153    0.0000 </r>
       <r>   -0.1997    0.0000 </r>
       <r>   -0.1312    0.0000 </r>
       <r>    0.0046    0.0000 </r>
       <r>    0.1551    0.0000 </r>
       <r>    0.3463    0.0000 </r>
       <r>    0.4905    0.0000 </r>
       <r>    0.8119    0.0000 </r>
       <r>    0.8848    0.0000 </r>
       <r>    1.1897    0.0000 </r>
       <r>    1.3506    0.0000 </r>
       <r>    1.4778    0.0000 </r>
       <r>    2.1035    0.0000 </r>
       <r>    2.2567    0.0000 </r>
       <r>    2.5645    0.0000 </r>
      </set>
      <set comment="kpoint 33">
       <r>  -17.5162    1.0000 </r>
       <r>  -17.2580    1.0000 </r>
       <r>  -16.9109    1.0000 </r>
       <r>  -16.5669    1.0000 </r>
       <r>  -16.4885    1.0000 </r>
       <r>  -16.4399    1.0000 </r>
       <r>  -16.2458    1.0000 </r>
       <r>  -16.1807    1.0000 </r>
       <r>  -16.1327    1.0000 </r>
       <r>  -16.0558    1.0000 </r>
       <r>  -15.9312    1.0000 </r>
       <r>  -15.8180    1.0000 </r>
       <r>  -15.7470    1.0000 </r>
       <r>  -15.7104    1.0000 </r>
       <r>  -15.6576    1.0000 </r>
       <r>  -15.5257    1.0000 </r>
       <r>  -15.4716    1.0000 </r>
       <r>  -15.3768    1.0000 </r>
       <r>   -9.7670    1.0000 </r>
       <r>   -9.4728    1.0000 </r>
       <r>   -9.3245    1.0000 </r>
       <r>   -8.9136    1.0000 </r>
       <r>   -8.8226    1.0000 </r>
       <r>   -8.6773    1.0000 </r>
       <r>   -8.6046    1.0000 </r>
       <r>   -8.4916    1.0000 </r>
       <r>   -8.4385    1.0000 </r>
       <r>   -8.3548    1.0000 </r>
       <r>   -8.2647    1.0000 </r>
       <r>   -8.1704    1.0000 </r>
       <r>   -8.0903    1.0000 </r>
       <r>   -8.0113    1.0000 </r>
       <r>   -7.9670    1.0000 </r>
       <r>   -7.8995    1.0000 </r>
       <r>   -7.7487    1.0000 </r>
       <r>   -7.6398    1.0000 </r>
       <r>   -7.5623    1.0000 </r>
       <r>   -7.5018    1.0000 </r>
       <r>   -7.3812    1.0000 </r>
       <r>   -7.1838    1.0000 </r>
       <r>   -7.0853    1.0000 </r>
       <r>   -7.0411    1.0000 </r>
       <r>   -6.9716    1.0000 </r>
       <r>   -6.9300    1.0000 </r>
       <r>   -6.8524    1.0000 </r>
       <r>   -6.8023    1.0000 </r>
       <r>   -6.7543    1.0000 </r>
       <r>   -6.6355    1.0000 </r>
       <r>   -6.5326    1.0000 </r>
       <r>   -6.4747    1.0000 </r>
       <r>   -6.4362    1.0000 </r>
       <r>   -6.3409    1.0000 </r>
       <r>   -6.2537    1.0000 </r>
       <r>   -6.1955    1.0000 </r>
       <r>   -6.1547    1.0000 </r>
       <r>   -6.0264    1.0000 </r>
       <r>   -6.0081    1.0000 </r>
       <r>   -5.9177    1.0000 </r>
       <r>   -5.8193    1.0000 </r>
       <r>   -5.8104    1.0000 </r>
       <r>   -5.7412    1.0000 </r>
       <r>   -5.7140    1.0000 </r>
       <r>   -5.6369    1.0000 </r>
       <r>   -5.4081    1.0000 </r>
       <r>   -5.2917    1.0000 </r>
       <r>   -5.1555    1.0000 </r>
       <r>   -5.0985    1.0000 </r>
       <r>   -4.8845    1.0000 </r>
       <r>   -4.8512    1.0000 </r>
       <r>   -4.6871    1.0000 </r>
       <r>   -4.5238    1.0000 </r>
       <r>   -4.4493    1.0000 </r>
       <r>   -4.2731    1.0000 </r>
       <r>   -4.2185    1.0000 </r>
       <r>   -4.1991    1.0000 </r>
       <r>   -3.9857    1.0000 </r>
       <r>   -3.7694    1.0000 </r>
       <r>   -3.5791    0.9984 </r>
       <r>   -3.3874    0.9433 </r>
       <r>   -3.0573    0.2264 </r>
       <r>   -2.9487    0.0644 </r>
       <r>   -2.9050    0.0338 </r>
       <r>   -2.7516    0.0018 </r>
       <r>   -2.6864    0.0004 </r>
       <r>   -2.6184    0.0001 </r>
       <r>   -2.5590    0.0000 </r>
       <r>   -2.4735    0.0000 </r>
       <r>   -2.1970    0.0000 </r>
       <r>   -2.0469    0.0000 </r>
       <r>   -2.0166    0.0000 </r>
       <r>   -1.8484    0.0000 </r>
       <r>   -1.5297    0.0000 </r>
       <r>   -1.3375    0.0000 </r>
       <r>   -1.2767    0.0000 </r>
       <r>   -1.2601    0.0000 </r>
       <r>   -1.1493    0.0000 </r>
       <r>   -1.0637    0.0000 </r>
       <r>   -0.9620    0.0000 </r>
       <r>   -0.9189    0.0000 </r>
       <r>   -0.8670    0.0000 </r>
       <r>   -0.8016    0.0000 </r>
       <r>   -0.7145    0.0000 </r>
       <r>   -0.6153    0.0000 </r>
       <r>   -0.5987    0.0000 </r>
       <r>   -0.4972    0.0000 </r>
       <r>   -0.3328    0.0000 </r>
       <r>   -0.2345    0.0000 </r>
       <r>   -0.0808    0.0000 </r>
       <r>    0.0420    0.0000 </r>
       <r>    0.1549    0.0000 </r>
       <r>    0.3319    0.0000 </r>
       <r>    0.4744    0.0000 </r>
       <r>    0.8402    0.0000 </r>
       <r>    0.8871    0.0000 </r>
       <r>    1.1637    0.0000 </r>
       <r>    1.3488    0.0000 </r>
       <r>    1.5129    0.0000 </r>
       <r>    2.1410    0.0000 </r>
       <r>    2.2897    0.0000 </r>
       <r>    2.4099    0.0000 </r>
      </set>
      <set comment="kpoint 34">
       <r>  -17.4883    1.0000 </r>
       <r>  -17.3272    1.0000 </r>
       <r>  -16.7290    1.0000 </r>
       <r>  -16.6823    1.0000 </r>
       <r>  -16.5355    1.0000 </r>
       <r>  -16.4799    1.0000 </r>
       <r>  -16.2295    1.0000 </r>
       <r>  -16.1696    1.0000 </r>
       <r>  -16.1198    1.0000 </r>
       <r>  -16.0743    1.0000 </r>
       <r>  -15.8547    1.0000 </r>
       <r>  -15.8339    1.0000 </r>
       <r>  -15.7559    1.0000 </r>
       <r>  -15.7000    1.0000 </r>
       <r>  -15.6717    1.0000 </r>
       <r>  -15.5018    1.0000 </r>
       <r>  -15.4825    1.0000 </r>
       <r>  -15.3967    1.0000 </r>
       <r>   -9.8114    1.0000 </r>
       <r>   -9.4217    1.0000 </r>
       <r>   -9.1366    1.0000 </r>
       <r>   -9.0674    1.0000 </r>
       <r>   -8.8461    1.0000 </r>
       <r>   -8.7542    1.0000 </r>
       <r>   -8.6697    1.0000 </r>
       <r>   -8.5440    1.0000 </r>
       <r>   -8.4524    1.0000 </r>
       <r>   -8.3665    1.0000 </r>
       <r>   -8.2072    1.0000 </r>
       <r>   -8.1660    1.0000 </r>
       <r>   -8.0521    1.0000 </r>
       <r>   -7.9557    1.0000 </r>
       <r>   -7.8650    1.0000 </r>
       <r>   -7.7990    1.0000 </r>
       <r>   -7.7588    1.0000 </r>
       <r>   -7.6855    1.0000 </r>
       <r>   -7.6218    1.0000 </r>
       <r>   -7.5269    1.0000 </r>
       <r>   -7.4005    1.0000 </r>
       <r>   -7.2692    1.0000 </r>
       <r>   -7.0635    1.0000 </r>
       <r>   -7.0077    1.0000 </r>
       <r>   -6.9309    1.0000 </r>
       <r>   -6.8892    1.0000 </r>
       <r>   -6.8567    1.0000 </r>
       <r>   -6.7721    1.0000 </r>
       <r>   -6.6699    1.0000 </r>
       <r>   -6.6107    1.0000 </r>
       <r>   -6.5500    1.0000 </r>
       <r>   -6.5202    1.0000 </r>
       <r>   -6.4629    1.0000 </r>
       <r>   -6.4003    1.0000 </r>
       <r>   -6.2611    1.0000 </r>
       <r>   -6.2085    1.0000 </r>
       <r>   -6.1094    1.0000 </r>
       <r>   -6.0313    1.0000 </r>
       <r>   -5.9971    1.0000 </r>
       <r>   -5.9776    1.0000 </r>
       <r>   -5.8577    1.0000 </r>
       <r>   -5.7904    1.0000 </r>
       <r>   -5.7837    1.0000 </r>
       <r>   -5.7168    1.0000 </r>
       <r>   -5.6701    1.0000 </r>
       <r>   -5.4501    1.0000 </r>
       <r>   -5.3730    1.0000 </r>
       <r>   -5.0053    1.0000 </r>
       <r>   -4.9974    1.0000 </r>
       <r>   -4.9077    1.0000 </r>
       <r>   -4.8085    1.0000 </r>
       <r>   -4.6695    1.0000 </r>
       <r>   -4.6017    1.0000 </r>
       <r>   -4.3367    1.0000 </r>
       <r>   -4.3240    1.0000 </r>
       <r>   -4.2294    1.0000 </r>
       <r>   -4.1923    1.0000 </r>
       <r>   -3.9838    1.0000 </r>
       <r>   -3.7932    1.0000 </r>
       <r>   -3.6253    0.9995 </r>
       <r>   -3.3480    0.9041 </r>
       <r>   -3.0973    0.3199 </r>
       <r>   -2.9473    0.0632 </r>
       <r>   -2.9099    0.0365 </r>
       <r>   -2.7455    0.0016 </r>
       <r>   -2.7029    0.0006 </r>
       <r>   -2.6281    0.0001 </r>
       <r>   -2.5694    0.0000 </r>
       <r>   -2.4674    0.0000 </r>
       <r>   -2.2048    0.0000 </r>
       <r>   -2.0417    0.0000 </r>
       <r>   -2.0305    0.0000 </r>
       <r>   -1.8349    0.0000 </r>
       <r>   -1.5081    0.0000 </r>
       <r>   -1.3328    0.0000 </r>
       <r>   -1.2551    0.0000 </r>
       <r>   -1.2267    0.0000 </r>
       <r>   -1.1398    0.0000 </r>
       <r>   -1.0516    0.0000 </r>
       <r>   -0.9766    0.0000 </r>
       <r>   -0.9070    0.0000 </r>
       <r>   -0.8462    0.0000 </r>
       <r>   -0.7507    0.0000 </r>
       <r>   -0.7179    0.0000 </r>
       <r>   -0.6626    0.0000 </r>
       <r>   -0.6464    0.0000 </r>
       <r>   -0.5625    0.0000 </r>
       <r>   -0.2950    0.0000 </r>
       <r>   -0.2446    0.0000 </r>
       <r>   -0.0742    0.0000 </r>
       <r>    0.0222    0.0000 </r>
       <r>    0.2048    0.0000 </r>
       <r>    0.3323    0.0000 </r>
       <r>    0.4664    0.0000 </r>
       <r>    0.8265    0.0000 </r>
       <r>    0.8948    0.0000 </r>
       <r>    1.1664    0.0000 </r>
       <r>    1.3660    0.0000 </r>
       <r>    1.5340    0.0000 </r>
       <r>    2.2352    0.0000 </r>
       <r>    2.2502    0.0000 </r>
       <r>    2.3748    0.0000 </r>
      </set>
     </set>
    </set>
   </array>
  </eigenvalues>
  <separator name="orbital magnetization" >
   <v name="MAGDIPOLOUT">      0.00000000      0.00000000      0.00000000</v>
  </separator>
 </calculation>
 <structure name="finalpos" >
  <crystal>
   <varray name="basis" >
    <v>       8.31670163       4.80192026       0.00000000 </v>
    <v>      -8.34472384       4.85043589       0.00000000 </v>
    <v>       0.00000000       0.00000000      30.00000000 </v>
   </varray>
   <i name="volume">   2412.30979726 </i>
   <varray name="rec_basis" >
    <v>       0.06032106       0.10377677       0.00000000 </v>
    <v>      -0.05971771       0.10342828       0.00000000 </v>
    <v>       0.00000000       0.00000000       0.03333333 </v>
   </varray>
  </crystal>
  <varray name="positions" >
   <v>       0.31581299       0.63154608      -0.00150604 </v>
   <v>       0.00924476       0.66750139       0.00127376 </v>
   <v>       0.65766275       0.66467780       0.00123522 </v>
   <v>       0.31830241       0.31828294      -0.00042354 </v>
   <v>       0.99890326       0.31807583      -0.00043114 </v>
   <v>       0.01467254       0.02897065       0.00081461 </v>
   <v>       0.31917331       0.02032291       0.00003456 </v>
   <v>       0.70136402       0.02089435       0.00002713 </v>
   <v>       0.65758885       0.31394562      -0.00049315 </v>
   <v>       0.11291075       0.22646129       0.94341501 </v>
   <v>       0.22140001       0.11498657       0.05734776 </v>
   <v>       0.11055513       0.55661222       0.94904950 </v>
   <v>       0.22242171       0.44514812       0.05300693 </v>
   <v>       0.10668942       0.89014781       0.94949069 </v>
   <v>       0.22440496       0.77495943       0.04721316 </v>
   <v>       0.44313347       0.22410731       0.94534682 </v>
   <v>       0.55254454       0.10498007       0.05159631 </v>
   <v>       0.44542244       0.55617480       0.94894403 </v>
   <v>       0.55784654       0.44602248       0.04850350 </v>
   <v>       0.44346677       0.88686859       0.95953711 </v>
   <v>       0.55051782       0.77485284       0.04699313 </v>
   <v>       0.78063663       0.22405648       0.94515353 </v>
   <v>       0.89352537       0.11496490       0.05734325 </v>
   <v>       0.77899049       0.55784333       0.95241116 </v>
   <v>       0.88845938       0.44696359       0.04837787 </v>
   <v>       0.78335724       0.89020040       0.94960301 </v>
   <v>       0.88920689       0.77864666       0.04613573 </v>
  </varray>
 </structure>
</modeling>
