   27   27  100    1
  0.9710400E+02  0.1002848E-08  0.1002848E-08  0.3000000E-08  0.5000000E-15
  1.000000000000000E-004
  CAR 
 unknown system                          
    159     34    120
 
  0.0000000E+00  0.0000000E+00  0.0000000E+00  0.1562500E-01
    1      -17.801975   1.000000
    2      -16.721811   1.000000
    3      -16.607564   1.000000
    4      -16.579770   1.000000
    5      -16.460480   1.000000
    6      -16.402526   1.000000
    7      -16.345894   1.000000
    8      -16.317500   1.000000
    9      -16.222760   1.000000
   10      -16.089462   1.000000
   11      -16.070555   1.000000
   12      -15.993924   1.000000
   13      -15.840745   1.000000
   14      -15.742197   1.000000
   15      -15.662088   1.000000
   16      -15.504855   1.000000
   17      -15.425440   1.000000
   18      -15.375417   1.000000
   19       -9.207635   1.000000
   20       -8.980559   1.000000
   21       -8.834945   1.000000
   22       -8.829813   1.000000
   23       -8.747941   1.000000
   24       -8.663850   1.000000
   25       -8.642886   1.000000
   26       -8.577437   1.000000
   27       -8.521046   1.000000
   28       -8.416231   1.000000
   29       -8.387172   1.000000
   30       -8.320650   1.000000
   31       -8.295782   1.000000
   32       -8.225121   1.000000
   33       -8.154188   1.000000
   34       -8.010707   1.000000
   35       -7.872636   1.000000
   36       -7.824272   1.000000
   37       -7.707813   1.000000
   38       -7.542204   1.000000
   39       -7.439410   1.000000
   40       -7.344580   1.000000
   41       -7.315715   1.000000
   42       -7.284676   1.000000
   43       -7.142616   1.000000
   44       -6.969861   1.000000
   45       -6.835649   1.000000
   46       -6.811101   1.000000
   47       -6.753175   1.000000
   48       -6.711500   1.000000
   49       -6.621952   1.000000
   50       -6.486131   1.000000
   51       -6.446087   1.000000
   52       -6.420274   1.000000
   53       -6.278485   1.000000
   54       -6.273327   1.000000
   55       -6.168530   1.000000
   56       -6.062895   1.000000
   57       -5.967265   1.000000
   58       -5.821034   1.000000
   59       -5.736798   1.000000
   60       -5.646730   1.000000
   61       -5.530105   1.000000
   62       -5.456337   1.000000
   63       -5.325626   1.000000
   64       -5.259431   1.000000
   65       -5.040770   1.000000
   66       -4.880716   1.000000
   67       -4.874209   1.000000
   68       -4.848231   1.000000
   69       -4.738020   1.000000
   70       -4.676932   1.000000
   71       -4.610989   1.000000
   72       -4.568327   1.000000
   73       -4.469534   1.000000
   74       -4.308282   1.000000
   75       -4.214577   1.000000
   76       -4.001289   1.000000
   77       -3.701374   0.999612
   78       -3.553086   0.989620
   79       -3.511367   0.978169
   80       -3.327698   0.763802
   81       -3.289139   0.672178
   82       -2.868830   0.005767
   83       -2.712217   0.000140
   84       -2.625502   0.000011
   85       -2.504870   0.000000
   86       -2.407785   0.000000
   87       -2.317938   0.000000
   88       -2.207182   0.000000
   89       -2.096946   0.000000
   90       -1.880076   0.000000
   91       -1.823224   0.000000
   92       -1.633068   0.000000
   93       -1.580271   0.000000
   94       -1.390025   0.000000
   95       -1.233153   0.000000
   96       -1.160750   0.000000
   97       -1.040759   0.000000
   98       -0.910665   0.000000
   99       -0.742854   0.000000
  100       -0.626320   0.000000
  101       -0.554507   0.000000
  102       -0.526577   0.000000
  103       -0.436974   0.000000
  104       -0.389330   0.000000
  105       -0.291725   0.000000
  106       -0.110232   0.000000
  107        0.053617   0.000000
  108        0.097173   0.000000
  109        0.151280   0.000000
  110        0.281419   0.000000
  111        0.352310   0.000000
  112        0.367092   0.000000
  113        0.478850   0.000000
  114        0.825727   0.000000
  115        1.117304   0.000000
  116        1.187220   0.000000
  117        1.317393   0.000000
  118        1.643074   0.000000
  119        1.830492   0.000000
  120        2.158910   0.000000
 
  0.1250000E+00  0.2775558E-16  0.0000000E+00  0.3125000E-01
    1      -17.776492   1.000000
    2      -16.738896   1.000000
    3      -16.717043   1.000000
    4      -16.585120   1.000000
    5      -16.546622   1.000000
    6      -16.366562   1.000000
    7      -16.304260   1.000000
    8      -16.258489   1.000000
    9      -16.205275   1.000000
   10      -16.086299   1.000000
   11      -16.031165   1.000000
   12      -15.982512   1.000000
   13      -15.820598   1.000000
   14      -15.727822   1.000000
   15      -15.672275   1.000000
   16      -15.511442   1.000000
   17      -15.442844   1.000000
   18      -15.378988   1.000000
   19       -9.184810   1.000000
   20       -9.112545   1.000000
   21       -8.991311   1.000000
   22       -8.961371   1.000000
   23       -8.780713   1.000000
   24       -8.707603   1.000000
   25       -8.594920   1.000000
   26       -8.539312   1.000000
   27       -8.516122   1.000000
   28       -8.458017   1.000000
   29       -8.340419   1.000000
   30       -8.284268   1.000000
   31       -8.229158   1.000000
   32       -8.067938   1.000000
   33       -8.057249   1.000000
   34       -7.952473   1.000000
   35       -7.843873   1.000000
   36       -7.732218   1.000000
   37       -7.649877   1.000000
   38       -7.602839   1.000000
   39       -7.452731   1.000000
   40       -7.398773   1.000000
   41       -7.304044   1.000000
   42       -7.210370   1.000000
   43       -7.133360   1.000000
   44       -7.017433   1.000000
   45       -6.903520   1.000000
   46       -6.838585   1.000000
   47       -6.762926   1.000000
   48       -6.649088   1.000000
   49       -6.606165   1.000000
   50       -6.542336   1.000000
   51       -6.431816   1.000000
   52       -6.369039   1.000000
   53       -6.308648   1.000000
   54       -6.275928   1.000000
   55       -6.179563   1.000000
   56       -6.076399   1.000000
   57       -5.952180   1.000000
   58       -5.813524   1.000000
   59       -5.719090   1.000000
   60       -5.591005   1.000000
   61       -5.524160   1.000000
   62       -5.435836   1.000000
   63       -5.356757   1.000000
   64       -5.270360   1.000000
   65       -5.119500   1.000000
   66       -4.996828   1.000000
   67       -4.966668   1.000000
   68       -4.903238   1.000000
   69       -4.826866   1.000000
   70       -4.660739   1.000000
   71       -4.563319   1.000000
   72       -4.517261   1.000000
   73       -4.392047   1.000000
   74       -4.223245   1.000000
   75       -4.111248   1.000000
   76       -3.915095   0.999999
   77       -3.820757   0.999987
   78       -3.698736   0.999584
   79       -3.534913   0.985512
   80       -3.335646   0.780768
   81       -3.136560   0.263379
   82       -2.857469   0.004575
   83       -2.731535   0.000235
   84       -2.647396   0.000021
   85       -2.524030   0.000000
   86       -2.398092   0.000000
   87       -2.303225   0.000000
   88       -2.178819   0.000000
   89       -2.074701   0.000000
   90       -1.908116   0.000000
   91       -1.812401   0.000000
   92       -1.631350   0.000000
   93       -1.554637   0.000000
   94       -1.388195   0.000000
   95       -1.236754   0.000000
   96       -1.129715   0.000000
   97       -1.028905   0.000000
   98       -0.909915   0.000000
   99       -0.766619   0.000000
  100       -0.707085   0.000000
  101       -0.628346   0.000000
  102       -0.537415   0.000000
  103       -0.492881   0.000000
  104       -0.395808   0.000000
  105       -0.280794   0.000000
  106       -0.230933   0.000000
  107        0.003032   0.000000
  108        0.053919   0.000000
  109        0.120129   0.000000
  110        0.226932   0.000000
  111        0.356180   0.000000
  112        0.433557   0.000000
  113        0.599144   0.000000
  114        0.877727   0.000000
  115        1.120346   0.000000
  116        1.199080   0.000000
  117        1.324334   0.000000
  118        1.688558   0.000000
  119        1.869052   0.000000
  120        2.194313   0.000000
 
  0.2500000E+00  0.5551115E-16  0.0000000E+00  0.3125000E-01
    1      -17.701486   1.000000
    2      -16.950793   1.000000
    3      -16.738649   1.000000
    4      -16.641673   1.000000
    5      -16.584834   1.000000
    6      -16.365455   1.000000
    7      -16.261289   1.000000
    8      -16.192961   1.000000
    9      -16.129216   1.000000
   10      -16.070064   1.000000
   11      -16.013892   1.000000
   12      -15.900181   1.000000
   13      -15.792534   1.000000
   14      -15.731759   1.000000
   15      -15.643646   1.000000
   16      -15.530677   1.000000
   17      -15.482382   1.000000
   18      -15.391259   1.000000
   19       -9.443775   1.000000
   20       -9.173887   1.000000
   21       -9.124307   1.000000
   22       -9.000326   1.000000
   23       -8.873490   1.000000
   24       -8.819321   1.000000
   25       -8.620794   1.000000
   26       -8.504075   1.000000
   27       -8.452253   1.000000
   28       -8.405594   1.000000
   29       -8.274533   1.000000
   30       -8.235819   1.000000
   31       -8.132896   1.000000
   32       -8.036223   1.000000
   33       -7.931033   1.000000
   34       -7.853365   1.000000
   35       -7.755820   1.000000
   36       -7.668982   1.000000
   37       -7.590071   1.000000
   38       -7.523618   1.000000
   39       -7.430242   1.000000
   40       -7.380922   1.000000
   41       -7.279932   1.000000
   42       -7.179300   1.000000
   43       -7.083422   1.000000
   44       -7.001380   1.000000
   45       -6.937492   1.000000
   46       -6.854017   1.000000
   47       -6.763071   1.000000
   48       -6.641353   1.000000
   49       -6.622337   1.000000
   50       -6.547114   1.000000
   51       -6.439034   1.000000
   52       -6.377855   1.000000
   53       -6.306590   1.000000
   54       -6.194057   1.000000
   55       -6.173600   1.000000
   56       -6.079051   1.000000
   57       -5.935204   1.000000
   58       -5.815860   1.000000
   59       -5.700143   1.000000
   60       -5.638652   1.000000
   61       -5.555895   1.000000
   62       -5.506241   1.000000
   63       -5.418197   1.000000
   64       -5.349872   1.000000
   65       -5.284961   1.000000
   66       -5.122410   1.000000
   67       -5.060929   1.000000
   68       -4.883521   1.000000
   69       -4.845269   1.000000
   70       -4.630598   1.000000
   71       -4.500918   1.000000
   72       -4.472377   1.000000
   73       -4.326474   1.000000
   74       -4.148624   1.000000
   75       -4.071448   1.000000
   76       -3.951516   1.000000
   77       -3.871246   0.999997
   78       -3.755571   0.999909
   79       -3.499198   0.973276
   80       -3.261353   0.598496
   81       -3.034680   0.087970
   82       -2.840034   0.003169
   83       -2.821494   0.002113
   84       -2.658432   0.000030
   85       -2.548975   0.000001
   86       -2.378943   0.000000
   87       -2.291542   0.000000
   88       -2.103585   0.000000
   89       -2.020441   0.000000
   90       -1.935679   0.000000
   91       -1.818585   0.000000
   92       -1.617571   0.000000
   93       -1.496963   0.000000
   94       -1.397390   0.000000
   95       -1.225724   0.000000
   96       -1.098614   0.000000
   97       -1.021726   0.000000
   98       -0.924605   0.000000
   99       -0.841780   0.000000
  100       -0.779711   0.000000
  101       -0.743374   0.000000
  102       -0.639808   0.000000
  103       -0.571229   0.000000
  104       -0.448575   0.000000
  105       -0.426470   0.000000
  106       -0.282541   0.000000
  107       -0.170620   0.000000
  108       -0.085079   0.000000
  109        0.119318   0.000000
  110        0.208239   0.000000
  111        0.370027   0.000000
  112        0.505345   0.000000
  113        0.789435   0.000000
  114        0.889618   0.000000
  115        1.142708   0.000000
  116        1.236923   0.000000
  117        1.420976   0.000000
  118        1.813661   0.000000
  119        1.980224   0.000000
  120        2.299351   0.000000
 
  0.3750000E+00  0.0000000E+00  0.0000000E+00  0.3125000E-01
    1      -17.583621   1.000000
    2      -17.171037   1.000000
    3      -16.756188   1.000000
    4      -16.689607   1.000000
    5      -16.584703   1.000000
    6      -16.397735   1.000000
    7      -16.227721   1.000000
    8      -16.140161   1.000000
    9      -16.077229   1.000000
   10      -16.051118   1.000000
   11      -15.955987   1.000000
   12      -15.843776   1.000000
   13      -15.790223   1.000000
   14      -15.756152   1.000000
   15      -15.616414   1.000000
   16      -15.551015   1.000000
   17      -15.490933   1.000000
   18      -15.408337   1.000000
   19       -9.675731   1.000000
   20       -9.277812   1.000000
   21       -9.180531   1.000000
   22       -8.955169   1.000000
   23       -8.934407   1.000000
   24       -8.860723   1.000000
   25       -8.591128   1.000000
   26       -8.485233   1.000000
   27       -8.403722   1.000000
   28       -8.354635   1.000000
   29       -8.291618   1.000000
   30       -8.215027   1.000000
   31       -8.146026   1.000000
   32       -7.974506   1.000000
   33       -7.929015   1.000000
   34       -7.854610   1.000000
   35       -7.711598   1.000000
   36       -7.653085   1.000000
   37       -7.584409   1.000000
   38       -7.464536   1.000000
   39       -7.368945   1.000000
   40       -7.283199   1.000000
   41       -7.233221   1.000000
   42       -7.198095   1.000000
   43       -7.000149   1.000000
   44       -6.957348   1.000000
   45       -6.854034   1.000000
   46       -6.794301   1.000000
   47       -6.704065   1.000000
   48       -6.634542   1.000000
   49       -6.591659   1.000000
   50       -6.535592   1.000000
   51       -6.376613   1.000000
   52       -6.320265   1.000000
   53       -6.264742   1.000000
   54       -6.200514   1.000000
   55       -6.068669   1.000000
   56       -6.054133   1.000000
   57       -5.999061   1.000000
   58       -5.937626   1.000000
   59       -5.828558   1.000000
   60       -5.748004   1.000000
   61       -5.699095   1.000000
   62       -5.613438   1.000000
   63       -5.557949   1.000000
   64       -5.380478   1.000000
   65       -5.287714   1.000000
   66       -5.127916   1.000000
   67       -5.027748   1.000000
   68       -4.848110   1.000000
   69       -4.822092   1.000000
   70       -4.714879   1.000000
   71       -4.586185   1.000000
   72       -4.479005   1.000000
   73       -4.355063   1.000000
   74       -4.215971   1.000000
   75       -4.034199   1.000000
   76       -3.887153   0.999999
   77       -3.802324   0.999977
   78       -3.636854   0.998162
   79       -3.452668   0.945451
   80       -3.200294   0.427675
   81       -3.007654   0.061238
   82       -2.892878   0.009235
   83       -2.813251   0.001755
   84       -2.693367   0.000083
   85       -2.577826   0.000002
   86       -2.351437   0.000000
   87       -2.286168   0.000000
   88       -2.035370   0.000000
   89       -1.971268   0.000000
   90       -1.933818   0.000000
   91       -1.807744   0.000000
   92       -1.612773   0.000000
   93       -1.475141   0.000000
   94       -1.385329   0.000000
   95       -1.223823   0.000000
   96       -1.139408   0.000000
   97       -1.042276   0.000000
   98       -0.926852   0.000000
   99       -0.875477   0.000000
  100       -0.860670   0.000000
  101       -0.797190   0.000000
  102       -0.717973   0.000000
  103       -0.621609   0.000000
  104       -0.593013   0.000000
  105       -0.490685   0.000000
  106       -0.392306   0.000000
  107       -0.293809   0.000000
  108       -0.138755   0.000000
  109        0.111735   0.000000
  110        0.183607   0.000000
  111        0.338817   0.000000
  112        0.557279   0.000000
  113        0.878290   0.000000
  114        0.944238   0.000000
  115        1.128301   0.000000
  116        1.300100   0.000000
  117        1.556852   0.000000
  118        1.999789   0.000000
  119        2.154998   0.000000
  120        2.471257   0.000000
 
  0.5000000E+00  0.1110223E-15  0.0000000E+00  0.1562500E-01
    1      -17.479957   1.000000
    2      -17.310684   1.000000
    3      -16.763541   1.000000
    4      -16.706665   1.000000
    5      -16.580243   1.000000
    6      -16.413201   1.000000
    7      -16.221189   1.000000
    8      -16.116525   1.000000
    9      -16.072301   1.000000
   10      -16.027963   1.000000
   11      -15.903391   1.000000
   12      -15.857924   1.000000
   13      -15.794511   1.000000
   14      -15.739871   1.000000
   15      -15.647112   1.000000
   16      -15.557379   1.000000
   17      -15.468065   1.000000
   18      -15.418466   1.000000
   19       -9.758327   1.000000
   20       -9.318226   1.000000
   21       -9.207655   1.000000
   22       -8.982274   1.000000
   23       -8.952026   1.000000
   24       -8.745708   1.000000
   25       -8.617065   1.000000
   26       -8.540505   1.000000
   27       -8.404153   1.000000
   28       -8.327920   1.000000
   29       -8.272603   1.000000
   30       -8.200785   1.000000
   31       -8.131412   1.000000
   32       -7.959805   1.000000
   33       -7.917567   1.000000
   34       -7.881391   1.000000
   35       -7.739528   1.000000
   36       -7.634305   1.000000
   37       -7.623265   1.000000
   38       -7.460757   1.000000
   39       -7.393874   1.000000
   40       -7.252663   1.000000
   41       -7.199193   1.000000
   42       -7.085796   1.000000
   43       -6.962525   1.000000
   44       -6.923192   1.000000
   45       -6.859424   1.000000
   46       -6.740820   1.000000
   47       -6.645482   1.000000
   48       -6.589206   1.000000
   49       -6.518375   1.000000
   50       -6.485173   1.000000
   51       -6.433147   1.000000
   52       -6.404706   1.000000
   53       -6.248292   1.000000
   54       -6.190114   1.000000
   55       -6.103286   1.000000
   56       -6.036231   1.000000
   57       -5.984476   1.000000
   58       -5.950204   1.000000
   59       -5.866400   1.000000
   60       -5.771067   1.000000
   61       -5.686541   1.000000
   62       -5.641532   1.000000
   63       -5.565866   1.000000
   64       -5.461878   1.000000
   65       -5.376572   1.000000
   66       -5.164002   1.000000
   67       -5.046506   1.000000
   68       -4.918325   1.000000
   69       -4.819598   1.000000
   70       -4.682784   1.000000
   71       -4.567461   1.000000
   72       -4.475869   1.000000
   73       -4.381731   1.000000
   74       -4.261969   1.000000
   75       -3.996626   1.000000
   76       -3.834592   0.999992
   77       -3.756228   0.999911
   78       -3.622386   0.997463
   79       -3.400141   0.890808
   80       -3.209988   0.454720
   81       -3.003838   0.058040
   82       -2.891389   0.008977
   83       -2.791759   0.001066
   84       -2.734767   0.000256
   85       -2.593347   0.000004
   86       -2.338343   0.000000
   87       -2.280683   0.000000
   88       -2.010029   0.000000
   89       -1.960098   0.000000
   90       -1.928471   0.000000
   91       -1.784151   0.000000
   92       -1.618934   0.000000
   93       -1.473005   0.000000
   94       -1.377341   0.000000
   95       -1.228492   0.000000
   96       -1.176323   0.000000
   97       -1.027000   0.000000
   98       -0.961973   0.000000
   99       -0.913636   0.000000
  100       -0.845019   0.000000
  101       -0.809020   0.000000
  102       -0.748237   0.000000
  103       -0.653086   0.000000
  104       -0.633397   0.000000
  105       -0.551642   0.000000
  106       -0.402724   0.000000
  107       -0.341976   0.000000
  108       -0.158563   0.000000
  109        0.109535   0.000000
  110        0.171735   0.000000
  111        0.316472   0.000000
  112        0.578128   0.000000
  113        0.882374   0.000000
  114        0.996692   0.000000
  115        1.118340   0.000000
  116        1.327115   0.000000
  117        1.611730   0.000000
  118        2.223118   0.000000
  119        2.251240   0.000000
  120        2.365110   0.000000
 
  0.0000000E+00  0.1250000E+00  0.0000000E+00  0.3125000E-01
    1      -17.776724   1.000000
    2      -16.789838   1.000000
    3      -16.673131   1.000000
    4      -16.608878   1.000000
    5      -16.485193   1.000000
    6      -16.364375   1.000000
    7      -16.309379   1.000000
    8      -16.259575   1.000000
    9      -16.218297   1.000000
   10      -16.113010   1.000000
   11      -16.040446   1.000000
   12      -15.945128   1.000000
   13      -15.830218   1.000000
   14      -15.738039   1.000000
   15      -15.670293   1.000000
   16      -15.526362   1.000000
   17      -15.424714   1.000000
   18      -15.379841   1.000000
   19       -9.240932   1.000000
   20       -9.104096   1.000000
   21       -8.958822   1.000000
   22       -8.885275   1.000000
   23       -8.827138   1.000000
   24       -8.712772   1.000000
   25       -8.628104   1.000000
   26       -8.574855   1.000000
   27       -8.509918   1.000000
   28       -8.407979   1.000000
   29       -8.307875   1.000000
   30       -8.267356   1.000000
   31       -8.208085   1.000000
   32       -8.109569   1.000000
   33       -8.049707   1.000000
   34       -7.966580   1.000000
   35       -7.796319   1.000000
   36       -7.769446   1.000000
   37       -7.689515   1.000000
   38       -7.563906   1.000000
   39       -7.518182   1.000000
   40       -7.399315   1.000000
   41       -7.274330   1.000000
   42       -7.213511   1.000000
   43       -7.110869   1.000000
   44       -7.019385   1.000000
   45       -6.924136   1.000000
   46       -6.838038   1.000000
   47       -6.729177   1.000000
   48       -6.666067   1.000000
   49       -6.587428   1.000000
   50       -6.480977   1.000000
   51       -6.450693   1.000000
   52       -6.371831   1.000000
   53       -6.315782   1.000000
   54       -6.259205   1.000000
   55       -6.208362   1.000000
   56       -6.068747   1.000000
   57       -5.973861   1.000000
   58       -5.863006   1.000000
   59       -5.688819   1.000000
   60       -5.653124   1.000000
   61       -5.548359   1.000000
   62       -5.475817   1.000000
   63       -5.367502   1.000000
   64       -5.274402   1.000000
   65       -5.088139   1.000000
   66       -5.035870   1.000000
   67       -4.865123   1.000000
   68       -4.793848   1.000000
   69       -4.730222   1.000000
   70       -4.708248   1.000000
   71       -4.616195   1.000000
   72       -4.539636   1.000000
   73       -4.370391   1.000000
   74       -4.275981   1.000000
   75       -4.147432   1.000000
   76       -3.980335   1.000000
   77       -3.795254   0.999971
   78       -3.667969   0.999110
   79       -3.564957   0.991718
   80       -3.243500   0.549032
   81       -3.207207   0.446934
   82       -2.868335   0.005710
   83       -2.721263   0.000179
   84       -2.600184   0.000005
   85       -2.506411   0.000000
   86       -2.401294   0.000000
   87       -2.303203   0.000000
   88       -2.178096   0.000000
   89       -2.066751   0.000000
   90       -1.894352   0.000000
   91       -1.807917   0.000000
   92       -1.633495   0.000000
   93       -1.573039   0.000000
   94       -1.387943   0.000000
   95       -1.235494   0.000000
   96       -1.142670   0.000000
   97       -1.040578   0.000000
   98       -0.907385   0.000000
   99       -0.787031   0.000000
  100       -0.719513   0.000000
  101       -0.652390   0.000000
  102       -0.534801   0.000000
  103       -0.467586   0.000000
  104       -0.425225   0.000000
  105       -0.320599   0.000000
  106       -0.222332   0.000000
  107       -0.017183   0.000000
  108        0.116352   0.000000
  109        0.204090   0.000000
  110        0.265614   0.000000
  111        0.355380   0.000000
  112        0.455061   0.000000
  113        0.586279   0.000000
  114        0.894997   0.000000
  115        1.101430   0.000000
  116        1.164220   0.000000
  117        1.254016   0.000000
  118        1.685893   0.000000
  119        1.870776   0.000000
  120        2.193670   0.000000
 
  0.1250000E+00  0.1250000E+00  0.0000000E+00  0.3125000E-01
    1      -17.726775   1.000000
    2      -16.873874   1.000000
    3      -16.801207   1.000000
    4      -16.640912   1.000000
    5      -16.445027   1.000000
    6      -16.373514   1.000000
    7      -16.285521   1.000000
    8      -16.228089   1.000000
    9      -16.176853   1.000000
   10      -16.080375   1.000000
   11      -16.008531   1.000000
   12      -15.922156   1.000000
   13      -15.790426   1.000000
   14      -15.724580   1.000000
   15      -15.680088   1.000000
   16      -15.545383   1.000000
   17      -15.446162   1.000000
   18      -15.383287   1.000000
   19       -9.353045   1.000000
   20       -9.248543   1.000000
   21       -9.063330   1.000000
   22       -9.018043   1.000000
   23       -8.809400   1.000000
   24       -8.712349   1.000000
   25       -8.638285   1.000000
   26       -8.542693   1.000000
   27       -8.466587   1.000000
   28       -8.392869   1.000000
   29       -8.329865   1.000000
   30       -8.184997   1.000000
   31       -8.135972   1.000000
   32       -8.021520   1.000000
   33       -7.978563   1.000000
   34       -7.893987   1.000000
   35       -7.780979   1.000000
   36       -7.734340   1.000000
   37       -7.626559   1.000000
   38       -7.520651   1.000000
   39       -7.464127   1.000000
   40       -7.349411   1.000000
   41       -7.313845   1.000000
   42       -7.140592   1.000000
   43       -7.112429   1.000000
   44       -7.013226   1.000000
   45       -6.977858   1.000000
   46       -6.853823   1.000000
   47       -6.757929   1.000000
   48       -6.649547   1.000000
   49       -6.573259   1.000000
   50       -6.494066   1.000000
   51       -6.418528   1.000000
   52       -6.367234   1.000000
   53       -6.289670   1.000000
   54       -6.250761   1.000000
   55       -6.210412   1.000000
   56       -6.104177   1.000000
   57       -5.979998   1.000000
   58       -5.858538   1.000000
   59       -5.718168   1.000000
   60       -5.643823   1.000000
   61       -5.547695   1.000000
   62       -5.500152   1.000000
   63       -5.410830   1.000000
   64       -5.288229   1.000000
   65       -5.179533   1.000000
   66       -5.098973   1.000000
   67       -5.049464   1.000000
   68       -4.888857   1.000000
   69       -4.783057   1.000000
   70       -4.596410   1.000000
   71       -4.540704   1.000000
   72       -4.410503   1.000000
   73       -4.375039   1.000000
   74       -4.247988   1.000000
   75       -4.070408   1.000000
   76       -3.942186   1.000000
   77       -3.895717   0.999999
   78       -3.776821   0.999951
   79       -3.556499   0.990266
   80       -3.210555   0.456309
   81       -3.076370   0.144898
   82       -2.851928   0.004077
   83       -2.779775   0.000800
   84       -2.603757   0.000005
   85       -2.529323   0.000000
   86       -2.374160   0.000000
   87       -2.279211   0.000000
   88       -2.117431   0.000000
   89       -2.032149   0.000000
   90       -1.908674   0.000000
   91       -1.803471   0.000000
   92       -1.619474   0.000000
   93       -1.547775   0.000000
   94       -1.396408   0.000000
   95       -1.243161   0.000000
   96       -1.119604   0.000000
   97       -1.021224   0.000000
   98       -0.938100   0.000000
   99       -0.850856   0.000000
  100       -0.767813   0.000000
  101       -0.729274   0.000000
  102       -0.606323   0.000000
  103       -0.533071   0.000000
  104       -0.483585   0.000000
  105       -0.409288   0.000000
  106       -0.250218   0.000000
  107       -0.089060   0.000000
  108        0.013975   0.000000
  109        0.151775   0.000000
  110        0.284404   0.000000
  111        0.366631   0.000000
  112        0.465893   0.000000
  113        0.781378   0.000000
  114        0.976530   0.000000
  115        1.113680   0.000000
  116        1.153360   0.000000
  117        1.231740   0.000000
  118        1.769763   0.000000
  119        1.946584   0.000000
  120        2.263314   0.000000
 
  0.2500000E+00  0.1250000E+00  0.0000000E+00  0.3125000E-01
    1      -17.629702   1.000000
    2      -17.050689   1.000000
    3      -16.910821   1.000000
    4      -16.620390   1.000000
    5      -16.469635   1.000000
    6      -16.372445   1.000000
    7      -16.255078   1.000000
    8      -16.204222   1.000000
    9      -16.105717   1.000000
   10      -16.029058   1.000000
   11      -15.986363   1.000000
   12      -15.875117   1.000000
   13      -15.792283   1.000000
   14      -15.734978   1.000000
   15      -15.642741   1.000000
   16      -15.552158   1.000000
   17      -15.487006   1.000000
   18      -15.383665   1.000000
   19       -9.575963   1.000000
   20       -9.380029   1.000000
   21       -9.200108   1.000000
   22       -8.962993   1.000000
   23       -8.843531   1.000000
   24       -8.722583   1.000000
   25       -8.588140   1.000000
   26       -8.465558   1.000000
   27       -8.407610   1.000000
   28       -8.383994   1.000000
   29       -8.309638   1.000000
   30       -8.227119   1.000000
   31       -8.139171   1.000000
   32       -8.047715   1.000000
   33       -7.954136   1.000000
   34       -7.867512   1.000000
   35       -7.772730   1.000000
   36       -7.617767   1.000000
   37       -7.537434   1.000000
   38       -7.432828   1.000000
   39       -7.415736   1.000000
   40       -7.316557   1.000000
   41       -7.253077   1.000000
   42       -7.167635   1.000000
   43       -7.040913   1.000000
   44       -7.022727   1.000000
   45       -6.878869   1.000000
   46       -6.761353   1.000000
   47       -6.725384   1.000000