       N       E                     dE             d eps       ncg     rms          rms(c)
DAV:   1     0.112383186404E+04    0.11238E+04   -0.35863E+04  8160   0.577E+02
DAV:   2    -0.372058135429E+01   -0.11276E+04   -0.10856E+04 11320   0.173E+02
DAV:   3    -0.199932052282E+03   -0.19621E+03   -0.18867E+03 10880   0.819E+01
DAV:   4    -0.208978361651E+03   -0.90463E+01   -0.87879E+01 12040   0.261E+01
DAV:   5    -0.209307488575E+03   -0.32913E+00   -0.32827E+00 11360   0.365E+00    0.275E+01
DAV:   6    -0.236797614565E+03   -0.27490E+02   -0.11004E+02 12640   0.603E+01    0.595E+01
DAV:   7    -0.196505872037E+03    0.40292E+02   -0.17775E+02 13200   0.152E+02    0.200E+01
DAV:   8    -0.189481616435E+03    0.70243E+01   -0.17568E+01 11840   0.128E+01    0.127E+01
DAV:   9    -0.188167933682E+03    0.13137E+01   -0.31255E+00 12480   0.630E+00    0.914E+00
DAV:  10    -0.187033502663E+03    0.11344E+01   -0.21282E+00 13440   0.739E+00    0.303E+00
DAV:  11    -0.186942263378E+03    0.91239E-01   -0.59120E-01 12320   0.231E+00    0.231E+00
DAV:  12    -0.187046572206E+03   -0.10431E+00   -0.65953E-01 12600   0.409E+00    0.448E+00
DAV:  13    -0.186881051216E+03    0.16552E+00   -0.44178E-01 12560   0.389E+00    0.208E+00
DAV:  14    -0.186845481934E+03    0.35569E-01   -0.10626E-01 13200   0.178E+00    0.124E+00
DAV:  15    -0.186839860016E+03    0.56219E-02   -0.61401E-02 12040   0.147E+00    0.108E+00
DAV:  16    -0.186829568460E+03    0.10292E-01   -0.18860E-02 12720   0.683E-01    0.464E-01
DAV:  17    -0.186827456395E+03    0.21121E-02   -0.90069E-03 12760   0.465E-01    0.244E-01
DAV:  18    -0.186827110219E+03    0.34618E-03   -0.20864E-03 11840   0.139E-01    0.174E-01
DAV:  19    -0.186826761791E+03    0.34843E-03   -0.94450E-04 10120   0.126E-01    0.516E-02
DAV:  20    -0.186827353840E+03   -0.59205E-03   -0.61604E-04  9360   0.576E-02    0.547E-02
DAV:  21    -0.186828011428E+03   -0.65759E-03   -0.40063E-04  9080   0.570E-02    0.437E-02
DAV:  22    -0.186829193575E+03   -0.11821E-02   -0.22873E-04  7560   0.595E-02    0.409E-02
DAV:  23    -0.186830457037E+03   -0.12635E-02   -0.15290E-04  7480   0.463E-02    0.114E-02
DAV:  24    -0.186831055096E+03   -0.59806E-03   -0.31759E-05  6640   0.141E-02    0.908E-03
DAV:  25    -0.186831439848E+03   -0.38475E-03   -0.17667E-05  5640   0.136E-02    0.559E-03
DAV:  26    -0.186831656936E+03   -0.21709E-03   -0.85214E-06  6840   0.746E-03    0.206E-03
DAV:  27    -0.186831763996E+03   -0.10706E-03   -0.39579E-06  6880   0.443E-03    0.128E-03
DAV:  28    -0.186831809340E+03   -0.45344E-04   -0.21201E-06  7240   0.349E-03
   1 F= -.18683181E+03 E0= -.18665906E+03  d E =-.186832E+03
       N       E                     dE             d eps       ncg     rms          rms(c)
DAV:   1    -0.187464446705E+03   -0.63268E+00   -0.27311E+02  8160   0.351E+01    0.463E+00
DAV:   2    -0.189363189827E+03   -0.18987E+01   -0.20262E+01 12200   0.153E+01    0.868E+00
DAV:   3    -0.189343555278E+03    0.19635E-01   -0.40259E+00 12480   0.120E+01    0.670E+00
DAV:   4    -0.188739899747E+03    0.60366E+00   -0.64032E-01 12680   0.469E+00    0.185E+00
DAV:   5    -0.188745241014E+03   -0.53413E-02   -0.29603E-01 11080   0.148E+00    0.228E+00
DAV:   6    -0.188671370826E+03    0.73870E-01   -0.28716E-01 11240   0.160E+00    0.135E+00
DAV:   7    -0.188687251726E+03   -0.15881E-01   -0.14761E-01 12000   0.219E+00    0.229E+00
DAV:   8    -0.188647928758E+03    0.39323E-01   -0.78921E-02 13120   0.170E+00    0.559E-01
DAV:   9    -0.188644690317E+03    0.32384E-02   -0.95550E-03 11120   0.469E-01    0.399E-01
DAV:  10    -0.188644461144E+03    0.22917E-03   -0.56205E-03 13600   0.423E-01    0.350E-01
DAV:  11    -0.188643478669E+03    0.98247E-03   -0.32713E-03 12960   0.275E-01    0.130E-01
DAV:  12    -0.188643521280E+03   -0.42611E-04   -0.10047E-03 12240   0.938E-02    0.107E-01
DAV:  13    -0.188643431862E+03    0.89418E-04   -0.32241E-04  7640   0.621E-02
   2 F= -.18864343E+03 E0= -.18850107E+03  d E =-.181162E+01
       N       E                     dE             d eps       ncg     rms          rms(c)
DAV:   1    -0.190563480295E+03   -0.19200E+01   -0.31202E+01  9240   0.142E+01    0.445E+00
DAV:   2    -0.190550885671E+03    0.12595E-01   -0.28455E+00 11400   0.969E+00    0.744E+00
DAV:   3    -0.190037776831E+03    0.51311E+00   -0.13547E+00 12360   0.865E+00    0.413E+00
DAV:   4    -0.189832404960E+03    0.20537E+00   -0.70742E-01 12720   0.407E+00    0.246E+00
DAV:   5    -0.189745008229E+03    0.87397E-01   -0.29143E-01 11640   0.187E+00    0.826E-01
DAV:   6    -0.189729859140E+03    0.15149E-01   -0.39476E-02 10600   0.673E-01    0.241E-01
DAV:   7    -0.189731492205E+03   -0.16331E-02   -0.82087E-03 12360   0.444E-01    0.428E-01
DAV:   8    -0.189730249002E+03    0.12432E-02   -0.33107E-03 12280   0.367E-01    0.173E-01
DAV:   9    -0.189730268009E+03   -0.19007E-04   -0.10089E-03 10120   0.138E-01    0.124E-01
DAV:  10    -0.189730305026E+03   -0.37017E-04   -0.60680E-04 10600   0.121E-01
   3 F= -.18973031E+03 E0= -.18960976E+03  d E =-.108687E+01
       N       E                     dE             d eps       ncg     rms          rms(c)
DAV:   1    -0.191293252123E+03   -0.15630E+01   -0.75083E+01  8160   0.198E+01    0.464E+00
DAV:   2    -0.191193283782E+03    0.99968E-01   -0.55285E+00 13120   0.847E+00    0.532E+00
DAV:   3    -0.191198441707E+03   -0.51579E-02   -0.16491E+00 12160   0.926E+00    0.629E+00
DAV:   4    -0.190864404410E+03    0.33404E+00   -0.13454E+00 12760   0.724E+00    0.322E+00
DAV:   5    -0.190851037443E+03    0.13367E-01   -0.56098E-01 11920   0.487E+00    0.335E+00
DAV:   6    -0.190712463666E+03    0.13857E+00   -0.21891E-01 12240   0.330E+00    0.928E-01
DAV:   7    -0.190703811458E+03    0.86522E-02   -0.41554E-02 12480   0.945E-01    0.427E-01
DAV:   8    -0.190701039999E+03    0.27715E-02   -0.70281E-03 10200   0.361E-01    0.212E-01
DAV:   9    -0.190701218874E+03   -0.17887E-03   -0.20595E-03 11480   0.312E-01    0.242E-01
DAV:  10    -0.190701134096E+03    0.84778E-04   -0.15467E-03 10760   0.253E-01    0.134E-01
DAV:  11    -0.190700958409E+03    0.17569E-03   -0.83874E-04 10320   0.120E-01    0.518E-02
DAV:  12    -0.190700943656E+03    0.14753E-04   -0.14993E-04  7920   0.454E-02
   4 F= -.19070094E+03 E0= -.19059650E+03  d E =-.970639E+00
       N       E                     dE             d eps       ncg     rms          rms(c)
DAV:   1    -0.192017879980E+03   -0.13169E+01   -0.15535E+02  8160   0.278E+01    0.564E+00
DAV:   2    -0.191878814558E+03    0.13907E+00   -0.94455E+00 12280   0.928E+00    0.499E+00
DAV:   3    -0.192203035753E+03   -0.32422E+00   -0.24288E+00 11400   0.109E+01    0.932E+00
DAV:   4    -0.191576409635E+03    0.62663E+00   -0.27975E+00 12080   0.113E+01    0.399E+00
DAV:   5    -0.191509896142E+03    0.66513E-01   -0.80090E-01 12240   0.580E+00    0.366E+00
DAV:   6    -0.191333064449E+03    0.17683E+00   -0.28887E-01 12240   0.392E+00    0.959E-01
DAV:   7    -0.191326522065E+03    0.65424E-02   -0.55869E-02 12240   0.118E+00    0.590E-01
DAV:   8    -0.191324871856E+03    0.16502E-02   -0.20039E-02 11920   0.874E-01    0.653E-01
DAV:   9    -0.191320883704E+03    0.39882E-02   -0.69632E-03 11840   0.598E-01    0.176E-01
DAV:  10    -0.191321320341E+03   -0.43664E-03   -0.20440E-03 10960   0.171E-01    0.125E-01
DAV:  11    -0.191321084806E+03    0.23553E-03   -0.79954E-04 11280   0.106E-01    0.480E-02
DAV:  12    -0.191321086904E+03   -0.20974E-05   -0.11773E-04  6520   0.403E-02
   5 F= -.19132109E+03 E0= -.19122051E+03  d E =-.620143E+00
       N       E                     dE             d eps       ncg     rms          rms(c)
DAV:   1    -0.191362326287E+03   -0.41241E-01   -0.38022E+00  8160   0.410E+00    0.514E-01
DAV:   2    -0.191403633674E+03   -0.41307E-01   -0.20422E-01 12640   0.230E+00    0.181E+00
DAV:   3    -0.191374112804E+03    0.29521E-01   -0.70872E-02 12120   0.181E+00    0.454E-01
DAV:   4    -0.191373997892E+03    0.11491E-03   -0.94791E-03 11040   0.667E-01    0.454E-01
DAV:   5    -0.191371914919E+03    0.20830E-02   -0.51031E-03 10320   0.517E-01    0.193E-01
DAV:   6    -0.191371799249E+03    0.11567E-03   -0.16128E-03 10280   0.221E-01    0.162E-01
DAV:   7    -0.191372157405E+03   -0.35816E-03   -0.21313E-03 10640   0.330E-01    0.248E-01
DAV:   8    -0.191371512463E+03    0.64494E-03   -0.10490E-03  9080   0.223E-01    0.331E-02
DAV:   9    -0.191371526740E+03   -0.14277E-04   -0.89572E-05  5880   0.369E-02
   6 F= -.19137153E+03 E0= -.19126919E+03  d E =-.504398E-01
       N       E                     dE             d eps       ncg     rms          rms(c)
DAV:   1    -0.191415693826E+03   -0.44181E-01   -0.47040E+00  8160   0.455E+00    0.513E-01
DAV:   2    -0.191446794286E+03   -0.31100E-01   -0.15707E-01 12920   0.180E+00    0.164E+00
DAV:   3    -0.191423764184E+03    0.23030E-01   -0.64887E-02 12200   0.172E+00    0.522E-01
DAV:   4    -0.191422331968E+03    0.14322E-02   -0.92625E-03 11080   0.591E-01    0.400E-01
DAV:   5    -0.191421057123E+03    0.12748E-02   -0.53136E-03 10840   0.522E-01    0.254E-01
DAV:   6    -0.191420667295E+03    0.38983E-03   -0.24629E-03 10080   0.305E-01    0.189E-01
DAV:   7    -0.191420917141E+03   -0.24985E-03   -0.23895E-03 10960   0.346E-01    0.240E-01
DAV:   8    -0.191420323922E+03    0.59322E-03   -0.11038E-03  9120   0.229E-01    0.438E-02
DAV:   9    -0.191420315471E+03    0.84507E-05   -0.10001E-04  5640   0.436E-02
   7 F= -.19142032E+03 E0= -.19131667E+03  d E =-.487887E-01
       N       E                     dE             d eps       ncg     rms          rms(c)
DAV:   1    -0.191432501160E+03   -0.12177E-01   -0.26492E-01  8160   0.110E+00    0.152E-01
DAV:   2    -0.191434400503E+03   -0.18993E-02   -0.10967E-02 12120   0.521E-01    0.421E-01
DAV:   3    -0.191432757779E+03    0.16427E-02   -0.40169E-03 11520   0.447E-01    0.133E-01
DAV:   4    -0.191432819117E+03   -0.61338E-04   -0.89290E-04  8520   0.212E-01
   8 F= -.19143282E+03 E0= -.19132894E+03  d E =-.125036E-01
       N       E                     dE             d eps       ncg     rms          rms(c)
DAV:   1    -0.191401484465E+03    0.31273E-01   -0.20371E+00  8160   0.302E+00    0.349E-01
DAV:   2    -0.191410475470E+03   -0.89910E-02   -0.72661E-02 12240   0.116E+00    0.747E-01
DAV:   3    -0.191404651173E+03    0.58243E-02   -0.16313E-02 12280   0.908E-01    0.282E-01
DAV:   4    -0.191404741733E+03   -0.90560E-04   -0.46345E-03 11200   0.422E-01    0.335E-01
DAV:   5    -0.191403859850E+03    0.88188E-03   -0.35531E-03 11000   0.404E-01    0.194E-01
DAV:   6    -0.191403553446E+03    0.30640E-03   -0.13594E-03  9920   0.205E-01    0.886E-02
DAV:   7    -0.191403559726E+03   -0.62801E-05   -0.55137E-04  9840   0.135E-01
   9 F= -.19140356E+03 E0= -.19130023E+03  d E =0.292594E-01
       N       E                     dE             d eps       ncg     rms          rms(c)
DAV:   1    -0.191423224110E+03   -0.19671E-01   -0.13693E+00  8160   0.247E+00    0.283E-01
DAV:   2    -0.191430838283E+03   -0.76142E-02   -0.45566E-02 12320   0.880E-01    0.793E-01
DAV:   3    -0.191425579857E+03    0.52584E-02   -0.18046E-02 11960   0.891E-01    0.333E-01
DAV:   4    -0.191424722007E+03    0.85785E-03   -0.29493E-03 11040   0.325E-01    0.201E-01
DAV:   5    -0.191424463350E+03    0.25866E-03   -0.15571E-03 10080   0.286E-01    0.148E-01
DAV:   6    -0.191424289123E+03    0.17423E-03   -0.84794E-04 10400   0.172E-01    0.922E-02
DAV:   7    -0.191424398376E+03   -0.10925E-03   -0.68396E-04  9080   0.184E-01    0.142E-01
DAV:   8    -0.191424197829E+03    0.20055E-03   -0.37343E-04  7840   0.141E-01    0.238E-02
DAV:   9    -0.191424203946E+03   -0.61172E-05   -0.33704E-05  5520   0.265E-02
  10 F= -.19142420E+03 E0= -.19132037E+03  d E =-.206442E-01
       N       E                     dE             d eps       ncg     rms          rms(c)
DAV:   1    -0.191448319757E+03   -0.24122E-01   -0.10952E+00  8160   0.224E+00    0.301E-01
DAV:   2    -0.191451098004E+03   -0.27782E-02   -0.34974E-02 13480   0.768E-01    0.513E-01
DAV:   3    -0.191449140366E+03    0.19576E-02   -0.10095E-02 12080   0.718E-01    0.318E-01
DAV:   4    -0.191448695325E+03    0.44504E-03   -0.40019E-03 11360   0.426E-01    0.285E-01
DAV:   5    -0.191448207093E+03    0.48823E-03   -0.29878E-03 10000   0.394E-01    0.221E-01
DAV:   6    -0.191447719874E+03    0.48722E-03   -0.12448E-03  9800   0.220E-01    0.697E-02
DAV:   7    -0.191447714152E+03    0.57220E-05   -0.38964E-04  7440   0.108E-01
  11 F= -.19144771E+03 E0= -.19134360E+03  d E =-.235102E-01
       N       E                     dE             d eps       ncg     rms          rms(c)
DAV:   1    -0.191406582211E+03    0.41138E-01   -0.29777E+00  8160   0.363E+00    0.393E-01
DAV:   2    -0.191420632400E+03   -0.14050E-01   -0.86778E-02 12520   0.129E+00    0.102E+00
DAV:   3    -0.191410779466E+03    0.98529E-02   -0.24729E-02 12160   0.113E+00    0.385E-01
DAV:   4    -0.191410196580E+03    0.58289E-03   -0.49740E-03 11000   0.470E-01    0.308E-01
DAV:   5    -0.191409396573E+03    0.80001E-03   -0.34220E-03 10800   0.429E-01    0.201E-01
DAV:   6    -0.191409071509E+03    0.32506E-03   -0.14680E-03 11440   0.223E-01    0.887E-02
DAV:   7    -0.191408956292E+03    0.11522E-03   -0.42891E-04  8840   0.850E-02    0.385E-02
DAV:   8    -0.191408947502E+03    0.87891E-05   -0.10305E-04  7600   0.633E-02
  12 F= -.19140895E+03 E0= -.19130515E+03  d E =0.387666E-01
       N       E                     dE             d eps       ncg     rms          rms(c)
DAV:   1    -0.191346421045E+03    0.62535E-01   -0.13677E+01  8160   0.775E+00    0.810E-01
DAV:   2    -0.191407644431E+03   -0.61223E-01   -0.34960E-01 12760   0.262E+00    0.229E+00
DAV:   3    -0.191365281339E+03    0.42363E-01   -0.12367E-01 12000   0.250E+00    0.821E-01
DAV:   4    -0.191359773985E+03    0.55074E-02   -0.17655E-02 11440   0.747E-01    0.415E-01
DAV:   5    -0.191358060826E+03    0.17132E-02   -0.89412E-03 11400   0.597E-01    0.410E-01
DAV:   6    -0.191357719078E+03    0.34175E-03   -0.77553E-03 11840   0.631E-01    0.337E-01
DAV:   7    -0.191357154180E+03    0.56490E-03   -0.39256E-03 11720   0.406E-01    0.274E-01
DAV:   8    -0.191356423293E+03    0.73089E-03   -0.16010E-03  9880   0.279E-01    0.731E-02
DAV:   9    -0.191356381338E+03    0.41954E-04   -0.16194E-04  6040   0.702E-02
  13 F= -.19135638E+03 E0= -.19125382E+03  d E =0.525662E-01
       N       E                     dE             d eps       ncg     rms          rms(c)
DAV:   1    -0.191360054734E+03   -0.36314E-02   -0.17738E+00  8160   0.280E+00    0.314E-01
DAV:   2    -0.191369438903E+03   -0.93842E-02   -0.50391E-02 13600   0.978E-01    0.862E-01
DAV:   3    -0.191362246796E+03    0.71921E-02   -0.20124E-02 12240   0.994E-01    0.310E-01
DAV:   4    -0.191362152834E+03    0.93962E-04   -0.35397E-03 10600   0.392E-01    0.292E-01
DAV:   5    -0.191361310951E+03    0.84188E-03   -0.18822E-03  9920   0.328E-01    0.124E-01
DAV:   6    -0.191361275310E+03    0.35641E-04   -0.76665E-04 10240   0.143E-01
  14 F= -.19136128E+03 E0= -.19125831E+03  d E =-.489397E-02
       N       E                     dE             d eps       ncg     rms          rms(c)
DAV:   1    -0.191377697518E+03   -0.16387E-01   -0.13679E+00  8160   0.251E+00    0.413E-01
DAV:   2    -0.191403320781E+03   -0.25623E-01   -0.84517E-02 12840   0.171E+00    0.168E+00
DAV:   3    -0.191378635773E+03    0.24685E-01   -0.50814E-02 11680   0.153E+00    0.306E-01
DAV:   4    -0.191378666567E+03   -0.30794E-04   -0.54836E-03 11480   0.475E-01    0.341E-01
DAV:   5    -0.191377707779E+03    0.95879E-03   -0.36568E-03 10920   0.428E-01    0.206E-01
DAV:   6    -0.191377450160E+03    0.25762E-03   -0.16034E-03  9640   0.262E-01    0.168E-01
DAV:   7    -0.191377296746E+03    0.15341E-03   -0.11085E-03  9680   0.233E-01    0.108E-01
DAV:   8    -0.191377161892E+03    0.13485E-03   -0.28412E-04  7120   0.104E-01    0.241E-02
DAV:   9    -0.191377153361E+03    0.85304E-05   -0.43101E-05  6560   0.276E-02
  15 F= -.19137715E+03 E0= -.19127279E+03  d E =-.158781E-01
       N       E                     dE             d eps       ncg     rms          rms(c)
DAV:   1    -0.191393444605E+03   -0.16283E-01   -0.12875E+00  8160   0.241E+00    0.298E-01
DAV:   2    -0.191403350778E+03   -0.99062E-02   -0.49473E-02 12800   0.110E+00    0.956E-01
DAV:   3    -0.191395357992E+03    0.79928E-02   -0.20570E-02 11600   0.959E-01    0.274E-01
DAV:   4    -0.191395413038E+03   -0.55046E-04   -0.36284E-03 11160   0.408E-01    0.290E-01
DAV:   5    -0.191394581924E+03    0.83111E-03   -0.21739E-03 10440   0.337E-01    0.124E-01
DAV:   6    -0.191394433701E+03    0.14822E-03   -0.67814E-04 10000   0.128E-01    0.597E-02
DAV:   7    -0.191394495971E+03   -0.62270E-04   -0.37081E-04  8520   0.126E-01
  16 F= -.19139450E+03 E0= -.19128919E+03  d E =-.173426E-01
       N       E                     dE             d eps       ncg     rms          rms(c)
DAV:   1    -0.191380007823E+03    0.14426E-01   -0.83917E-01  8160   0.195E+00    0.239E-01
DAV:   2    -0.191385226382E+03   -0.52186E-02   -0.30029E-02 12200   0.835E-01    0.668E-01
DAV:   3    -0.191380958854E+03    0.42675E-02   -0.10438E-02 12160   0.705E-01    0.209E-01
DAV:   4    -0.191380980343E+03   -0.21489E-04   -0.21484E-03  9920   0.316E-01    0.226E-01
DAV:   5    -0.191380505723E+03    0.47462E-03   -0.14778E-03 10040   0.279E-01    0.109E-01
DAV:   6    -0.191380374483E+03    0.13124E-03   -0.45834E-04  8280   0.109E-01    0.361E-02
DAV:   7    -0.191380365114E+03    0.93684E-05   -0.11827E-04  6640   0.487E-02
  17 F= -.19138037E+03 E0= -.19127566E+03  d E =0.141309E-01
       N       E                     dE             d eps       ncg     rms          rms(c)
DAV:   1    -0.191375449003E+03    0.49255E-02   -0.13406E-01  8160   0.778E-01    0.903E-02
DAV:   2    -0.191376346425E+03   -0.89742E-03   -0.43496E-03 13080   0.313E-01    0.285E-01
DAV:   3    -0.191375579508E+03    0.76692E-03   -0.16743E-03  9600   0.285E-01    0.702E-02
DAV:   4    -0.191375560513E+03    0.18996E-04   -0.13484E-04  5480   0.649E-02
  18 F= -.19137556E+03 E0= -.19127104E+03  d E =0.480460E-02
       N       E                     dE             d eps       ncg     rms          rms(c)
DAV:   1    -0.191378572688E+03   -0.29932E-02   -0.35842E-01  8160   0.127E+00    0.144E-01
DAV:   2    -0.191380610102E+03   -0.20374E-02   -0.13774E-02 13280   0.533E-01    0.356E-01
DAV:   3    -0.191379327714E+03    0.12824E-02   -0.36856E-03 11680   0.426E-01    0.131E-01
DAV:   4    -0.191379338929E+03   -0.11214E-04   -0.85993E-04  8600   0.185E-01
  19 F= -.19137934E+03 E0= -.19127418E+03  d E =-.377842E-02
       N       E                     dE             d eps       ncg     rms          rms(c)
DAV:   1    -0.191391802871E+03   -0.12475E-01   -0.89753E-01  8160   0.204E+00    0.268E-01
DAV:   2    -0.191397591911E+03   -0.57890E-02   -0.31812E-02 12640   0.833E-01    0.783E-01
DAV:   3    -0.191392558207E+03    0.50337E-02   -0.14816E-02 11680   0.805E-01    0.260E-01
DAV:   4    -0.191391980647E+03    0.57756E-03   -0.21998E-03 11360   0.268E-01    0.144E-01
DAV:   5    -0.191391985059E+03   -0.44121E-05   -0.14502E-03 10640   0.270E-01    0.181E-01
DAV:   6    -0.191391668319E+03    0.31674E-03   -0.95178E-04 10000   0.203E-01    0.725E-02
DAV:   7    -0.191391709663E+03   -0.41344E-04   -0.35185E-04  7520   0.131E-01
  20 F= -.19139171E+03 E0= -.19128589E+03  d E =-.123707E-01
       N       E                     dE             d eps       ncg     rms          rms(c)
DAV:   1    -0.191400441513E+03   -0.87732E-02   -0.45165E-01  8160   0.143E+00    0.178E-01
DAV:   2    -0.191404176582E+03   -0.37351E-02   -0.18200E-02 13240   0.664E-01    0.576E-01
DAV:   3    -0.191401205964E+03    0.29706E-02   -0.74812E-03 11320   0.581E-01    0.168E-01
DAV:   4    -0.191401191958E+03    0.14006E-04   -0.12346E-03  9600   0.228E-01    0.161E-01
DAV:   5    -0.191400950007E+03    0.24195E-03   -0.68921E-04  9200   0.192E-01    0.763E-02
DAV:   6    -0.191400900117E+03    0.49890E-04   -0.20925E-04  6160   0.845E-02
  21 F= -.19140090E+03 E0= -.19129460E+03  d E =-.919045E-02
       N       E                     dE             d eps       ncg     rms          rms(c)
DAV:   1    -0.191405320707E+03   -0.43707E-02   -0.13901E-01  8160   0.806E-01    0.140E-01
DAV:   2    -0.191408354344E+03   -0.30336E-02   -0.89709E-03 11880   0.615E-01    0.554E-01
DAV:   3    -0.191405212357E+03    0.31420E-02   -0.48061E-03 10520   0.507E-01    0.833E-02
DAV:   4    -0.191405281309E+03   -0.68952E-04   -0.44805E-04  8240   0.147E-01
  22 F= -.19140528E+03 E0= -.19129909E+03  d E =-.438119E-02
       N       E                     dE             d eps       ncg     rms          rms(c)
DAV:   1    -0.191414012172E+03   -0.87998E-02   -0.48951E-01  8160   0.150E+00    0.273E-01
DAV:   2    -0.191425791934E+03   -0.11780E-01   -0.38374E-02 12240   0.123E+00    0.108E+00
DAV:   3    -0.191414403542E+03    0.11388E-01   -0.20973E-02 11440   0.100E+00    0.217E-01
DAV:   4    -0.191414631384E+03   -0.22784E-03   -0.28421E-03 10320   0.366E-01    0.255E-01
DAV:   5    -0.191413933559E+03    0.69783E-03   -0.13642E-03 10000   0.243E-01    0.673E-02
DAV:   6    -0.191413912560E+03    0.20999E-04   -0.34118E-04  7080   0.839E-02
  23 F= -.19141391E+03 E0= -.19130719E+03  d E =-.863125E-02
       N       E                     dE             d eps       ncg     rms          rms(c)
DAV:   1    -0.191441512634E+03   -0.27579E-01   -0.30888E+00  8160   0.379E+00    0.513E-01
DAV:   2    -0.191465954554E+03   -0.24442E-01   -0.12768E-01 12880   0.178E+00    0.160E+00
DAV:   3    -0.191444744765E+03    0.21210E-01   -0.56454E-02 12200   0.157E+00    0.457E-01
DAV:   4    -0.191445931444E+03   -0.11867E-02   -0.12053E-02 11360   0.779E-01    0.585E-01
DAV:   5    -0.191442232152E+03    0.36993E-02   -0.80192E-03 10480   0.640E-01    0.198E-01
DAV:   6    -0.191442188245E+03    0.43906E-04   -0.25739E-03 11120   0.270E-01    0.207E-01
DAV:   7    -0.191442034611E+03    0.15363E-03   -0.18420E-03 10120   0.313E-01    0.173E-01
DAV:   8    -0.191441702591E+03    0.33202E-03   -0.47397E-04  8320   0.148E-01    0.263E-02
DAV:   9    -0.191441705906E+03   -0.33143E-05   -0.58000E-05  6360   0.296E-02
  24 F= -.19144171E+03 E0= -.19133468E+03  d E =-.277933E-01
       N       E                     dE             d eps       ncg     rms          rms(c)
DAV:   1    -0.191440144058E+03    0.15585E-02   -0.24039E-01  8160   0.106E+00    0.192E-01
DAV:   2    -0.191444262324E+03   -0.41183E-02   -0.16109E-02 11560   0.785E-01    0.622E-01
DAV:   3    -0.191440059774E+03    0.42025E-02   -0.71241E-03 11440   0.615E-01    0.128E-01
DAV:   4    -0.191440367763E+03   -0.30799E-03   -0.15608E-03  9600   0.269E-01    0.226E-01
DAV:   5    -0.191439882205E+03    0.48556E-03   -0.11283E-03  9520   0.231E-01    0.764E-02
DAV:   6    -0.191439809392E+03    0.72813E-04   -0.23061E-04  5920   0.733E-02
  25 F= -.19143981E+03 E0= -.19133316E+03  d E =0.189651E-02
       N       E                     dE             d eps       ncg     rms          rms(c)
DAV:   1    -0.191464208967E+03   -0.24327E-01   -0.18972E+00  8160   0.292E+00    0.290E-01
DAV:   2    -0.191468396259E+03   -0.41873E-02   -0.43829E-02 11880   0.747E-01    0.502E-01
DAV:   3    -0.191467484810E+03    0.91145E-03   -0.10876E-02 12280   0.732E-01    0.423E-01
DAV:   4    -0.191465873763E+03    0.16110E-02   -0.30381E-03 10960   0.362E-01    0.139E-01
DAV:   5    -0.191465928738E+03   -0.54975E-04   -0.14940E-03 10080   0.251E-01    0.182E-01
DAV:   6    -0.191465769587E+03    0.15915E-03   -0.12900E-03 10120   0.256E-01    0.123E-01
DAV:   7    -0.191465678776E+03    0.90811E-04   -0.55133E-04  8360   0.161E-01
  26 F= -.19146568E+03 E0= -.19135978E+03  d E =-.258694E-01
       N       E                     dE             d eps       ncg     rms          rms(c)
DAV:   1    -0.191450666474E+03    0.15103E-01   -0.55409E-01  8160   0.161E+00    0.187E-01
DAV:   2    -0.191451858807E+03   -0.11923E-02   -0.15700E-02 12240   0.446E-01    0.303E-01
DAV:   3    -0.191451534445E+03    0.32436E-03   -0.42162E-03 11880   0.444E-01    0.261E-01
DAV:   4    -0.191450955476E+03    0.57897E-03   -0.16377E-03  9520   0.266E-01    0.127E-01
DAV:   5    -0.191450951213E+03    0.42631E-05   -0.95179E-04  9600   0.220E-01
  27 F= -.19145095E+03 E0= -.19134491E+03  d E =0.147276E-01
       N       E                     dE             d eps       ncg     rms          rms(c)
DAV:   1    -0.191428770132E+03    0.22185E-01   -0.20385E+00  8160   0.312E+00    0.519E-01
DAV:   2    -0.191431310886E+03   -0.25408E-02   -0.78426E-02 12520   0.107E+00    0.774E-01
DAV:   3    -0.191429782446E+03    0.15284E-02   -0.29768E-02 11840   0.120E+00    0.735E-01
DAV:   4    -0.191425615411E+03    0.41670E-02   -0.16014E-02 11400   0.808E-01    0.429E-01
DAV:   5    -0.191424864760E+03    0.75065E-03   -0.81790E-03  9920   0.647E-01    0.346E-01
DAV:   6    -0.191423372756E+03    0.14920E-02   -0.32819E-03 11520   0.357E-01    0.911E-02
DAV:   7    -0.191423613525E+03   -0.24077E-03   -0.90217E-04 10040   0.207E-01    0.169E-01
DAV:   8    -0.191423332169E+03    0.28136E-03   -0.45806E-04  8480   0.159E-01    0.332E-02
DAV:   9    -0.191423337419E+03   -0.52509E-05   -0.44816E-05  6000   0.330E-02
  28 F= -.19142334E+03 E0= -.19131743E+03  d E =0.276138E-01
       N       E                     dE             d eps       ncg     rms          rms(c)
DAV:   1    -0.191486399112E+03   -0.63067E-01   -0.83095E+00  8160   0.625E+00    0.811E-01
DAV:   2    -0.191506388198E+03   -0.19989E-01   -0.25203E-01 12360   0.189E+00    0.151E+00
DAV:   3    -0.191496480010E+03    0.99082E-02   -0.88191E-02 11920   0.203E+00    0.103E+00
DAV:   4    -0.191486512808E+03    0.99672E-02   -0.26550E-02 12240   0.108E+00    0.549E-01
DAV:   5    -0.191485586594E+03    0.92621E-03   -0.17277E-02 11000   0.948E-01    0.553E-01
DAV:   6    -0.191482292666E+03    0.32939E-02   -0.90719E-03 11560   0.596E-01    0.163E-01
DAV:   7    -0.191482081734E+03    0.21093E-03   -0.17408E-03 11200   0.209E-01    0.140E-01
DAV:   8    -0.191481959464E+03    0.12227E-03   -0.79537E-04  9320   0.199E-01    0.113E-01
DAV:   9    -0.191481827439E+03    0.13202E-03   -0.26282E-04  7160   0.110E-01    0.318E-02
DAV:  10    -0.191481822198E+03    0.52410E-05   -0.79584E-05  6240   0.353E-02
  29 F= -.19148182E+03 E0= -.19137656E+03  d E =-.584848E-01
       N       E                     dE             d eps       ncg     rms          rms(c)
DAV:   1    -0.191514635298E+03   -0.32808E-01   -0.24588E+00  8160   0.335E+00    0.357E-01
DAV:   2    -0.191518089130E+03   -0.34538E-02   -0.58341E-02 11880   0.753E-01    0.417E-01
DAV:   3    -0.191519534677E+03   -0.14455E-02   -0.13070E-02 12400   0.826E-01    0.605E-01
DAV:   4    -0.191516178254E+03    0.33564E-02   -0.65971E-03 11520   0.578E-01    0.199E-01
DAV:   5    -0.191516133703E+03    0.44551E-04   -0.28114E-03 10760   0.344E-01    0.232E-01
DAV:   6    -0.191515735829E+03    0.39787E-03   -0.19444E-03 11480   0.309E-01    0.119E-01
DAV:   7    -0.191515544199E+03    0.19163E-03   -0.40689E-04  8280   0.115E-01    0.359E-02
DAV:   8    -0.191515537616E+03    0.65831E-05   -0.10215E-04  7240   0.594E-02
  30 F= -.19151554E+03 E0= -.19141158E+03  d E =-.337154E-01
       N       E                     dE             d eps       ncg     rms          rms(c)
DAV:   1    -0.191512683959E+03    0.28602E-02   -0.16082E-02  8160   0.275E-01    0.363E-02
DAV:   2    -0.191512897417E+03   -0.21346E-03   -0.70663E-04 11440   0.146E-01    0.142E-01
DAV:   3    -0.191512682396E+03    0.21502E-03   -0.35423E-04  8240   0.136E-01    0.248E-02
DAV:   4    -0.191512691893E+03   -0.94969E-05   -0.33151E-05  5720   0.319E-02
  31 F= -.19151269E+03 E0= -.19140863E+03  d E =0.284572E-02
       N       E                     dE             d eps       ncg     rms          rms(c)
DAV:   1    -0.191503678117E+03    0.90043E-02   -0.39999E-01  8160   0.139E+00    0.253E-01
DAV:   2    -0.191508345455E+03   -0.46673E-02   -0.21479E-02 12280   0.831E-01    0.724E-01
DAV:   3    -0.191503243443E+03    0.51020E-02   -0.10818E-02 11040   0.755E-01    0.215E-01
DAV:   4    -0.191502962808E+03    0.28063E-03   -0.19254E-03 10920   0.284E-01    0.168E-01
DAV:   5    -0.191502895161E+03    0.67647E-04   -0.15432E-03 10280   0.282E-01    0.176E-01
DAV:   6    -0.191502611709E+03    0.28345E-03   -0.91707E-04  9800   0.202E-01    0.898E-02
DAV:   7    -0.191502584351E+03    0.27358E-04   -0.37303E-04  7800   0.131E-01
  32 F= -.19150258E+03 E0= -.19139821E+03  d E =0.101075E-01
       N       E                     dE             d eps       ncg     rms          rms(c)
DAV:   1    -0.191546945882E+03   -0.44334E-01   -0.42008E+00  8160   0.439E+00    0.488E-01
DAV:   2    -0.191558131460E+03   -0.11186E-01   -0.11078E-01 12080   0.126E+00    0.919E-01
DAV:   3    -0.191553327176E+03    0.48043E-02   -0.33727E-02 12200   0.127E+00    0.619E-01
DAV:   4    -0.191549367503E+03    0.39597E-02   -0.81845E-03 11360   0.566E-01    0.202E-01
DAV:   5    -0.191548630079E+03    0.73742E-03   -0.28064E-03 11200   0.204E-01    0.117E-01
DAV:   6    -0.191548699499E+03   -0.69420E-04   -0.15608E-03 11040   0.203E-01    0.153E-01
DAV:   7    -0.191548490796E+03    0.20870E-03   -0.74765E-04  9040   0.201E-01    0.973E-02
DAV:   8    -0.191548401542E+03    0.89254E-04   -0.22950E-04  6960   0.100E-01
  33 F= -.19154840E+03 E0= -.19144622E+03  d E =-.458172E-01
       N       E                     dE             d eps       ncg     rms          rms(c)
DAV:   1    -0.191583912965E+03   -0.35422E-01   -0.26436E+00  8160   0.346E+00    0.365E-01
DAV:   2    -0.191589166744E+03   -0.52538E-02   -0.67876E-02 11600   0.883E-01    0.510E-01
DAV:   3    -0.191589365858E+03   -0.19911E-03   -0.16480E-02 11400   0.892E-01    0.556E-01
DAV:   4    -0.191586421073E+03    0.29448E-02   -0.61810E-03 11320   0.538E-01    0.185E-01
DAV:   5    -0.191586262815E+03    0.15826E-03   -0.24696E-03 11360   0.310E-01    0.209E-01
DAV:   6    -0.191586039078E+03    0.22374E-03   -0.18585E-03 10840   0.303E-01    0.139E-01
DAV:   7    -0.191585894571E+03    0.14451E-03   -0.61765E-04  8600   0.167E-01    0.991E-02
DAV:   8    -0.191585801488E+03    0.93083E-04   -0.24223E-04  7520   0.117E-01
  34 F= -.19158580E+03 E0= -.19148575E+03  d E =-.373999E-01
       N       E                     dE             d eps       ncg     rms          rms(c)
DAV:   1    -0.191626705099E+03   -0.40811E-01   -0.38189E+00  8160   0.415E+00    0.432E-01
DAV:   2    -0.191636423447E+03   -0.97183E-02   -0.10210E-01 11680   0.111E+00    0.710E-01
DAV:   3    -0.191634463989E+03    0.19595E-02   -0.26238E-02 12320   0.112E+00    0.608E-01
DAV:   4    -0.191630965256E+03    0.34987E-02   -0.76417E-03 11560   0.571E-01    0.197E-01
DAV:   5    -0.191630538244E+03    0.42701E-03   -0.24031E-03 11080   0.277E-01    0.186E-01
DAV:   6    -0.191630677926E+03   -0.13968E-03   -0.21207E-03 12000   0.342E-01    0.206E-01
DAV:   7    -0.191630292305E+03    0.38562E-03   -0.10672E-03  9880   0.235E-01    0.102E-01
DAV:   8    -0.191630192607E+03    0.99698E-04   -0.27547E-04  7840   0.121E-01
  35 F= -.19163019E+03 E0= -.19153293E+03  d E =-.443911E-01
       N       E                     dE             d eps       ncg     rms          rms(c)
DAV:   1    -0.191684224157E+03   -0.53932E-01   -0.86910E+00  8160   0.629E+00    0.678E-01
DAV:   2    -0.191712673105E+03   -0.28449E-01   -0.26305E-01 11960   0.188E+00    0.128E+00
DAV:   3    -0.191702454066E+03    0.10219E-01   -0.71313E-02 11800   0.185E+00    0.846E-01
DAV:   4    -0.191695091892E+03    0.73622E-02   -0.16798E-02 12280   0.798E-01    0.280E-01
DAV:   5    -0.191693615679E+03    0.14762E-02   -0.51827E-03 11000   0.292E-01    0.175E-01
DAV:   6    -0.191694210264E+03   -0.59458E-03   -0.38884E-03 12360   0.376E-01    0.274E-01
DAV:   7    -0.191693400021E+03    0.81024E-03   -0.19669E-03 10560   0.341E-01    0.122E-01
DAV:   8    -0.191693234110E+03    0.16591E-03   -0.45730E-04  8560   0.134E-01    0.553E-02
DAV:   9    -0.191693225318E+03    0.87921E-05   -0.14497E-04  6880   0.887E-02
  36 F= -.19169323E+03 E0= -.19159973E+03  d E =-.630327E-01
       N       E                     dE             d eps       ncg     rms          rms(c)
DAV:   1    -0.191721828850E+03   -0.28595E-01   -0.23023E+00  8160   0.322E+00    0.359E-01
DAV:   2    -0.191732776974E+03   -0.10948E-01   -0.78941E-02 12240   0.118E+00    0.827E-01
DAV:   3    -0.191726334872E+03    0.64421E-02   -0.23061E-02 11680   0.106E+00    0.364E-01
DAV:   4    -0.191725206495E+03    0.11284E-02   -0.39578E-03 10920   0.382E-01    0.184E-01
DAV:   5    -0.191725021487E+03    0.18501E-03   -0.19269E-03 11760   0.306E-01    0.186E-01
DAV:   6    -0.191724831432E+03    0.19006E-03   -0.13490E-03 10640   0.255E-01    0.112E-01
DAV:   7    -0.191724754584E+03    0.76848E-04   -0.58909E-04  8720   0.147E-01
  37 F= -.19172475E+03 E0= -.19163321E+03  d E =-.315293E-01
       N       E                     dE             d eps       ncg     rms          rms(c)
DAV:   1    -0.191726430869E+03   -0.15994E-02   -0.17011E-02  8160   0.309E-01    0.648E-02
DAV:   2    -0.191726740824E+03   -0.30995E-03   -0.13016E-03 10560   0.213E-01    0.182E-01
DAV:   3    -0.191726386054E+03    0.35477E-03   -0.66366E-04  8560   0.203E-01    0.534E-02
DAV:   4    -0.191726380802E+03    0.52517E-05   -0.13235E-04  5720   0.795E-02
  38 F= -.19172638E+03 E0= -.19163496E+03  d E =-.162622E-02
       N       E                     dE             d eps       ncg     rms          rms(c)
DAV:   1    -0.191759555951E+03   -0.33170E-01   -0.31099E+00  8160   0.378E+00    0.424E-01
DAV:   2    -0.191769864046E+03   -0.10308E-01   -0.95784E-02 12200   0.117E+00    0.787E-01
DAV:   3    -0.191765173827E+03    0.46902E-02   -0.27402E-02 12320   0.115E+00    0.492E-01
DAV:   4    -0.191762848038E+03    0.23258E-02   -0.76960E-03 12200   0.517E-01    0.201E-01
DAV:   5    -0.191762290979E+03    0.55706E-03   -0.30092E-03 11640   0.273E-01    0.162E-01
DAV:   6    -0.191762441457E+03   -0.15048E-03   -0.22239E-03 12560   0.330E-01    0.188E-01
DAV:   7    -0.191762013548E+03    0.42791E-03   -0.87263E-04  9440   0.204E-01    0.471E-02
DAV:   8    -0.191761972599E+03    0.40950E-04   -0.10673E-04  6800   0.481E-02
  39 F= -.19176197E+03 E0= -.19167257E+03  d E =-.355918E-01
       N       E                     dE             d eps       ncg     rms          rms(c)
DAV:   1    -0.191778831754E+03   -0.16818E-01   -0.61909E-01  8160   0.168E+00    0.186E-01
DAV:   2    -0.191781057906E+03   -0.22262E-02   -0.20445E-02 12680   0.507E-01    0.333E-01
DAV:   3    -0.191780162858E+03    0.89505E-03   -0.50487E-03 11440   0.481E-01    0.206E-01
DAV:   4    -0.191779834120E+03    0.32874E-03   -0.13019E-03  9680   0.227E-01    0.110E-01
DAV:   5    -0.191779768655E+03    0.65464E-04   -0.58777E-04  9080   0.181E-01
  40 F= -.19177977E+03 E0= -.19169148E+03  d E =-.177961E-01
       N       E                     dE             d eps       ncg     rms          rms(c)
DAV:   1    -0.191760605405E+03    0.19229E-01   -0.93279E-01  8160   0.209E+00    0.248E-01
DAV:   2    -0.191765540818E+03   -0.49354E-02   -0.30974E-02 13520   0.800E-01    0.611E-01
DAV:   3    -0.191761844079E+03    0.36967E-02   -0.12035E-02 12240   0.744E-01    0.234E-01
DAV:   4    -0.191761407582E+03    0.43650E-03   -0.22102E-03 11040   0.249E-01    0.122E-01
DAV:   5    -0.191761128302E+03    0.27928E-03   -0.69933E-04 10600   0.105E-01    0.517E-02
DAV:   6    -0.191761238427E+03   -0.11013E-03   -0.39839E-04  9360   0.129E-01    0.105E-01
DAV:   7    -0.191761114076E+03    0.12435E-03   -0.25124E-04  8360   0.126E-01    0.350E-02
DAV:   8    -0.191761105743E+03    0.83335E-05   -0.47132E-05  6280   0.465E-02
  41 F= -.19176111E+03 E0= -.19167156E+03  d E =0.186629E-01
       N       E                     dE             d eps       ncg     rms          rms(c)
DAV:   1    -0.191709894245E+03    0.51220E-01   -0.12547E+01  8160   0.769E+00    0.951E-01
DAV:   2    -0.191792516683E+03   -0.82622E-01   -0.43902E-01 13560   0.321E+00    0.276E+00
DAV:   3    -0.191725312291E+03    0.67204E-01   -0.23040E-01 11720   0.299E+00    0.748E-01
DAV:   4    -0.191722523663E+03    0.27886E-02   -0.23963E-02 12160   0.889E-01    0.603E-01
DAV:   5    -0.191720051437E+03    0.24722E-02   -0.15286E-02 11040   0.955E-01    0.566E-01
DAV:   6    -0.191718063953E+03    0.19875E-02   -0.10489E-02 11920   0.760E-01    0.328E-01
DAV:   7    -0.191717674683E+03    0.38927E-03   -0.41801E-03 11600   0.474E-01    0.291E-01
DAV:   8    -0.191716661915E+03    0.10128E-02   -0.16019E-03 10520   0.307E-01    0.577E-02
DAV:   9    -0.191716639659E+03    0.22256E-04   -0.22908E-04  7720   0.717E-02
  42 F= -.19171664E+03 E0= -.19162637E+03  d E =0.444661E-01
       N       E                     dE             d eps       ncg     rms          rms(c)
DAV:   1    -0.191722983875E+03   -0.63220E-02   -0.79488E-01  8160   0.191E+00    0.220E-01
DAV:   2    -0.191724969667E+03   -0.19858E-02   -0.26631E-02 11360   0.515E-01    0.266E-01
DAV:   3    -0.191725239956E+03   -0.27029E-03   -0.46890E-03 12240   0.515E-01    0.322E-01
DAV:   4    -0.191724143489E+03    0.10965E-02   -0.17259E-03 10640   0.330E-01    0.915E-02
DAV:   5    -0.191724128870E+03    0.14619E-04   -0.58699E-04  9880   0.112E-01
  43 F= -.19172413E+03 E0= -.19163529E+03  d E =-.748921E-02
       N       E                     dE             d eps       ncg     rms          rms(c)
DAV:   1    -0.191736047975E+03   -0.11904E-01   -0.10376E+00  8160   0.215E+00    0.245E-01
DAV:   2    -0.191742563885E+03   -0.65159E-02   -0.42610E-02 13560   0.907E-01    0.642E-01
DAV:   3    -0.191738508818E+03    0.40551E-02   -0.11859E-02 11960   0.773E-01    0.211E-01
DAV:   4    -0.191738026596E+03    0.48222E-03   -0.11989E-03  9600   0.189E-01    0.850E-02
DAV:   5    -0.191737990115E+03    0.36481E-04   -0.50022E-04 10200   0.109E-01
  44 F= -.19173799E+03 E0= -.19164945E+03  d E =-.138612E-01
       N       E                     dE             d eps       ncg     rms          rms(c)
DAV:   1    -0.191751505546E+03   -0.13479E-01   -0.12702E+00  8160   0.239E+00    0.329E-01
DAV:   2    -0.191768349014E+03   -0.16843E-01   -0.64027E-02 13600   0.144E+00    0.118E+00
DAV:   3    -0.191753130100E+03    0.15219E-01   -0.26634E-02 12200   0.124E+00    0.162E-01
DAV:   4    -0.191752816137E+03    0.31396E-03   -0.96047E-04 10120   0.120E-01    0.719E-02
DAV:   5    -0.191752871438E+03   -0.55302E-04   -0.58078E-04 11480   0.965E-02
  45 F= -.19175287E+03 E0= -.19166489E+03  d E =-.148813E-01
       N       E                     dE             d eps       ncg     rms          rms(c)
DAV:   1    -0.191774472477E+03   -0.21656E-01   -0.47848E+00  8160   0.462E+00    0.580E-01
DAV:   2    -0.191825737371E+03   -0.51265E-01   -0.21560E-01 13600   0.248E+00    0.206E+00
DAV:   3    -0.191782137242E+03    0.43600E-01   -0.88114E-02 11880   0.217E+00    0.354E-01
DAV:   4    -0.191782592924E+03   -0.45568E-03   -0.63330E-03 11480   0.569E-01    0.454E-01
DAV:   5    -0.191780614421E+03    0.19785E-02   -0.49831E-03 12320   0.570E-01    0.209E-01
DAV:   6    -0.191780660311E+03   -0.45890E-04   -0.22438E-03 11520   0.273E-01    0.168E-01
DAV:   7    -0.191780361147E+03    0.29916E-03   -0.12214E-03 10720   0.243E-01    0.125E-01
DAV:   8    -0.191780168174E+03    0.19297E-03   -0.39285E-04  9120   0.145E-01    0.254E-02
DAV:   9    -0.191780168843E+03   -0.66858E-06   -0.50961E-05  6320   0.339E-02
  46 F= -.19178017E+03 E0= -.19169340E+03  d E =-.272974E-01
       N       E                     dE             d eps       ncg     rms          rms(c)
DAV:   1    -0.191795783353E+03   -0.15615E-01   -0.20747E+00  8160   0.302E+00    0.376E-01
DAV:   2    -0.191817462504E+03   -0.21679E-01   -0.87615E-02 13600   0.166E+00    0.135E+00
DAV:   3    -0.191798372626E+03    0.19090E-01   -0.37928E-02 12040   0.142E+00    0.211E-01
DAV:   4    -0.191798471125E+03   -0.98498E-04   -0.25564E-03 11440   0.323E-01    0.253E-01
DAV:   5    -0.191797902659E+03    0.56847E-03   -0.17713E-03 11000   0.350E-01    0.148E-01
DAV:   6    -0.191797840725E+03    0.61934E-04   -0.98254E-04 10080   0.181E-01
  47 F= -.19179784E+03 E0= -.19171139E+03  d E =-.176719E-01
       N       E                     dE             d eps       ncg     rms          rms(c)
DAV:   1    -0.191794479689E+03    0.34230E-02   -0.67218E-02  8160   0.553E-01    0.810E-02
DAV:   2    -0.191795672809E+03   -0.11931E-02   -0.42427E-03 13360   0.386E-01    0.315E-01
DAV:   3    -0.191794534961E+03    0.11378E-02   -0.21303E-03 10160   0.332E-01    0.399E-02
DAV:   4    -0.191794541091E+03   -0.61300E-05   -0.82796E-05  5640   0.629E-02
  48 F= -.19179454E+03 E0= -.19170823E+03  d E =0.329963E-02
       N       E                     dE             d eps       ncg     rms          rms(c)
DAV:   1    -0.191793641969E+03    0.89299E-03   -0.33361E-02  8160   0.405E-01    0.102E-01
DAV:   2    -0.191794207995E+03   -0.56603E-03   -0.29529E-03 11680   0.343E-01    0.253E-01
DAV:   3    -0.191793471611E+03    0.73638E-03   -0.14949E-03 10120   0.297E-01    0.685E-02
DAV:   4    -0.191793491934E+03   -0.20322E-04   -0.34867E-04  8320   0.129E-01
  49 F= -.19179349E+03 E0= -.19170734E+03  d E =0.104916E-02
       N       E                     dE             d eps       ncg     rms          rms(c)
DAV:   1    -0.191805276140E+03   -0.11805E-01   -0.10955E+00  8160   0.220E+00    0.279E-01
DAV:   2    -0.191817244879E+03   -0.11969E-01   -0.49356E-02 13600   0.129E+00    0.995E-01
DAV:   3    -0.191806690859E+03    0.10554E-01   -0.20685E-02 12160   0.105E+00    0.149E-01
DAV:   4    -0.191806899555E+03   -0.20870E-03   -0.16036E-03 10760   0.286E-01    0.208E-01
DAV:   5    -0.191806428285E+03    0.47127E-03   -0.10709E-03 10160   0.271E-01    0.864E-02
DAV:   6    -0.191806542305E+03   -0.11402E-03   -0.52494E-04  8960   0.158E-01    0.122E-01
DAV:   7    -0.191806385144E+03    0.15716E-03   -0.41388E-04  8680   0.158E-01    0.471E-02
DAV:   8    -0.191806359491E+03    0.25653E-04   -0.64794E-05  5640   0.511E-02
  50 F= -.19180636E+03 E0= -.19172034E+03  d E =-.128676E-01
       N       E                     dE             d eps       ncg     rms          rms(c)
DAV:   1    -0.191818110306E+03   -0.11725E-01   -0.10656E+00  8160   0.217E+00    0.276E-01
DAV:   2    -0.191829393499E+03   -0.11283E-01   -0.48105E-02 13600   0.121E+00    0.970E-01
DAV:   3    -0.191819480379E+03    0.99131E-02   -0.20323E-02 12000   0.102E+00    0.150E-01
DAV:   4    -0.191819589570E+03   -0.10919E-03   -0.12991E-03 10600   0.251E-01    0.195E-01
DAV:   5    -0.191819232389E+03    0.35718E-03   -0.94549E-04 10120   0.262E-01    0.962E-02
DAV:   6    -0.191819243578E+03   -0.11189E-04   -0.42736E-04  8680   0.130E-01
  51 F= -.19181924E+03 E0= -.19173324E+03  d E =-.128841E-01
       N       E                     dE             d eps       ncg     rms          rms(c)
DAV:   1    -0.191814430286E+03    0.48021E-02   -0.17252E-01  8160   0.886E-01    0.125E-01
DAV:   2    -0.191817162823E+03   -0.27325E-02   -0.10155E-02 13040   0.582E-01    0.473E-01
DAV:   3    -0.191814593186E+03    0.25696E-02   -0.49094E-03 10600   0.502E-01    0.624E-02
DAV:   4    -0.191814609411E+03   -0.16225E-04   -0.25340E-04  7920   0.105E-01
  52 F= -.19181461E+03 E0= -.19172886E+03  d E =0.463417E-02
       N       E                     dE             d eps       ncg     rms          rms(c)
DAV:   1    -0.191810320698E+03    0.42725E-02   -0.14637E-01  8160   0.825E-01    0.164E-01
DAV:   2    -0.191812789222E+03   -0.24685E-02   -0.10734E-02 11360   0.651E-01    0.477E-01
DAV:   3    -0.191810166614E+03    0.26226E-02   -0.47369E-03 11600   0.522E-01    0.964E-02
DAV:   4    -0.191810257867E+03   -0.91253E-04   -0.74744E-04  8360   0.204E-01
  53 F= -.19181026E+03 E0= -.19172459E+03  d E =0.435154E-02
       N       E                     dE             d eps       ncg     rms          rms(c)
DAV:   1    -0.191823185943E+03   -0.13019E-01   -0.14102E+00  8160   0.249E+00    0.306E-01
DAV:   2    -0.191838512845E+03   -0.15327E-01   -0.62449E-02 13400   0.144E+00    0.113E+00
DAV:   3    -0.191824970292E+03    0.13543E-01   -0.26961E-02 12120   0.118E+00    0.157E-01
DAV:   4    -0.191825236265E+03   -0.26597E-03   -0.17466E-03 11200   0.301E-01    0.234E-01
DAV:   5    -0.191824659789E+03    0.57648E-03   -0.11250E-03 10040   0.284E-01    0.846E-02
DAV:   6    -0.191824741938E+03   -0.82149E-04   -0.51587E-04  9440   0.136E-01
  54 F= -.19182474E+03 E0= -.19173914E+03  d E =-.144841E-01
       N       E                     dE             d eps       ncg     rms          rms(c)
DAV:   1    -0.191811077537E+03    0.13582E-01   -0.10079E+00  8160   0.212E+00    0.274E-01
DAV:   2    -0.191822386474E+03   -0.11309E-01   -0.48227E-02 13600   0.122E+00    0.944E-01
DAV:   3    -0.191812358765E+03    0.10028E-01   -0.20698E-02 12200   0.103E+00    0.138E-01
DAV:   4    -0.191812213342E+03    0.14542E-03   -0.10611E-03 10040   0.166E-01    0.108E-01
DAV:   5    -0.191812194713E+03    0.18628E-04   -0.79849E-04 11360   0.214E-01
  55 F= -.19181219E+03 E0= -.19172681E+03  d E =0.125472E-01
       N       E                     dE             d eps       ncg     rms          rms(c)
DAV:   1    -0.191818957976E+03   -0.67446E-02   -0.42424E-01  8160   0.137E+00    0.160E-01
DAV:   2    -0.191822068060E+03   -0.31101E-02   -0.17378E-02 12840   0.592E-01    0.453E-01
DAV:   3    -0.191819827330E+03    0.22407E-02   -0.60285E-03 12120   0.556E-01    0.144E-01
DAV:   4    -0.191819638927E+03    0.18840E-03   -0.79053E-04  9040   0.149E-01    0.701E-02
DAV:   5    -0.191819608908E+03    0.30019E-04   -0.29736E-04  7960   0.121E-01
  56 F= -.19181961E+03 E0= -.19173453E+03  d E =-.741419E-02
       N       E                     dE             d eps       ncg     rms          rms(c)
DAV:   1    -0.191822327906E+03   -0.26890E-02   -0.47482E-02  8160   0.477E-01    0.963E-02
DAV:   2    -0.191823664450E+03   -0.13365E-02   -0.41639E-03 12760   0.417E-01    0.346E-01
DAV:   3    -0.191822272745E+03    0.13917E-02   -0.23667E-03 10080   0.370E-01    0.476E-02
DAV:   4    -0.191822280761E+03   -0.80163E-05   -0.13467E-04  5920   0.636E-02
  57 F= -.19182228E+03 E0= -.19173708E+03  d E =-.267185E-02
       N       E                     dE             d eps       ncg     rms          rms(c)
DAV:   1    -0.191850489919E+03   -0.28217E-01   -0.50112E+00  8160   0.481E+00    0.718E-01
DAV:   2    -0.191907154742E+03   -0.56665E-01   -0.25267E-01 13360   0.280E+00    0.238E+00
DAV:   3    -0.191852395159E+03    0.54760E-01   -0.13049E-01 12240   0.248E+00    0.444E-01
DAV:   4    -0.191854384187E+03   -0.19890E-02   -0.14098E-02 12160   0.896E-01    0.712E-01
DAV:   5    -0.191849102527E+03    0.52817E-02   -0.10933E-02 11920   0.881E-01    0.264E-01
DAV:   6    -0.191848513327E+03    0.58920E-03   -0.33030E-03 11720   0.310E-01    0.137E-01
DAV:   7    -0.191848354799E+03    0.15853E-03   -0.12876E-03 11440   0.227E-01    0.120E-01
DAV:   8    -0.191848188468E+03    0.16633E-03   -0.42178E-04  9040   0.158E-01    0.492E-02
DAV:   9    -0.191848149436E+03    0.39032E-04   -0.10078E-04  6320   0.600E-02
  58 F= -.19184815E+03 E0= -.19176205E+03  d E =-.258687E-01
       N       E                     dE             d eps       ncg     rms          rms(c)
DAV:   1    -0.191853065067E+03   -0.48766E-02   -0.10673E-01  8160   0.711E-01    0.123E-01
DAV:   2    -0.191853966102E+03   -0.90104E-03   -0.61392E-03 11600   0.432E-01    0.291E-01
DAV:   3    -0.191853047583E+03    0.91852E-03   -0.22455E-03 12040   0.359E-01    0.943E-02
DAV:   4    -0.191853050518E+03   -0.29352E-05   -0.47816E-04  8280   0.162E-01
  59 F= -.19185305E+03 E0= -.19176699E+03  d E =-.490108E-02
       N       E                     dE             d eps       ncg     rms          rms(c)
DAV:   1    -0.191870091610E+03   -0.17044E-01   -0.18119E+00  8160   0.287E+00    0.371E-01
DAV:   2    -0.191883239319E+03   -0.13148E-01   -0.78267E-02 12560   0.140E+00    0.101E+00
DAV:   3    -0.191873039375E+03    0.10200E-01   -0.27673E-02 12200   0.118E+00    0.300E-01
DAV:   4    -0.191872682424E+03    0.35695E-03   -0.36309E-03 10920   0.438E-01    0.267E-01
DAV:   5    -0.191872109976E+03    0.57245E-03   -0.27884E-03 11320   0.415E-01    0.183E-01
DAV:   6    -0.191871882422E+03    0.22755E-03   -0.12389E-03 11560   0.227E-01    0.113E-01
DAV:   7    -0.191871891880E+03   -0.94582E-05   -0.73319E-04  8920   0.221E-01
  60 F= -.19187189E+03 E0= -.19178649E+03  d E =-.188414E-01
       N       E                     dE             d eps       ncg     rms          rms(c)
DAV:   1    -0.191877187942E+03   -0.53055E-02   -0.14208E-01  8160   0.812E-01    0.110E-01
DAV:   2    -0.191878489381E+03   -0.13014E-02   -0.61696E-03 12840   0.400E-01    0.335E-01
DAV:   3    -0.191877320016E+03    0.11694E-02   -0.25962E-03 10720   0.362E-01    0.700E-02
DAV:   4    -0.191877319521E+03    0.49421E-06   -0.18602E-04  6000   0.929E-02
  61 F= -.19187732E+03 E0= -.19179215E+03  d E =-.542764E-02
       N       E                     dE             d eps       ncg     rms          rms(c)
DAV:   1    -0.191887875591E+03   -0.10556E-01   -0.50230E-01  8160   0.153E+00    0.210E-01
DAV:   2    -0.191890987599E+03   -0.31120E-02   -0.19270E-02 12520   0.663E-01    0.536E-01
DAV:   3    -0.191888332960E+03    0.26546E-02   -0.70100E-03 12120   0.605E-01    0.165E-01
DAV:   4    -0.191887997356E+03    0.33560E-03   -0.80181E-04 10080   0.163E-01    0.707E-02
DAV:   5    -0.191888044235E+03   -0.46879E-04   -0.52922E-04 10600   0.139E-01
  62 F= -.19188804E+03 E0= -.19180280E+03  d E =-.107247E-01
       N       E                     dE             d eps       ncg     rms          rms(c)
DAV:   1    -0.191890328524E+03   -0.23312E-02   -0.35265E-02  8160   0.431E-01    0.703E-02
DAV:   2    -0.191890862735E+03   -0.53421E-03   -0.22095E-03 12480   0.272E-01    0.209E-01
DAV:   3    -0.191890361354E+03    0.50138E-03   -0.89083E-04  9760   0.241E-01    0.476E-02
DAV:   4    -0.191890359753E+03    0.16011E-05   -0.10219E-04  5520   0.645E-02
  63 F= -.19189036E+03 E0= -.19180514E+03  d E =-.231552E-02
       N       E                     dE             d eps       ncg     rms          rms(c)
DAV:   1    -0.191906620915E+03   -0.16260E-01   -0.93442E-01  8160   0.207E+00    0.265E-01
DAV:   2    -0.191914051283E+03   -0.74304E-02   -0.36021E-02 12720   0.101E+00    0.767E-01
DAV:   3    -0.191907449948E+03    0.66013E-02   -0.14793E-02 12000   0.880E-01    0.175E-01
DAV:   4    -0.191907686575E+03   -0.23663E-03   -0.18601E-03  9840   0.307E-01    0.231E-01
DAV:   5    -0.191907194141E+03    0.49243E-03   -0.14031E-03 10480   0.299E-01    0.113E-01
DAV:   6    -0.191907208233E+03   -0.14092E-04   -0.59384E-04  9120   0.176E-01
  64 F= -.19190721E+03 E0= -.19182268E+03  d E =-.168485E-01
       N       E                     dE             d eps       ncg     rms          rms(c)
DAV:   1    -0.191860996383E+03    0.46198E-01   -0.62839E+00  8160   0.541E+00    0.610E-01
DAV:   2    -0.191884618851E+03   -0.23622E-01   -0.19504E-01 12720   0.180E+00    0.121E+00
DAV:   3    -0.191870689635E+03    0.13929E-01   -0.57785E-02 12080   0.170E+00    0.553E-01
DAV:   4    -0.191867734419E+03    0.29552E-02   -0.87017E-03 12320   0.608E-01    0.284E-01
DAV:   5    -0.191868242527E+03   -0.50811E-03   -0.63176E-03 11600   0.576E-01    0.418E-01
DAV:   6    -0.191867116360E+03    0.11262E-02   -0.51557E-03 12480   0.534E-01    0.220E-01
DAV:   7    -0.191866660186E+03    0.45617E-03   -0.17882E-03 10720   0.279E-01    0.123E-01
DAV:   8    -0.191866480951E+03    0.17923E-03   -0.46740E-04  9440   0.166E-01    0.518E-02
DAV:   9    -0.191866452207E+03    0.28744E-04   -0.91809E-05  6320   0.635E-02
  65 F= -.19186645E+03 E0= -.19178066E+03  d E =0.407560E-01
       N       E                     dE             d eps       ncg     rms          rms(c)
DAV:   1    -0.191858444323E+03    0.80366E-02   -0.13439E+00  8160   0.251E+00    0.298E-01
DAV:   2    -0.191861106758E+03   -0.26624E-02   -0.29475E-02 11800   0.652E-01    0.451E-01
DAV:   3    -0.191859767920E+03    0.13388E-02   -0.88806E-03 12520   0.732E-01    0.323E-01
DAV:   4    -0.191859256602E+03    0.51132E-03   -0.32904E-03 11000   0.410E-01    0.245E-01
DAV:   5    -0.191858771921E+03    0.48468E-03   -0.20984E-03 10800   0.355E-01    0.152E-01
DAV:   6    -0.191858558534E+03    0.21339E-03   -0.70500E-04 10160   0.161E-01    0.438E-02
DAV:   7    -0.191858524075E+03    0.34459E-04   -0.13577E-04  6840   0.466E-02
  66 F= -.19185852E+03 E0= -.19177300E+03  d E =0.792813E-02
       N       E                     dE             d eps       ncg     rms          rms(c)
DAV:   1    -0.191862078960E+03   -0.35204E-02   -0.20163E-01  8160   0.967E-01    0.143E-01
DAV:   2    -0.191864441615E+03   -0.23627E-02   -0.10927E-02 12440   0.584E-01    0.453E-01
DAV:   3    -0.191862217107E+03    0.22245E-02   -0.47329E-03 11960   0.489E-01    0.842E-02
DAV:   4    -0.191862262458E+03   -0.45351E-04   -0.44833E-04  8520   0.155E-01
  67 F= -.19186226E+03 E0= -.19177651E+03  d E =-.373838E-02
       N       E                     dE             d eps       ncg     rms          rms(c)
DAV:   1    -0.191871465414E+03   -0.92483E-02   -0.73950E-01  8160   0.182E+00    0.248E-01
DAV:   2    -0.191880683448E+03   -0.92180E-02   -0.36474E-02 13400   0.982E-01    0.907E-01
DAV:   3    -0.191872244518E+03    0.84389E-02   -0.17988E-02 11800   0.929E-01    0.158E-01
DAV:   4    -0.191872252022E+03   -0.75039E-05   -0.13763E-03 10840   0.236E-01    0.167E-01
DAV:   5    -0.191872034798E+03    0.21722E-03   -0.99764E-04 10640   0.248E-01    0.113E-01
DAV:   6    -0.191871942742E+03    0.92055E-04   -0.39737E-04  8640   0.144E-01
  68 F= -.19187194E+03 E0= -.19178641E+03  d E =-.968028E-02
       N       E                     dE             d eps       ncg     rms          rms(c)
DAV:   1    -0.191873153495E+03   -0.11187E-02   -0.12213E-02  8160   0.261E-01    0.751E-02
DAV:   2    -0.191874107138E+03   -0.95364E-03   -0.22413E-03 11160   0.374E-01    0.281E-01
DAV:   3    -0.191873097974E+03    0.10092E-02   -0.12885E-03 10080   0.307E-01    0.371E-02
DAV:   4    -0.191873113656E+03   -0.15682E-04   -0.70064E-05  5560   0.635E-02
  69 F= -.19187311E+03 E0= -.19178736E+03  d E =-.117091E-02
       N       E                     dE             d eps       ncg     rms          rms(c)
DAV:   1    -0.191883760770E+03   -0.10663E-01   -0.98301E-01  8160   0.210E+00    0.275E-01
DAV:   2    -0.191894350580E+03   -0.10590E-01   -0.44196E-02 13480   0.110E+00    0.977E-01
DAV:   3    -0.191884679753E+03    0.96708E-02   -0.21235E-02 11640   0.999E-01    0.178E-01
DAV:   4    -0.191884781827E+03   -0.10207E-03   -0.19444E-03 11240   0.291E-01    0.212E-01
DAV:   5    -0.191884367982E+03    0.41384E-03   -0.13138E-03 10440   0.290E-01    0.116E-01
DAV:   6    -0.191884279907E+03    0.88075E-04   -0.51926E-04  9000   0.158E-01
  70 F= -.19188428E+03 E0= -.19179846E+03  d E =-.111663E-01
       N       E                     dE             d eps       ncg     rms          rms(c)
DAV:   1    -0.191880172425E+03    0.41956E-02   -0.14229E-01  8160   0.804E-01    0.126E-01
DAV:   2    -0.191882333355E+03   -0.21609E-02   -0.81076E-03 12680   0.535E-01    0.418E-01
DAV:   3    -0.191880200075E+03    0.21333E-02   -0.38520E-03 11040   0.454E-01    0.804E-02
DAV:   4    -0.191880199391E+03    0.68449E-06   -0.39442E-04  8240   0.137E-01
  71 F= -.19188020E+03 E0= -.19179460E+03  d E =0.408052E-02
       N       E                     dE             d eps       ncg     rms          rms(c)
DAV:   1    -0.191881794085E+03   -0.15940E-02   -0.40794E-02  8160   0.449E-01    0.603E-02
DAV:   2    -0.191882021043E+03   -0.22696E-03   -0.16586E-03 12800   0.190E-01    0.133E-01
DAV:   3    -0.191881841484E+03    0.17956E-03   -0.58621E-04  8800   0.178E-01    0.535E-02
DAV:   4    -0.191881825035E+03    0.16449E-04   -0.11320E-04  5520   0.654E-02
  72 F= -.19188183E+03 E0= -.19179609E+03  d E =-.162564E-02
       N       E                     dE             d eps       ncg     rms          rms(c)
DAV:   1    -0.191886421519E+03   -0.45800E-02   -0.21164E-01  8160   0.984E-01    0.143E-01
DAV:   2    -0.191889488274E+03   -0.30668E-02   -0.11799E-02 12360   0.613E-01    0.524E-01
DAV:   3    -0.191886686228E+03    0.28020E-02   -0.53676E-03 11280   0.528E-01    0.834E-02
DAV:   4    -0.191886736407E+03   -0.50178E-04   -0.42008E-04  8280   0.148E-01
  73 F= -.19188674E+03 E0= -.19180097E+03  d E =-.491137E-02
       N       E                     dE             d eps       ncg     rms          rms(c)
DAV:   1    -0.191889887973E+03   -0.32017E-02   -0.18054E-01  8160   0.929E-01    0.116E-01
DAV:   2    -0.191890661586E+03   -0.77361E-03   -0.57701E-03 13080   0.295E-01    0.234E-01
DAV:   3    -0.191890094596E+03    0.56699E-03   -0.20798E-03 11160   0.310E-01    0.116E-01
DAV:   4    -0.191890054461E+03    0.40134E-04   -0.47024E-04  8480   0.152E-01
  74 F= -.19189005E+03 E0= -.19180421E+03  d E =-.331805E-02
       N       E                     dE             d eps       ncg     rms          rms(c)
DAV:   1    -0.191892892491E+03   -0.27979E-02   -0.98114E-02  8160   0.690E-01    0.122E-01
DAV:   2    -0.191894511309E+03   -0.16188E-02   -0.59599E-03 13040   0.439E-01    0.395E-01
DAV:   3    -0.191892871299E+03    0.16400E-02   -0.35658E-03 12080   0.426E-01    0.961E-02
DAV:   4    -0.191892836487E+03    0.34812E-04   -0.39565E-04  8200   0.126E-01
  75 F= -.19189284E+03 E0= -.19180705E+03  d E =-.278203E-02
       N       E                     dE             d eps       ncg     rms          rms(c)
DAV:   1    -0.191898024720E+03   -0.51534E-02   -0.31786E-01  8160   0.122E+00    0.160E-01
DAV:   2    -0.191900746590E+03   -0.27219E-02   -0.13507E-02 13200   0.534E-01    0.478E-01
DAV:   3    -0.191898495137E+03    0.22515E-02   -0.55890E-03 11600   0.512E-01    0.133E-01
DAV:   4    -0.191898400434E+03    0.94704E-04   -0.58842E-04  8640   0.151E-01
  76 F= -.19189840E+03 E0= -.19181280E+03  d E =-.556395E-02
       N       E                     dE             d eps       ncg     rms          rms(c)
DAV:   1    -0.191910151188E+03   -0.11656E-01   -0.10523E+00  8160   0.219E+00    0.319E-01
DAV:   2    -0.191923730116E+03   -0.13579E-01   -0.51622E-02 13560   0.129E+00    0.113E+00
DAV:   3    -0.191910949796E+03    0.12780E-01   -0.27801E-02 12080   0.116E+00    0.239E-01
DAV:   4    -0.191910923940E+03    0.25856E-04   -0.31057E-03 10560   0.395E-01    0.249E-01
DAV:   5    -0.191910343910E+03    0.58003E-03   -0.18101E-03 12160   0.324E-01    0.116E-01
DAV:   6    -0.191910228750E+03    0.11516E-03   -0.64089E-04 10520   0.158E-01    0.820E-02
DAV:   7    -0.191910272699E+03   -0.43949E-04   -0.42105E-04  9000   0.168E-01
  77 F= -.19191027E+03 E0= -.19182430E+03  d E =-.118723E-01
       N       E                     dE             d eps       ncg     rms          rms(c)
DAV:   1    -0.191912421224E+03   -0.21925E-02   -0.38818E-02  8160   0.436E-01    0.734E-02
DAV:   2    -0.191912806725E+03   -0.38550E-03   -0.21945E-03 11760   0.237E-01    0.199E-01
DAV:   3    -0.191912409021E+03    0.39770E-03   -0.10223E-03  9960   0.218E-01    0.605E-02
DAV:   4    -0.191912392522E+03    0.16499E-04   -0.15239E-04  5760   0.798E-02
  78 F= -.19191239E+03 E0= -.19182636E+03  d E =-.211982E-02
       N       E                     dE             d eps       ncg     rms          rms(c)
DAV:   1    -0.191922949321E+03   -0.10540E-01   -0.82076E-01  8160   0.193E+00    0.251E-01
DAV:   2    -0.191929971605E+03   -0.70223E-02   -0.32674E-02 13360   0.908E-01    0.808E-01
DAV:   3    -0.191923694380E+03    0.62772E-02   -0.14889E-02 12160   0.839E-01    0.191E-01
DAV:   4    -0.191923626839E+03    0.67540E-04   -0.19284E-03 10680   0.270E-01    0.176E-01
DAV:   5    -0.191923330068E+03    0.29677E-03   -0.12267E-03 11120   0.262E-01    0.108E-01
DAV:   6    -0.191923236750E+03    0.93318E-04   -0.46319E-04  9520   0.146E-01
  79 F= -.19192324E+03 E0= -.19183716E+03  d E =-.108442E-01
       N       E                     dE             d eps       ncg     rms          rms(c)
DAV:   1    -0.191924099704E+03   -0.76964E-03   -0.52010E-03  8360   0.181E-01    0.599E-02
DAV:   2    -0.191924793652E+03   -0.69395E-03   -0.13556E-03 11040   0.307E-01    0.248E-01
DAV:   3    -0.191924056083E+03    0.73757E-03   -0.82403E-04  9760   0.256E-01    0.228E-02
DAV:   4    -0.191924070604E+03   -0.14521E-04   -0.39327E-05  5520   0.425E-02
  80 F= -.19192407E+03 E0= -.19183783E+03  d E =-.833854E-03
       N       E                     dE             d eps       ncg     rms          rms(c)
DAV:   1    -0.191936597720E+03   -0.12542E-01   -0.11522E+00  8160   0.229E+00    0.297E-01
DAV:   2    -0.191944760892E+03   -0.81632E-02   -0.45865E-02 12960   0.110E+00    0.818E-01
DAV:   3    -0.191937928720E+03    0.68322E-02   -0.18601E-02 12360   0.954E-01    0.278E-01
DAV:   4    -0.191937717450E+03    0.21127E-03   -0.32636E-03 10520   0.403E-01    0.240E-01
DAV:   5    -0.191937240179E+03    0.47727E-03   -0.19258E-03 10480   0.334E-01    0.145E-01
DAV:   6    -0.191937025608E+03    0.21457E-03   -0.77019E-04 10640   0.163E-01    0.648E-02
DAV:   7    -0.191937053405E+03   -0.27797E-04   -0.30530E-04  7680   0.126E-01
  81 F= -.19193705E+03 E0= -.19185097E+03  d E =-.129828E-01
       N       E                     dE             d eps       ncg     rms          rms(c)
DAV:   1    -0.191935948522E+03    0.10771E-02   -0.30324E-02  8160   0.387E-01    0.762E-02
DAV:   2    -0.191936309212E+03   -0.36069E-03   -0.18076E-03 11760   0.271E-01    0.195E-01
DAV:   3    -0.191935866284E+03    0.44293E-03   -0.76175E-04  9360   0.230E-01    0.484E-02
DAV:   4    -0.191935851674E+03    0.14610E-04   -0.14650E-04  6040   0.809E-02
  82 F= -.19193585E+03 E0= -.19184971E+03  d E =0.120173E-02
       N       E                     dE             d eps       ncg     rms          rms(c)
DAV:   1    -0.191944172059E+03   -0.83058E-02   -0.48666E-01  8160   0.151E+00    0.223E-01
DAV:   2    -0.191950147341E+03   -0.59753E-02   -0.25444E-02 12560   0.889E-01    0.769E-01
DAV:   3    -0.191944428364E+03    0.57190E-02   -0.12186E-02 11760   0.762E-01    0.145E-01
DAV:   4    -0.191944709327E+03   -0.28096E-03   -0.15642E-03 10400   0.294E-01    0.228E-01
DAV:   5    -0.191944143736E+03    0.56559E-03   -0.10511E-03 10000   0.269E-01    0.695E-02
DAV:   6    -0.191944168716E+03   -0.24980E-04   -0.36701E-04  8600   0.130E-01
  83 F= -.19194417E+03 E0= -.19185816E+03  d E =-.831704E-02
       N       E                     dE             d eps       ncg     rms          rms(c)
DAV:   1    -0.191950429793E+03   -0.62861E-02   -0.24710E-01  8160   0.107E+00    0.161E-01
DAV:   2    -0.191952863672E+03   -0.24339E-02   -0.11561E-02 12600   0.626E-01    0.439E-01
DAV:   3    -0.191950538669E+03    0.23250E-02   -0.41388E-03 12080   0.518E-01    0.106E-01
DAV:   4    -0.191950746226E+03   -0.20756E-03   -0.90847E-04  8840   0.224E-01    0.178E-01
DAV:   5    -0.191950447640E+03    0.29859E-03   -0.65039E-04  8840   0.186E-01    0.602E-02
DAV:   6    -0.191950453685E+03   -0.60450E-05   -0.23079E-04  6680   0.924E-02
  84 F= -.19195045E+03 E0= -.19186430E+03  d E =-.628497E-02
       N       E                     dE             d eps       ncg     rms          rms(c)
DAV:   1    -0.191960892826E+03   -0.10445E-01   -0.65448E-01  8160   0.174E+00    0.223E-01
DAV:   2    -0.191964985711E+03   -0.40929E-02   -0.24240E-02 12720   0.785E-01    0.569E-01
DAV:   3    -0.191961605713E+03    0.33800E-02   -0.86972E-03 12280   0.683E-01    0.196E-01
DAV:   4    -0.191961822465E+03   -0.21675E-03   -0.20212E-03 10080   0.336E-01    0.237E-01
DAV:   5    -0.191961233331E+03    0.58913E-03   -0.12009E-03 10080   0.267E-01    0.768E-02
DAV:   6    -0.191961236390E+03   -0.30588E-05   -0.34941E-04  8400   0.104E-01
  85 F= -.19196124E+03 E0= -.19187583E+03  d E =-.107827E-01
       N       E                     dE             d eps       ncg     rms          rms(c)
DAV:   1    -0.191962952118E+03   -0.17188E-02   -0.16916E-02  8160   0.309E-01    0.841E-02
DAV:   2    -0.191964294380E+03   -0.13423E-02   -0.28217E-03 11760   0.426E-01    0.339E-01
DAV:   3    -0.191962882073E+03    0.14123E-02   -0.16010E-03 10080   0.352E-01    0.259E-02
DAV:   4    -0.191962915124E+03   -0.33051E-04   -0.72675E-05  5720   0.586E-02
  86 F= -.19196292E+03 E0= -.19187729E+03  d E =-.167873E-02
       N       E                     dE             d eps       ncg     rms          rms(c)
DAV:   1    -0.191971940820E+03   -0.90587E-02   -0.44385E-01  8160   0.144E+00    0.181E-01
DAV:   2    -0.191974743133E+03   -0.28023E-02   -0.16617E-02 12680   0.637E-01    0.481E-01
DAV:   3    -0.191972511296E+03    0.22318E-02   -0.58620E-03 12160   0.544E-01    0.155E-01
DAV:   4    -0.191972636318E+03   -0.12502E-03   -0.12057E-03  9680   0.259E-01    0.180E-01
DAV:   5    -0.191972279180E+03    0.35714E-03   -0.73921E-04 10080   0.221E-01    0.660E-02
DAV:   6    -0.191972314069E+03   -0.34888E-04   -0.27692E-04  7760   0.115E-01
  87 F= -.19197231E+03 E0= -.19188745E+03  d E =-.939895E-02
       N       E                     dE             d eps       ncg     rms          rms(c)
DAV:   1    -0.191974708798E+03   -0.24296E-02   -0.78792E-02  8160   0.684E-01    0.149E-01
DAV:   2    -0.191975001366E+03   -0.29257E-03   -0.41963E-03 11560   0.352E-01    0.264E-01
DAV:   3    -0.191974341414E+03    0.65995E-03   -0.22511E-03 10280   0.396E-01    0.156E-01
DAV:   4    -0.191974094905E+03    0.24651E-03   -0.69313E-04  9040   0.178E-01    0.905E-02
DAV:   5    -0.191974152892E+03   -0.57987E-04   -0.65548E-04  9360   0.182E-01
  88 F= -.19197415E+03 E0= -.19188933E+03  d E =-.183882E-02
       N       E                     dE             d eps       ncg     rms          rms(c)
DAV:   1    -0.191987483851E+03   -0.13389E-01   -0.78308E-01  8160   0.192E+00    0.235E-01
DAV:   2    -0.191989173347E+03   -0.16895E-02   -0.24348E-02 12600   0.613E-01    0.315E-01
DAV:   3    -0.191988651434E+03    0.52191E-03   -0.51942E-03 12160   0.558E-01    0.259E-01
DAV:   4    -0.191988318612E+03    0.33282E-03   -0.24192E-03 10480   0.365E-01    0.227E-01
DAV:   5    -0.191987967783E+03    0.35083E-03   -0.15586E-03 10000   0.294E-01    0.138E-01
DAV:   6    -0.191987823293E+03    0.14449E-03   -0.65194E-04  9960   0.148E-01    0.643E-02
DAV:   7    -0.191987814812E+03    0.84817E-05   -0.25825E-04  7080   0.117E-01
  89 F= -.19198781E+03 E0= -.19190362E+03  d E =-.136619E-01
       N       E                     dE             d eps       ncg     rms          rms(c)
DAV:   1    -0.191992849957E+03   -0.50267E-02   -0.12331E-01  8160   0.759E-01    0.103E-01
DAV:   2    -0.191993734950E+03   -0.88499E-03   -0.46459E-03 12680   0.366E-01    0.256E-01
DAV:   3    -0.191992956959E+03    0.77799E-03   -0.14812E-03 10880   0.313E-01    0.725E-02
DAV:   4    -0.191992977172E+03   -0.20213E-04   -0.29640E-04  7520   0.120E-01
  90 F= -.19199298E+03 E0= -.19190859E+03  d E =-.516236E-02
       N       E                     dE             d eps       ncg     rms          rms(c)
DAV:   1    -0.191998891206E+03   -0.59342E-02   -0.16574E-01  8160   0.897E-01    0.135E-01
DAV:   2    -0.192000219394E+03   -0.13282E-02   -0.76314E-03 12360   0.401E-01    0.351E-01
DAV:   3    -0.191999077432E+03    0.11420E-02   -0.31223E-03 11120   0.389E-01    0.122E-01
DAV:   4    -0.191999055612E+03    0.21820E-04   -0.52760E-04  8280   0.159E-01
  91 F= -.19199906E+03 E0= -.19191557E+03  d E =-.607844E-02
       N       E                     dE             d eps       ncg     rms          rms(c)
DAV:   1    -0.192006715706E+03   -0.76383E-02   -0.55050E-01  8160   0.169E+00    0.326E-01
DAV:   2    -0.192009546157E+03   -0.28305E-02   -0.24775E-02 12400   0.869E-01    0.630E-01
DAV:   3    -0.192005400583E+03    0.41456E-02   -0.11185E-02 11880   0.900E-01    0.301E-01
DAV:   4    -0.192004448407E+03    0.95218E-03   -0.31243E-03 11280   0.364E-01    0.153E-01
DAV:   5    -0.192004501014E+03   -0.52607E-04   -0.21685E-03 12560   0.302E-01    0.226E-01
DAV:   6    -0.192004059784E+03    0.44123E-03   -0.14441E-03 10040   0.272E-01    0.102E-01
DAV:   7    -0.192003939405E+03    0.12038E-03   -0.31235E-04  6640   0.101E-01    0.368E-02
DAV:   8    -0.192003936738E+03    0.26677E-05   -0.77843E-05  6400   0.728E-02
  92 F= -.19200394E+03 E0= -.19191934E+03  d E =-.488113E-02
       N       E                     dE             d eps       ncg     rms          rms(c)
DAV:   1    -0.192023668285E+03   -0.19729E-01   -0.10319E+00  8160   0.224E+00    0.330E-01
DAV:   2    -0.192025654100E+03   -0.19858E-02   -0.37191E-02 11840   0.800E-01    0.464E-01
DAV:   3    -0.192024281106E+03    0.13730E-02   -0.91584E-03 11840   0.754E-01    0.349E-01
DAV:   4    -0.192023958654E+03    0.32245E-03   -0.52137E-03 10480   0.495E-01    0.348E-01
DAV:   5    -0.192022927588E+03    0.10311E-02   -0.33399E-03 11600   0.457E-01    0.171E-01
DAV:   6    -0.192022590071E+03    0.33752E-03   -0.11499E-03 10760   0.201E-01    0.534E-02
DAV:   7    -0.192022559642E+03    0.30430E-04   -0.19891E-04  7720   0.690E-02
  93 F= -.19202256E+03 E0= -.19194002E+03  d E =-.186229E-01
       N       E                     dE             d eps       ncg     rms          rms(c)
DAV:   1    -0.192039786675E+03   -0.17197E-01   -0.74253E-01  8160   0.185E+00    0.231E-01
DAV:   2    -0.192043346788E+03   -0.35601E-02   -0.20398E-02 12720   0.720E-01    0.539E-01
DAV:   3    -0.192040378404E+03    0.29684E-02   -0.68651E-03 11600   0.640E-01    0.197E-01
DAV:   4    -0.192040559580E+03   -0.18118E-03   -0.20111E-03  9960   0.316E-01    0.228E-01
DAV:   5    -0.192040054813E+03    0.50477E-03   -0.13428E-03 10160   0.302E-01    0.105E-01
DAV:   6    -0.192040026573E+03    0.28240E-04   -0.47683E-04  8760   0.157E-01
  94 F= -.19204003E+03 E0= -.19195807E+03  d E =-.174669E-01
       N       E                     dE             d eps       ncg     rms          rms(c)
DAV:   1    -0.191984324782E+03    0.55730E-01   -0.10706E+01  8160   0.709E+00    0.924E-01
DAV:   2    -0.192075928909E+03   -0.91604E-01   -0.35183E-01 12240   0.332E+00    0.314E+00
DAV:   3    -0.191994340319E+03    0.81589E-01   -0.24968E-01 11960   0.319E+00    0.830E-01
DAV:   4    -0.191996226088E+03   -0.18858E-02   -0.33124E-02 11680   0.140E+00    0.945E-01
DAV:   5    -0.191986444186E+03    0.97819E-02   -0.18201E-02 11040   0.111E+00    0.345E-01
DAV:   6    -0.191985999578E+03    0.44461E-03   -0.72067E-03 11280   0.548E-01    0.310E-01
DAV:   7    -0.191985466616E+03    0.53296E-03   -0.45101E-03 10880   0.540E-01    0.229E-01
DAV:   8    -0.191984675028E+03    0.79159E-03   -0.10832E-03 10440   0.245E-01    0.421E-02
DAV:   9    -0.191984668186E+03    0.68420E-05   -0.13883E-04  6000   0.455E-02
  95 F= -.19198467E+03 E0= -.19190089E+03  d E =0.553584E-01
       N       E                     dE             d eps       ncg     rms          rms(c)
DAV:   1    -0.191982259292E+03    0.24157E-02   -0.12669E+00  8160   0.244E+00    0.284E-01
DAV:   2    -0.191985290027E+03   -0.30307E-02   -0.28822E-02 12400   0.671E-01    0.533E-01
DAV:   3    -0.191983490346E+03    0.17997E-02   -0.96852E-03 11120   0.683E-01    0.321E-01
DAV:   4    -0.191982873904E+03    0.61644E-03   -0.26397E-03 11480   0.360E-01    0.210E-01
DAV:   5    -0.191982495772E+03    0.37813E-03   -0.17406E-03 10160   0.343E-01    0.141E-01
DAV:   6    -0.191982385081E+03    0.11069E-03   -0.70991E-04 10200   0.193E-01    0.875E-02
DAV:   7    -0.191982331071E+03    0.54011E-04   -0.34974E-04  9240   0.157E-01
  96 F= -.19198233E+03 E0= -.19189873E+03  d E =0.233711E-02
       N       E                     dE             d eps       ncg     rms          rms(c)
DAV:   1    -0.191991074096E+03   -0.86890E-02   -0.65442E-01  8160   0.175E+00    0.224E-01
DAV:   2    -0.191995415856E+03   -0.43418E-02   -0.25928E-02 13080   0.761E-01    0.586E-01
DAV:   3    -0.191992152271E+03    0.32636E-02   -0.79385E-03 12200   0.679E-01    0.201E-01
DAV:   4    -0.191992254536E+03   -0.10227E-03   -0.18337E-03 10000   0.299E-01    0.225E-01
DAV:   5    -0.191991739042E+03    0.51549E-03   -0.11202E-03 10800   0.270E-01    0.884E-02
DAV:   6    -0.191991733946E+03    0.50962E-05   -0.46897E-04  9160   0.136E-01
  97 F= -.19199173E+03 E0= -.19190812E+03  d E =-.940288E-02
       N       E                     dE             d eps       ncg     rms          rms(c)
DAV:   1    -0.192003891204E+03   -0.12152E-01   -0.15157E+00  8160   0.266E+00    0.324E-01
DAV:   2    -0.192011072106E+03   -0.71809E-02   -0.51607E-02 13320   0.974E-01    0.741E-01
DAV:   3    -0.192006243286E+03    0.48288E-02   -0.16052E-02 12400   0.925E-01    0.322E-01
DAV:   4    -0.192006427306E+03   -0.18402E-03   -0.40568E-03 11120   0.478E-01    0.342E-01
DAV:   5    -0.192005088476E+03    0.13388E-02   -0.23367E-03 11320   0.396E-01    0.989E-02
DAV:   6    -0.192005204755E+03   -0.11628E-03   -0.82787E-04 10720   0.160E-01    0.108E-01
DAV:   7    -0.192005096028E+03    0.10873E-03   -0.52417E-04  9240   0.181E-01    0.870E-02
DAV:   8    -0.192005000829E+03    0.95199E-04   -0.12968E-04  5920   0.104E-01
  98 F= -.19200500E+03 E0= -.19192187E+03  d E =-.132669E-01
       N       E                     dE             d eps       ncg     rms          rms(c)
DAV:   1    -0.192018606386E+03   -0.13510E-01   -0.23189E+00  8160   0.327E+00    0.380E-01
DAV:   2    -0.192027600442E+03   -0.89941E-02   -0.71719E-02 13520   0.110E+00    0.785E-01
DAV:   3    -0.192022315497E+03    0.52849E-02   -0.19970E-02 12400   0.105E+00    0.413E-01
DAV:   4    -0.192021902772E+03    0.41272E-03   -0.59510E-03 11280   0.540E-01    0.361E-01
DAV:   5    -0.192020652086E+03    0.12507E-02   -0.31234E-03 11360   0.451E-01    0.178E-01
DAV:   6    -0.192020471276E+03    0.18081E-03   -0.14686E-03 10840   0.252E-01    0.121E-01
DAV:   7    -0.192020498090E+03   -0.26814E-04   -0.90183E-04 10160   0.235E-01
  99 F= -.19202050E+03 E0= -.19193795E+03  d E =-.154973E-01
       N       E                     dE             d eps       ncg     rms          rms(c)
DAV:   1    -0.192025869651E+03   -0.53984E-02   -0.40619E-01  8160   0.138E+00    0.160E-01
DAV:   2    -0.192027038165E+03   -0.11685E-02   -0.13389E-02 12800   0.406E-01    0.252E-01
DAV:   3    -0.192026735867E+03    0.30230E-03   -0.30122E-03 12160   0.403E-01    0.212E-01
DAV:   4    -0.192026468808E+03    0.26706E-03   -0.11695E-03 10800   0.238E-01    0.131E-01
DAV:   5    -0.192026304501E+03    0.16431E-03   -0.48187E-04  8640   0.167E-01    0.794E-02
DAV:   6    -0.192026287903E+03    0.16597E-04   -0.27849E-04  8280   0.130E-01
 100 F= -.19202629E+03 E0= -.19194329E+03  d E =-.578981E-02
