<?xml version="1.0" encoding="ISO-8859-1"?>
<modeling>
 <generator>
  <i name="program" type="string">vasp </i>
  <i name="version" type="string">5.4.1  </i>
  <i name="subversion" type="string">05Feb16 (build Jul 05 2020 17:13:04) complex                          parallel </i>
  <i name="platform" type="string">IFC91_ompi </i>
  <i name="date" type="string">2024 04 24 </i>
  <i name="time" type="string">18:00:36 </i>
 </generator>
 <incar>
  <i type="int" name="ISTART">     0</i>
  <i type="string" name="PREC">normal</i>
  <i type="string" name="ALGO"> Normal</i>
  <i type="int" name="ISPIN">     1</i>
  <i type="int" name="ICHARG">     2</i>
  <i type="int" name="IBRION">     1</i>
  <i type="int" name="NSW">   100</i>
  <i type="int" name="ISIF">     3</i>
  <i type="int" name="ISYM">     0</i>
  <i name="SYMPREC">      0.00000001</i>
  <i name="POTIM">      0.50000000</i>
  <i type="logical" name="LREAL"> F  </i>
  <i type="logical" name="LPLANE"> F  </i>
  <i type="int" name="ISMEAR">     0</i>
  <i type="logical" name="LWAVE"> F  </i>
  <i type="logical" name="LCHARG"> F  </i>
  <v type="int" name="KPOINT_BSE">    -1     0     0     0</v>
 </incar>
 <kpoints>
  <generation param="Gamma">
   <v type="int" name="divisions">       8        8        1 </v>
   <v name="usershift">      0.00000000       0.00000000       0.00000000 </v>
   <v name="genvec1">      0.12500000       0.00000000       0.00000000 </v>
   <v name="genvec2">     -0.00000000       0.12500000       0.00000000 </v>
   <v name="genvec3">      0.00000000       0.00000000       1.00000000 </v>
   <v name="shift">      0.00000000       0.00000000       0.00000000 </v>
  </generation>
  <varray name="kpointlist" >
   <v>       0.00000000       0.00000000       0.00000000 </v>
   <v>       0.12500000       0.00000000       0.00000000 </v>
   <v>       0.25000000       0.00000000       0.00000000 </v>
   <v>       0.37500000       0.00000000       0.00000000 </v>
   <v>       0.50000000       0.00000000       0.00000000 </v>
   <v>       0.00000000       0.12500000       0.00000000 </v>
   <v>       0.12500000       0.12500000       0.00000000 </v>
   <v>       0.25000000       0.12500000       0.00000000 </v>
   <v>       0.37500000       0.12500000       0.00000000 </v>
   <v>       0.50000000       0.12500000       0.00000000 </v>
   <v>      -0.37500000       0.12500000       0.00000000 </v>
   <v>      -0.25000000       0.12500000       0.00000000 </v>
   <v>      -0.12500000       0.12500000       0.00000000 </v>
   <v>       0.00000000       0.25000000       0.00000000 </v>
   <v>       0.12500000       0.25000000       0.00000000 </v>
   <v>       0.25000000       0.25000000       0.00000000 </v>
   <v>       0.37500000       0.25000000       0.00000000 </v>
   <v>       0.50000000       0.25000000       0.00000000 </v>
   <v>      -0.37500000       0.25000000       0.00000000 </v>
   <v>      -0.25000000       0.25000000       0.00000000 </v>
   <v>      -0.12500000       0.25000000       0.00000000 </v>
   <v>      -0.00000000       0.37500000       0.00000000 </v>
   <v>       0.12500000       0.37500000       0.00000000 </v>
   <v>       0.25000000       0.37500000       0.00000000 </v>
   <v>       0.37500000       0.37500000       0.00000000 </v>
   <v>       0.50000000       0.37500000       0.00000000 </v>
   <v>      -0.37500000       0.37500000       0.00000000 </v>
   <v>      -0.25000000       0.37500000       0.00000000 </v>
   <v>      -0.12500000       0.37500000       0.00000000 </v>
   <v>       0.00000000       0.50000000       0.00000000 </v>
   <v>       0.12500000       0.50000000       0.00000000 </v>
   <v>       0.25000000       0.50000000       0.00000000 </v>
   <v>       0.37500000       0.50000000       0.00000000 </v>
   <v>       0.50000000       0.50000000       0.00000000 </v>
  </varray>
  <varray name="weights" >
   <v>       0.01562500 </v>
   <v>       0.03125000 </v>
   <v>       0.03125000 </v>
   <v>       0.03125000 </v>
   <v>       0.01562500 </v>
   <v>       0.03125000 </v>
   <v>       0.03125000 </v>
   <v>       0.03125000 </v>
   <v>       0.03125000 </v>
   <v>       0.03125000 </v>
   <v>       0.03125000 </v>
   <v>       0.03125000 </v>
   <v>       0.03125000 </v>
   <v>       0.03125000 </v>
   <v>       0.03125000 </v>
   <v>       0.03125000 </v>
   <v>       0.03125000 </v>
   <v>       0.03125000 </v>
   <v>       0.03125000 </v>
   <v>       0.03125000 </v>
   <v>       0.03125000 </v>
   <v>       0.03125000 </v>
   <v>       0.03125000 </v>
   <v>       0.03125000 </v>
   <v>       0.03125000 </v>
   <v>       0.03125000 </v>
   <v>       0.03125000 </v>
   <v>       0.03125000 </v>
   <v>       0.03125000 </v>
   <v>       0.01562500 </v>
   <v>       0.03125000 </v>
   <v>       0.03125000 </v>
   <v>       0.03125000 </v>
   <v>       0.01562500 </v>
  </varray>
 </kpoints>
 <parameters>
  <separator name="general" >
   <i type="string" name="SYSTEM">unknown system</i>
   <i type="logical" name="LCOMPAT"> F  </i>
  </separator>
  <separator name="electronic" >
   <i type="string" name="PREC">normal</i>
   <i name="ENMAX">    280.00000000</i>
   <i name="ENAUG">    373.43800000</i>
   <i name="EDIFF">      0.00010000</i>
   <i type="int" name="IALGO">    38</i>
   <i type="int" name="IWAVPR">    11</i>
   <i type="int" name="NBANDS">   120</i>
   <i name="NELECT">    159.00000000</i>
   <i type="int" name="TURBO">     0</i>
   <i type="int" name="IRESTART">     0</i>
   <i type="int" name="NREBOOT">     0</i>
   <i type="int" name="NMIN">     0</i>
   <i name="EREF">      0.00000000</i>
   <separator name="electronic smearing" >
    <i type="int" name="ISMEAR">     0</i>
    <i name="SIGMA">      0.20000000</i>
    <i name="KSPACING">      0.50000000</i>
    <i type="logical" name="KGAMMA"> T  </i>
   </separator>
   <separator name="electronic projectors" >
    <i type="logical" name="LREAL"> F  </i>
    <v name="ROPT">      0.00000000      0.00000000      0.00000000      0.00000000</v>
    <i type="int" name="LMAXPAW">  -100</i>
    <i type="int" name="LMAXMIX">     2</i>
    <i type="logical" name="NLSPLINE"> F  </i>
   </separator>
   <separator name="electronic startup" >
    <i type="int" name="ISTART">     0</i>
    <i type="int" name="ICHARG">     2</i>
    <i type="int" name="INIWAV">     1</i>
   </separator>
   <separator name="electronic spin" >
    <i type="int" name="ISPIN">     1</i>
    <i type="logical" name="LNONCOLLINEAR"> F  </i>
    <v name="MAGMOM">      1.00000000      1.00000000      1.00000000      1.00000000      1.00000000      1.00000000      1.00000000      1.00000000      1.00000000      1.00000000      1.00000000      1.00000000      1.00000000      1.00000000      1.00000000      1.00000000      1.00000000      1.00000000      1.00000000      1.00000000
      1.00000000      1.00000000      1.00000000      1.00000000      1.00000000      1.00000000      1.00000000</v>
    <i name="NUPDOWN">     -1.00000000</i>
    <i type="logical" name="LSORBIT"> F  </i>
    <v name="SAXIS">      0.00000000      0.00000000      1.00000000</v>
    <i type="logical" name="LSPIRAL"> F  </i>
    <v name="QSPIRAL">      0.00000000      0.00000000      0.00000000</v>
    <i type="logical" name="LZEROZ"> F  </i>
   </separator>
   <separator name="electronic exchange-correlation" >
    <i type="logical" name="LASPH"> F  </i>
    <i type="logical" name="LMETAGGA"> F  </i>
   </separator>
   <separator name="electronic convergence" >
    <i type="int" name="NELM">    60</i>
    <i type="int" name="NELMDL">    -5</i>
    <i type="int" name="NELMIN">     2</i>
    <i name="ENINI">    280.00000000</i>
    <separator name="electronic convergence detail" >
     <i type="logical" name="LDIAG"> T  </i>
     <i type="logical" name="LSUBROT"> F  </i>
     <i name="WEIMIN">      0.00100000</i>
     <i name="EBREAK">      0.00000021</i>
     <i name="DEPER">      0.30000000</i>
     <i type="int" name="NRMM">     4</i>
     <i name="TIME">      0.40000000</i>
    </separator>
   </separator>
   <separator name="electronic mixer" >
    <i name="AMIX">      0.40000000</i>
    <i name="BMIX">      1.00000000</i>
    <i name="AMIN">      0.10000000</i>
    <i name="AMIX_MAG">      1.60000000</i>
    <i name="BMIX_MAG">      1.00000000</i>
    <separator name="electronic mixer details" >
     <i type="int" name="IMIX">     4</i>
     <i type="logical" name="MIXFIRST"> F  </i>
     <i type="int" name="MAXMIX">   -45</i>
     <i name="WC">    100.00000000</i>
     <i type="int" name="INIMIX">     1</i>
     <i type="int" name="MIXPRE">     1</i>
     <i type="int" name="MREMOVE">     5</i>
    </separator>
   </separator>
   <separator name="electronic dipolcorrection" >
    <i type="logical" name="LDIPOL"> F  </i>
    <i type="logical" name="LMONO"> F  </i>
    <i type="int" name="IDIPOL">     0</i>
    <i name="EPSILON">      1.00000000</i>
    <v name="DIPOL">   -100.00000000   -100.00000000   -100.00000000</v>
    <i name="EFIELD">      0.00000000</i>
   </separator>
  </separator>
  <separator name="grids" >
   <i type="int" name="NGX">    42</i>
   <i type="int" name="NGY">    42</i>
   <i type="int" name="NGZ">   126</i>
   <i type="int" name="NGXF">    84</i>
   <i type="int" name="NGYF">    84</i>
   <i type="int" name="NGZF">   252</i>
   <i type="logical" name="ADDGRID"> F  </i>
  </separator>
  <separator name="ionic" >
   <i type="int" name="NSW">   100</i>
   <i type="int" name="IBRION">     1</i>
   <i type="int" name="ISIF">     3</i>
   <i name="PSTRESS">      0.00000000</i>
   <i name="EDIFFG">      0.00100000</i>
   <i type="int" name="NFREE">     0</i>
   <i name="POTIM">      0.50000000</i>
   <i name="SMASS">     -3.00000000</i>
   <i name="SCALEE">      1.00000000</i>
  </separator>
  <separator name="ionic md" >
   <i name="TEBEG">      0.00010000</i>
   <i name="TEEND">      0.00010000</i>
   <i type="int" name="NBLOCK">     1</i>
   <i type="int" name="KBLOCK">   100</i>
   <i type="int" name="NPACO">   256</i>
   <i name="APACO">     16.00000000</i>
  </separator>
  <separator name="symmetry" >
   <i type="int" name="ISYM">     0</i>
   <i name="SYMPREC">      0.00000001</i>
  </separator>
  <separator name="dos" >
   <i type="logical" name="LORBIT"> F  </i>
   <v name="RWIGS">     -1.00000000     -1.00000000     -1.00000000     -1.00000000</v>
   <i type="int" name="NEDOS">   301</i>
   <i name="EMIN">     10.00000000</i>
   <i name="EMAX">    -10.00000000</i>
   <i name="EFERMI">      0.00000000</i>
  </separator>
  <separator name="writing" >
   <i type="int" name="NWRITE">     2</i>
   <i type="logical" name="LWAVE"> F  </i>
   <i type="logical" name="LCHARG"> F  </i>
   <i type="logical" name="LPARD"> F  </i>
   <i type="logical" name="LVTOT"> F  </i>
   <i type="logical" name="LVHAR"> F  </i>
   <i type="logical" name="LELF"> F  </i>
   <i type="logical" name="LOPTICS"> F  </i>
   <v name="STM">      0.00000000      0.00000000      0.00000000      0.00000000      0.00000000      0.00000000      0.00000000</v>
  </separator>
  <separator name="performance" >
   <i type="int" name="NPAR">    40</i>
   <i type="int" name="NSIM">     4</i>
   <i type="int" name="NBLK">    -1</i>
   <i type="logical" name="LPLANE"> F  </i>
   <i type="logical" name="LSCALAPACK"> T  </i>
   <i type="logical" name="LSCAAWARE"> F  </i>
   <i type="logical" name="LSCALU"> F  </i>
   <i type="logical" name="LASYNC"> F  </i>
   <i type="logical" name="LORBITALREAL"> F  </i>
  </separator>
  <separator name="miscellaneous" >
   <i type="int" name="IDIOT">     3</i>
   <i type="logical" name="LMUSIC"> F  </i>
   <v name="POMASS">     50.94100000     95.94000000    183.85000000     32.06600000</v>
   <v name="DARWINR">      0.00000000      0.00000000      0.00000000      0.00000000</v>
   <v name="DARWINV">      1.00000000      1.00000000      1.00000000      1.00000000</v>
   <i type="logical" name="LCORR"> T  </i>
  </separator>
  <i type="logical" name="GGA_COMPAT"> T  </i>
  <i type="logical" name="LBERRY"> F  </i>
  <i type="int" name="ICORELEVEL">     0</i>
  <i type="logical" name="LDAU"> F  </i>
  <i type="int" name="I_CONSTRAINED_M">     0</i>
  <separator name="electronic exchange-correlation" >
   <i type="string" name="GGA">--</i>
   <i type="int" name="VOSKOWN">     0</i>
   <i type="logical" name="LHFCALC"> F  </i>
   <i type="string" name="PRECFOCK"></i>
   <i type="logical" name="LSYMGRAD"> F  </i>
   <i type="logical" name="LHFONE"> F  </i>
   <i type="logical" name="LRHFCALC"> F  </i>
   <i type="logical" name="LTHOMAS"> F  </i>
   <i type="logical" name="LMODELHF"> F  </i>
   <i name="ENCUT4O">     -1.00000000</i>
   <i type="int" name="EXXOEP">     0</i>
   <i type="int" name="FOURORBIT">     0</i>
   <i name="AEXX">      0.00000000</i>
   <i name="HFALPHA">      0.00000000</i>
   <i name="MCALPHA">      0.00000000</i>
   <i name="ALDAX">      1.00000000</i>
   <i name="AGGAX">      1.00000000</i>
   <i name="ALDAC">      1.00000000</i>
   <i name="AGGAC">      1.00000000</i>
   <i type="int" name="NKREDX">     1</i>
   <i type="int" name="NKREDY">     1</i>
   <i type="int" name="NKREDZ">     1</i>
   <i type="logical" name="SHIFTRED"> F  </i>
   <i type="logical" name="ODDONLY"> F  </i>
   <i type="logical" name="EVENONLY"> F  </i>
   <i type="int" name="LMAXFOCK">     0</i>
   <i type="int" name="NMAXFOCKAE">     0</i>
   <i type="logical" name="LFOCKAEDFT"> F  </i>
   <i name="HFSCREEN">      0.00000000</i>
   <i name="HFSCREENC">      0.00000000</i>
   <i type="int" name="NBANDSGWLOW">     0</i>
  </separator>
  <separator name="vdW DFT" >
   <i type="logical" name="LUSE_VDW"> F  </i>
   <i name="Zab_VDW">     -0.84910000</i>
   <i name="PARAM1">      0.12340000</i>
   <i name="PARAM2">      1.00000000</i>
   <i name="PARAM3">      0.00000000</i>
  </separator>
  <separator name="model GW" >
   <i type="int" name="MODEL_GW">     0</i>
   <i name="MODEL_EPS0">     58.26239943</i>
   <i name="MODEL_ALPHA">      1.00000000</i>
  </separator>
  <separator name="linear response parameters" >
   <i type="logical" name="LEPSILON"> F  </i>
   <i type="logical" name="LRPA"> F  </i>
   <i type="logical" name="LNABLA"> F  </i>
   <i type="logical" name="LVEL"> F  </i>
   <i type="int" name="KINTER">     0</i>
   <i name="CSHIFT">      0.10000000</i>
   <i name="OMEGAMAX">     -1.00000000</i>
   <i name="DEG_THRESHOLD">      0.00200000</i>
  </separator>
  <separator name="orbital magnetization" >
   <i type="logical" name="NUCIND"> F  </i>
   <v name="MAGPOS">      0.00000000      0.00000000      0.00000000</v>
   <i type="logical" name="LNICSALL"> T  </i>
   <i type="logical" name="ORBITALMAG"> F  </i>
   <i type="logical" name="LMAGBLOCH"> F  </i>
   <i type="logical" name="LCHIMAG"> F  </i>
   <i type="logical" name="LGAUGE"> T  </i>
   <i type="int" name="MAGATOM">     0</i>
   <v name="MAGDIPOL">      0.00000000      0.00000000      0.00000000</v>
   <v name="AVECCONST">      0.00000000      0.00000000      0.00000000</v>
  </separator>
  <separator name="response functions" >
   <i type="logical" name="LADDER"> F  </i>
   <i type="logical" name="LFXC"> F  </i>
   <i type="logical" name="LHARTREE"> T  </i>
   <i type="int" name="IBSE">     0</i>
   <v type="int" name="KPOINT">    -1     0     0     0</v>
   <i type="logical" name="LTCTE"> F  </i>
   <i type="logical" name="LTETE"> F  </i>
   <i type="logical" name="LTRIPLET"> F  </i>
   <i type="logical" name="LFXCEPS"> F  </i>
   <i type="logical" name="LFXHEG"> F  </i>
   <i type="int" name="NATURALO">     0</i>
   <i type="logical" name="L2ORDER"> F  </i>
   <i type="logical" name="LUSEW"> F  </i>
   <i name="ENCUTGW">     -2.00000000</i>
   <i name="ENCUTGWSOFT">     -2.00000000</i>
   <i name="ENCUTLF">     -1.00000000</i>
   <i type="int" name="LMAXMP2">    -1</i>
   <i name="SCISSOR">      0.00000000</i>
   <i type="int" name="NOMEGA">     0</i>
   <i type="int" name="NOMEGAR">     0</i>
   <i type="int" name="NBANDSGW">    -1</i>
   <i type="int" name="NBANDSO">    -1</i>
   <i type="int" name="NBANDSV">    -1</i>
   <i type="int" name="NELM">     1</i>
   <i type="int" name="NELMHF">     1</i>
   <i type="int" name="DIM">     3</i>
   <i type="int" name="ANTIRES">     0</i>
   <i name="OMEGAMAX">    -30.00000000</i>
   <i name="OMEGAMIN">    -30.00000000</i>
   <i name="OMEGATL">   -200.00000000</i>
   <i type="int" name="OMEGAGRID">     0</i>
   <i name="CSHIFT">     -0.10000000</i>
   <i type="logical" name="SELFENERGY"> F  </i>
   <i type="logical" name="LSPECTRAL"> F  </i>
   <i type="logical" name="LSPECTRALGW"> F  </i>
   <i type="logical" name="LSINGLES"> F  </i>
   <i type="logical" name="LFERMIGW"> F  </i>
   <i type="logical" name="ODDONLYGW"> F  </i>
   <i type="logical" name="EVENONLYGW"> F  </i>
   <i type="int" name="NKREDLFX">     1</i>
   <i type="int" name="NKREDLFY">     1</i>
   <i type="int" name="NKREDLFZ">     1</i>
   <i type="int" name="MAXMEM">  1800</i>
   <i type="int" name="TELESCOPE">     0</i>
   <i type="int" name="TAUPAR">     1</i>
   <i type="int" name="OMEGAPAR">    -1</i>
   <i name="LAMBDA">      1.00000000</i>
  </separator>
  <separator name="External order field" >
   <i name="OFIELD_KAPPA">      0.00000000</i>
   <v name="OFIELD_K">      0.00000000      0.00000000      0.00000000</v>
   <i name="OFIELD_Q6_NEAR">      0.00000000</i>
   <i name="OFIELD_Q6_FAR">      0.00000000</i>
   <i name="OFIELD_A">      0.00000000</i>
  </separator>
 </parameters>
 <atominfo>
  <atoms>      27 </atoms>
  <types>       4 </types>
  <array name="atoms" >
   <dimension dim="1">ion</dimension>
   <field type="string">element</field>
   <field type="int">atomtype</field>
   <set>
    <rc><c>V </c><c>   1</c></rc>
    <rc><c>V </c><c>   1</c></rc>
    <rc><c>V </c><c>   1</c></rc>
    <rc><c>Mo</c><c>   2</c></rc>
    <rc><c>Mo</c><c>   2</c></rc>
    <rc><c>Mo</c><c>   2</c></rc>
    <rc><c>W </c><c>   3</c></rc>
    <rc><c>W </c><c>   3</c></rc>
    <rc><c>W </c><c>   3</c></rc>
    <rc><c>S </c><c>   4</c></rc>
    <rc><c>S </c><c>   4</c></rc>
    <rc><c>S </c><c>   4</c></rc>
    <rc><c>S </c><c>   4</c></rc>
    <rc><c>S </c><c>   4</c></rc>
    <rc><c>S </c><c>   4</c></rc>
    <rc><c>S </c><c>   4</c></rc>
    <rc><c>S </c><c>   4</c></rc>
    <rc><c>S </c><c>   4</c></rc>
    <rc><c>S </c><c>   4</c></rc>
    <rc><c>S </c><c>   4</c></rc>
    <rc><c>S </c><c>   4</c></rc>
    <rc><c>S </c><c>   4</c></rc>
    <rc><c>S </c><c>   4</c></rc>
    <rc><c>S </c><c>   4</c></rc>
    <rc><c>S </c><c>   4</c></rc>
    <rc><c>S </c><c>   4</c></rc>
    <rc><c>S </c><c>   4</c></rc>
   </set>
  </array>
  <array name="atomtypes" >
   <dimension dim="1">type</dimension>
   <field type="int">atomspertype</field>
   <field type="string">element</field>
   <field>mass</field>
   <field>valence</field>
   <field type="string">pseudopotential</field>
   <set>
    <rc><c>   3</c><c>V </c><c>     50.94100000</c><c>      5.00000000</c><c> PAW_PBE V 08Apr2002                    </c></rc>
    <rc><c>   3</c><c>Mo</c><c>     95.94000000</c><c>      6.00000000</c><c> PAW_PBE Mo 08Apr2002                   </c></rc>
    <rc><c>   3</c><c>W </c><c>    183.85000000</c><c>      6.00000000</c><c> PAW_PBE W 08Apr2002                    </c></rc>
    <rc><c>  18</c><c>S </c><c>     32.06600000</c><c>      6.00000000</c><c>  PAW_PBE S 17Jan2003                   </c></rc>
   </set>
  </array>
 </atominfo>
 <structure name="initialpos" >
  <crystal>
   <varray name="basis" >
    <v>       8.66999996       5.03999989       0.00000000 </v>
    <v>      -8.66999982       5.04000013       0.00000000 </v>
    <v>       0.00000000       0.00000000      30.00000000 </v>
   </varray>
   <i name="volume">   2621.80797419 </i>
   <varray name="rec_basis" >
    <v>       0.05767013       0.09920635       0.00000000 </v>
    <v>      -0.05767013       0.09920635       0.00000000 </v>
    <v>       0.00000000       0.00000000       0.03333333 </v>
   </varray>
  </crystal>
  <varray name="positions" >
   <v>       0.33333334       0.00000000       0.00000000 </v>
   <v>       0.00000000       0.66666669       0.00000000 </v>
   <v>       0.66666669       0.66666669       0.00000000 </v>
   <v>       0.00000000       0.00000000       0.00000000 </v>
   <v>       0.66666669       0.33333334       0.00000000 </v>
   <v>       0.66666669       0.00000000       0.00000000 </v>
   <v>       1.00000000       0.33333334       0.00000000 </v>
   <v>       0.33333334       0.33333334       0.00000000 </v>
   <v>       0.33333334       0.66666669       0.00000000 </v>
   <v>       0.11068511       0.22244981       0.95539999 </v>
   <v>       0.22244981       0.11068511       0.04460000 </v>
   <v>       0.11068511       0.55578315       0.95539999 </v>
   <v>       0.22244981       0.44401845       0.04460000 </v>
   <v>       0.11068511       0.88911647       0.95539999 </v>
   <v>       0.22244981       0.77735180       0.04460000 </v>
   <v>       0.44401845       0.22244981       0.95539999 </v>
   <v>       0.55578315       0.11068511       0.04460000 </v>
   <v>       0.44401845       0.55578315       0.95539999 </v>
   <v>       0.55578315       0.44401845       0.04460000 </v>
   <v>       0.44401845       0.88911647       0.95539999 </v>
   <v>       0.55578315       0.77735180       0.04460000 </v>
   <v>       0.77735180       0.22244981       0.95539999 </v>
   <v>       0.88911647       0.11068511       0.04460000 </v>
   <v>       0.77735180       0.55578315       0.95539999 </v>
   <v>       0.88911647       0.44401845       0.04460000 </v>
   <v>       0.77735180       0.88911647       0.95539999 </v>
   <v>       0.88911647       0.77735180       0.04460000 </v>
  </varray>
 </structure>
 <calculation>
  <scstep>
   <time name="dav">   21.56   21.61</time>
   <time name="total">   21.60   21.66</time>
   <energy>
    <i name="alphaZ">     81.65567618 </i>
    <i name="ewald">  41890.23009673 </i>
    <i name="hartreedc"> -47722.87378617 </i>
    <i name="XCdc">   -242.92723517 </i>
    <i name="pawpsdc">   3467.42045192 </i>
    <i name="pawaedc">  -2871.19716117 </i>
    <i name="eentropy">     -0.54844846 </i>
    <i name="bandstr">   -239.37025409 </i>
    <i name="atom">   6761.44252427 </i>
    <i name="e_fr_energy">   1123.83186404 </i>
    <i name="e_wo_entrp">   1124.38031250 </i>
    <i name="e_0_energy">   1124.10608827 </i>
   </energy>
  </scstep>
  <scstep>
   <time name="dav">   28.24   28.31</time>
   <time name="total">   28.24   28.32</time>
   <energy>
    <i name="e_fr_energy">     -3.72058135 </i>
    <i name="e_wo_entrp">     -3.52234878 </i>
    <i name="e_0_energy">     -3.62146507 </i>
   </energy>
  </scstep>
  <scstep>
   <time name="dav">   27.32   27.39</time>
   <time name="total">   27.33   27.40</time>
   <energy>
    <i name="e_fr_energy">   -199.93205228 </i>
    <i name="e_wo_entrp">   -199.65531072 </i>
    <i name="e_0_energy">   -199.79368150 </i>
   </energy>
  </scstep>
  <scstep>
   <time name="dav">   29.70   29.77</time>
   <time name="total">   29.70   29.78</time>
   <energy>
    <i name="e_fr_energy">   -208.97836165 </i>
    <i name="e_wo_entrp">   -208.66977821 </i>
    <i name="e_0_energy">   -208.82406993 </i>
   </energy>
  </scstep>
  <scstep>
   <time name="dav">   28.20   28.27</time>
   <time name="total">   28.66   28.74</time>
   <energy>
    <i name="e_fr_energy">   -209.30748858 </i>
    <i name="e_wo_entrp">   -209.00175487 </i>
    <i name="e_0_energy">   -209.15462172 </i>
   </energy>
  </scstep>
  <scstep>
   <time name="dav">   30.82   30.89</time>
   <time name="total">   31.32   31.40</time>
   <energy>
    <i name="e_fr_energy">   -236.79761457 </i>
    <i name="e_wo_entrp">   -236.51541426 </i>
    <i name="e_0_energy">   -236.65651441 </i>
   </energy>
  </scstep>
  <scstep>
   <time name="dav">   32.01   32.08</time>
   <time name="total">   32.52   32.60</time>
   <energy>
    <i name="e_fr_energy">   -196.50587204 </i>
    <i name="e_wo_entrp">   -196.18987649 </i>
    <i name="e_0_energy">   -196.34787426 </i>
   </energy>
  </scstep>
  <scstep>
   <time name="dav">   29.18   29.25</time>
   <time name="total">   29.69   29.77</time>
   <energy>
    <i name="e_fr_energy">   -189.48161643 </i>
    <i name="e_wo_entrp">   -189.19218862 </i>
    <i name="e_0_energy">   -189.33690253 </i>
   </energy>
  </scstep>
  <scstep>
   <time name="dav">   30.55   30.63</time>
   <time name="total">   31.08   31.16</time>
   <energy>
    <i name="e_fr_energy">   -188.16793368 </i>
    <i name="e_wo_entrp">   -187.82746409 </i>
    <i name="e_0_energy">   -187.99769889 </i>
   </energy>
  </scstep>
  <scstep>
   <time name="dav">   32.53   32.61</time>
   <time name="total">   33.06   33.15</time>
   <energy>
    <i name="e_fr_energy">   -187.03350266 </i>
    <i name="e_wo_entrp">   -186.68701751 </i>
    <i name="e_0_energy">   -186.86026009 </i>
   </energy>
  </scstep>
  <scstep>
   <time name="dav">   30.23   30.31</time>
   <time name="total">   30.77   30.85</time>
   <energy>
    <i name="e_fr_energy">   -186.94226338 </i>
    <i name="e_wo_entrp">   -186.59116607 </i>
    <i name="e_0_energy">   -186.76671472 </i>
   </energy>
  </scstep>
  <scstep>
   <time name="dav">   30.77   30.84</time>
   <time name="total">   31.30   31.38</time>
   <energy>
    <i name="e_fr_energy">   -187.04657221 </i>
    <i name="e_wo_entrp">   -186.70955861 </i>
    <i name="e_0_energy">   -186.87806541 </i>
   </energy>
  </scstep>
  <scstep>
   <time name="dav">   30.72   30.79</time>
   <time name="total">   31.26   31.34</time>
   <energy>
    <i name="e_fr_energy">   -186.88105122 </i>
    <i name="e_wo_entrp">   -186.54246938 </i>
    <i name="e_0_energy">   -186.71176030 </i>
   </energy>
  </scstep>
  <scstep>
   <time name="dav">   32.03   32.10</time>
   <time name="total">   32.57   32.65</time>
   <energy>
    <i name="e_fr_energy">   -186.84548193 </i>
    <i name="e_wo_entrp">   -186.50020772 </i>
    <i name="e_0_energy">   -186.67284483 </i>
   </energy>
  </scstep>
  <scstep>
   <time name="dav">   29.62   29.69</time>
   <time name="total">   30.16   30.24</time>
   <energy>
    <i name="e_fr_energy">   -186.83986002 </i>
    <i name="e_wo_entrp">   -186.49286507 </i>
    <i name="e_0_energy">   -186.66636254 </i>
   </energy>
  </scstep>
  <scstep>
   <time name="dav">   30.98   31.05</time>
   <time name="total">   31.52   31.60</time>
   <energy>
    <i name="e_fr_energy">   -186.82956846 </i>
    <i name="e_wo_entrp">   -186.48239125 </i>
    <i name="e_0_energy">   -186.65597985 </i>
   </energy>
  </scstep>
  <scstep>
   <time name="dav">   31.04   31.12</time>
   <time name="total">   31.58   31.67</time>
   <energy>
    <i name="e_fr_energy">   -186.82745640 </i>
    <i name="e_wo_entrp">   -186.48219599 </i>
    <i name="e_0_energy">   -186.65482619 </i>
   </energy>
  </scstep>
  <scstep>
   <time name="dav">   29.18   29.25</time>
   <time name="total">   29.72   29.80</time>
   <energy>
    <i name="e_fr_energy">   -186.82711022 </i>
    <i name="e_wo_entrp">   -186.48173972 </i>
    <i name="e_0_energy">   -186.65442497 </i>
   </energy>
  </scstep>
  <scstep>
   <time name="dav">   25.65   25.71</time>
   <time name="total">   26.19   26.26</time>
   <energy>
    <i name="e_fr_energy">   -186.82676179 </i>
    <i name="e_wo_entrp">   -186.48101282 </i>
    <i name="e_0_energy">   -186.65388731 </i>
   </energy>
  </scstep>
  <scstep>
   <time name="dav">   23.98   24.04</time>
   <time name="total">   24.52   24.59</time>
   <energy>
    <i name="e_fr_energy">   -186.82735384 </i>
    <i name="e_wo_entrp">   -186.48166184 </i>
    <i name="e_0_energy">   -186.65450784 </i>
   </energy>
  </scstep>
  <scstep>
   <time name="dav">   23.38   23.43</time>
   <time name="total">   23.92   23.98</time>
   <energy>
    <i name="e_fr_energy">   -186.82801143 </i>
    <i name="e_wo_entrp">   -186.48258298 </i>
    <i name="e_0_energy">   -186.65529721 </i>
   </energy>
  </scstep>
  <scstep>
   <time name="dav">   20.37   20.42</time>
   <time name="total">   20.91   20.97</time>
   <energy>
    <i name="e_fr_energy">   -186.82919357 </i>
    <i name="e_wo_entrp">   -186.48361808 </i>
    <i name="e_0_energy">   -186.65640583 </i>
   </energy>
  </scstep>
  <scstep>
   <time name="dav">   20.22   20.27</time>
   <time name="total">   20.76   20.82</time>
   <energy>
    <i name="e_fr_energy">   -186.83045704 </i>
    <i name="e_wo_entrp">   -186.48498926 </i>
    <i name="e_0_energy">   -186.65772315 </i>
   </energy>
  </scstep>
  <scstep>
   <time name="dav">   18.54   18.58</time>
   <time name="total">   19.08   19.14</time>
   <energy>
    <i name="e_fr_energy">   -186.83105510 </i>
    <i name="e_wo_entrp">   -186.48557598 </i>
    <i name="e_0_energy">   -186.65831554 </i>
   </energy>
  </scstep>
  <scstep>
   <time name="dav">   16.51   16.55</time>
   <time name="total">   17.05   17.10</time>
   <energy>
    <i name="e_fr_energy">   -186.83143985 </i>
    <i name="e_wo_entrp">   -186.48591486 </i>
    <i name="e_0_energy">   -186.65867735 </i>
   </energy>
  </scstep>
  <scstep>
   <time name="dav">   18.96   19.01</time>
   <time name="total">   19.50   19.56</time>
   <energy>
    <i name="e_fr_energy">   -186.83165694 </i>
    <i name="e_wo_entrp">   -186.48614730 </i>
    <i name="e_0_energy">   -186.65890212 </i>
   </energy>
  </scstep>
  <scstep>
   <time name="dav">   19.09   19.13</time>
   <time name="total">   19.63   19.68</time>
   <energy>
    <i name="e_fr_energy">   -186.83176400 </i>
    <i name="e_wo_entrp">   -186.48625742 </i>
    <i name="e_0_energy">   -186.65901071 </i>
   </energy>
  </scstep>
  <scstep>
   <time name="dav">   19.86   19.90</time>
   <time name="total">   19.89   19.95</time>
   <energy>
    <i name="alphaZ">     81.65567618 </i>
    <i name="ewald">  41890.23009673 </i>
    <i name="hartreedc"> -47832.88101914 </i>
    <i name="XCdc">   -231.61131372 </i>
    <i name="pawpsdc">   4192.03335849 </i>
    <i name="pawaedc">  -3610.03634868 </i>
    <i name="eentropy">     -0.34550511 </i>
    <i name="bandstr">  -1437.31927837 </i>
    <i name="atom">   6761.44252427 </i>
    <i name="e_fr_energy">   -186.83180934 </i>
    <i name="e_wo_entrp">   -186.48630423 </i>
    <i name="e_0_energy">   -186.65905679 </i>
   </energy>
  </scstep>
  <structure>
   <crystal>
    <varray name="basis" >
     <v>       8.66999996       5.03999989       0.00000000 </v>
     <v>      -8.66999982       5.04000013       0.00000000 </v>
     <v>       0.00000000       0.00000000      30.00000000 </v>
    </varray>
    <i name="volume">   2621.80797419 </i>
    <varray name="rec_basis" >
     <v>       0.05767013       0.09920635       0.00000000 </v>
     <v>      -0.05767013       0.09920635       0.00000000 </v>
     <v>       0.00000000       0.00000000       0.03333333 </v>
    </varray>
   </crystal>
   <varray name="positions" >
    <v>       0.33333334       0.00000000       0.00000000 </v>
    <v>       0.00000000       0.66666669       0.00000000 </v>
    <v>       0.66666669       0.66666669       0.00000000 </v>
    <v>       0.00000000       0.00000000       0.00000000 </v>
    <v>       0.66666669       0.33333334       0.00000000 </v>
    <v>       0.66666669       0.00000000       0.00000000 </v>
    <v>       1.00000000       0.33333334       0.00000000 </v>
    <v>       0.33333334       0.33333334       0.00000000 </v>
    <v>       0.33333334       0.66666669       0.00000000 </v>
    <v>       0.11068511       0.22244981       0.95539999 </v>
    <v>       0.22244981       0.11068511       0.04460000 </v>
    <v>       0.11068511       0.55578315       0.95539999 </v>
    <v>       0.22244981       0.44401845       0.04460000 </v>
    <v>       0.11068511       0.88911647       0.95539999 </v>
    <v>       0.22244981       0.77735180       0.04460000 </v>
    <v>       0.44401845       0.22244981       0.95539999 </v>
    <v>       0.55578315       0.11068511       0.04460000 </v>
    <v>       0.44401845       0.55578315       0.95539999 </v>
    <v>       0.55578315       0.44401845       0.04460000 </v>
    <v>       0.44401845       0.88911647       0.95539999 </v>
    <v>       0.55578315       0.77735180       0.04460000 </v>
    <v>       0.77735180       0.22244981       0.95539999 </v>
    <v>       0.88911647       0.11068511       0.04460000 </v>
    <v>       0.77735180       0.55578315       0.95539999 </v>
    <v>       0.88911647       0.44401845       0.04460000 </v>
    <v>       0.77735180       0.88911647       0.95539999 </v>
    <v>       0.88911647       0.77735180       0.04460000 </v>
   </varray>
  </structure>
  <varray name="forces" >
   <v>      -0.00635470       0.15275697       0.08343163 </v>
   <v>      -0.29836743      -0.07075164      -0.03397501 </v>
   <v>       0.07536781       0.26765379      -0.10348344 </v>
   <v>      -0.18320565      -0.16677704      -0.07322387 </v>
   <v>       0.24003888      -0.12923106       0.01947140 </v>
   <v>      -0.00404590       0.28338202       0.12096526 </v>
   <v>      -0.05344558      -0.64570515       0.01877421 </v>
   <v>       0.34590003      -0.13594107      -0.08703260 </v>
   <v>      -0.07559372       0.34171525       0.04438939 </v>
   <v>       0.04497573       0.17416321      -2.91038617 </v>
   <v>       0.69091665       0.14563426       2.13701475 </v>
   <v>      -0.57916327      -0.00010770      -2.08513385 </v>
   <v>      -0.16163205      -0.01042058       2.86483412 </v>
   <v>       0.88841693      -0.00476059      -1.43222991 </v>
   <v>      -0.74178666       0.02161039       1.48523211 </v>
   <v>       0.34803692      -0.69124727      -2.17118129 </v>
   <v>      -0.52539504      -0.71537972       2.16696727 </v>
   <v>       0.47606556       0.58439190      -2.20048909 </v>
   <v>      -0.61373623       0.55853858       2.11950628 </v>
   <v>      -0.66021270      -0.15315989      -2.09562893 </v>
   <v>       0.64476561      -0.14170456       2.10219557 </v>
   <v>       0.19613542       0.18077826      -2.93017875 </v>
   <v>      -0.21657849       0.15037140       2.94959155 </v>
   <v>      -0.34787226       0.67532950      -1.43124390 </v>
   <v>      -0.35842419       0.70803917       2.15676324 </v>
   <v>       0.55185861      -0.71402847      -2.15057639 </v>
   <v>       0.32333573      -0.66514996       1.43562645 </v>
  </varray>
  <varray name="stress" >
   <v>       7.30394951      -0.04590686      -1.53147085 </v>
   <v>      -0.04590705       4.43596721       0.00017252 </v>
   <v>      -1.53147084       0.00017243      30.32803716 </v>
  </varray>
  <energy>
   <i name="e_fr_energy">   -186.83180934 </i>
   <i name="e_wo_entrp">   -186.65905679 </i>
   <i name="e_0_energy">     -0.34550511 </i>
  </energy>
  <time name="totalsc">  795.61  797.76</time>
 </calculation>
 <calculation>
  <scstep>
   <time name="dav">   21.50   21.55</time>
   <time name="total">   22.04   22.09</time>
   <energy>
    <i name="alphaZ">     78.92465172 </i>
    <i name="ewald">  39380.90915496 </i>
    <i name="hartreedc"> -45338.36480309 </i>
    <i name="XCdc">   -239.07001985 </i>
    <i name="pawpsdc">   4192.03465892 </i>
    <i name="pawaedc">  -3610.03764029 </i>
    <i name="eentropy">     -0.28728349 </i>
    <i name="bandstr">  -1413.01568987 </i>
    <i name="atom">   6761.44252427 </i>
    <i name="e_fr_energy">   -187.46444670 </i>
    <i name="e_wo_entrp">   -187.17716321 </i>
    <i name="e_0_energy">   -187.32080496 </i>
   </energy>
  </scstep>
  <scstep>
   <time name="dav">   29.97   30.04</time>
   <time name="total">   30.51   30.59</time>
   <energy>
    <i name="e_fr_energy">   -189.36318983 </i>
    <i name="e_wo_entrp">   -189.04241492 </i>
    <i name="e_0_energy">   -189.20280238 </i>
   </energy>
  </scstep>
  <scstep>
   <time name="dav">   30.41   30.48</time>
   <time name="total">   30.96   31.04</time>
   <energy>
    <i name="e_fr_energy">   -189.34355528 </i>
    <i name="e_wo_entrp">   -189.06294349 </i>
    <i name="e_0_energy">   -189.20324939 </i>
   </energy>
  </scstep>
  <scstep>
   <time name="dav">   30.83   30.90</time>
   <time name="total">   31.38   31.46</time>
   <energy>
    <i name="e_fr_energy">   -188.73989975 </i>
    <i name="e_wo_entrp">   -188.45401795 </i>
    <i name="e_0_energy">   -188.59695885 </i>
   </energy>
  </scstep>
  <scstep>
   <time name="dav">   27.59   27.65</time>
   <time name="total">   28.13   28.21</time>
   <energy>
    <i name="e_fr_energy">   -188.74524101 </i>
    <i name="e_wo_entrp">   -188.45638424 </i>
    <i name="e_0_energy">   -188.60081263 </i>
   </energy>
  </scstep>
  <scstep>
   <time name="dav">   27.90   27.97</time>
   <time name="total">   28.45   28.53</time>
   <energy>
    <i name="e_fr_energy">   -188.67137083 </i>
    <i name="e_wo_entrp">   -188.38462306 </i>
    <i name="e_0_energy">   -188.52799694 </i>
   </energy>
  </scstep>
  <scstep>
   <time name="dav">   29.52   29.59</time>
   <time name="total">   30.06   30.14</time>
   <energy>
    <i name="e_fr_energy">   -188.68725173 </i>
    <i name="e_wo_entrp">   -188.40052567 </i>
    <i name="e_0_energy">   -188.54388870 </i>
   </energy>
  </scstep>
  <scstep>
   <time name="dav">   31.86   31.94</time>
   <time name="total">   32.41   32.50</time>
   <energy>
    <i name="e_fr_energy">   -188.64792876 </i>
    <i name="e_wo_entrp">   -188.36267481 </i>
    <i name="e_0_energy">   -188.50530179 </i>
   </energy>
  </scstep>
  <scstep>
   <time name="dav">   27.65   27.72</time>
   <time name="total">   28.20   28.28</time>
   <energy>
    <i name="e_fr_energy">   -188.64469032 </i>
    <i name="e_wo_entrp">   -188.35943329 </i>
    <i name="e_0_energy">   -188.50206180 </i>
   </energy>
  </scstep>
  <scstep>
   <time name="dav">   32.86   32.94</time>
   <time name="total">   33.41   33.50</time>
   <energy>
    <i name="e_fr_energy">   -188.64446114 </i>
    <i name="e_wo_entrp">   -188.35879749 </i>
    <i name="e_0_energy">   -188.50162932 </i>
   </energy>
  </scstep>
  <scstep>
   <time name="dav">   31.46   31.54</time>
   <time name="total">   32.00   32.09</time>
   <energy>
    <i name="e_fr_energy">   -188.64347867 </i>
    <i name="e_wo_entrp">   -188.35898010 </i>
    <i name="e_0_energy">   -188.50122938 </i>
   </energy>
  </scstep>
  <scstep>
   <time name="dav">   30.07   30.14</time>
   <time name="total">   30.61   30.69</time>
   <energy>
    <i name="e_fr_energy">   -188.64352128 </i>
    <i name="e_wo_entrp">   -188.35883220 </i>
    <i name="e_0_energy">   -188.50117674 </i>
   </energy>
  </scstep>
  <scstep>
   <time name="dav">   20.69   20.74</time>
   <time name="total">   20.73   20.78</time>
   <energy>
    <i name="alphaZ">     78.92465172 </i>
    <i name="ewald">  39380.90915496 </i>
    <i name="hartreedc"> -45349.21839047 </i>
    <i name="XCdc">   -237.97942053 </i>
    <i name="pawpsdc">   3950.37868991 </i>
    <i name="pawaedc">  -3364.88310938 </i>
    <i name="eentropy">     -0.28472329 </i>
    <i name="bandstr">  -1407.93280907 </i>
    <i name="atom">   6761.44252427 </i>
    <i name="e_fr_energy">   -188.64343186 </i>
    <i name="e_wo_entrp">   -188.35870858 </i>
    <i name="e_0_energy">   -188.50107022 </i>
   </energy>
  </scstep>
  <structure>
   <crystal>
    <varray name="basis" >
     <v>       8.85447809       5.10420587       0.00000000 </v>
     <v>      -8.85583094       5.10653358       0.00000000 </v>
     <v>       0.00000000       0.00000000      30.00000000 </v>
    </varray>
    <i name="volume">   2712.53022045 </i>
    <varray name="rec_basis" >
     <v>       0.05647716       0.09794358       0.00000000 </v>
     <v>      -0.05645142       0.09792862       0.00000000 </v>
     <v>       0.00000000       0.00000000       0.03333333 </v>
    </varray>
   </crystal>
   <varray name="positions" >
    <v>       0.33404675       0.00074877       0.00013417 </v>
    <v>      -0.00116872       0.66715818      -0.00005463 </v>
    <v>       0.66815736       0.66773799      -0.00016641 </v>
    <v>      -0.00130790      -0.00028848      -0.00011775 </v>
    <v>       0.66671602       0.33204702       0.00003131 </v>
    <v>       0.66801169       0.00136752       0.00019452 </v>
    <v>       0.99676098       0.33039171       0.00003019 </v>
    <v>       0.33364508       0.33172038      -0.00013996 </v>
    <v>       0.33475847       0.66851244       0.00007138 </v>
    <v>       0.11164378       0.22315822       0.95071983 </v>
    <v>       0.22506905       0.10945987       0.04803651 </v>
    <v>       0.10907327       0.55739396       0.95204691 </v>
    <v>       0.22195025       0.44441827       0.04920691 </v>
    <v>       0.11313404       0.88662196       0.95309684 </v>
    <v>       0.22048947       0.77951899       0.04698838 </v>
    <v>       0.44167845       0.21817322       0.95190854 </v>
    <v>       0.55089763       0.10872305       0.04808467 </v>
    <v>       0.44813983       0.55725555       0.95186141 </v>
    <v>       0.55674879       0.44839912       0.04800835 </v>
    <v>       0.44144862       0.89022026       0.95203003 </v>
    <v>       0.55689880       0.77487976       0.04798052 </v>
    <v>       0.77876268       0.22276933       0.95068800 </v>
    <v>       0.88923358       0.11200734       0.04934320 </v>
    <v>       0.77961607       0.55998310       0.95309842 </v>
    <v>       0.89150793       0.44840431       0.04806826 </v>
    <v>       0.77546983       0.88416378       0.95194167 </v>
    <v>       0.88683265       0.77326883       0.04690861 </v>
   </varray>
  </structure>
  <varray name="forces" >
   <v>      -0.00678279       0.16185698       0.02667836 </v>
   <v>      -0.18951759      -0.05756072      -0.09966376 </v>
   <v>       0.00372138       0.16173986      -0.04883448 </v>
   <v>      -0.44769876       0.04416660      -0.09017762 </v>
   <v>       0.34555861      -0.15641186       0.08608972 </v>
   <v>      -0.00917282       0.48621867       0.03096465 </v>
   <v>       0.05425835      -0.71736563       0.01102217 </v>
   <v>       0.16841562      -0.12273268       0.07144643 </v>
   <v>       0.04814061       0.25369021      -0.00066178 </v>
   <v>      -0.09110753       0.12230723      -0.03375879 </v>
   <v>      -0.00631143       0.09184663      -0.00893074 </v>
   <v>       0.10113685       0.00591168       0.23877897 </v>
   <v>       0.01275975      -0.01159667      -0.25770480 </v>
   <v>       0.03317132      -0.00778252       0.16440769 </v>
   <v>       0.09212241       0.01562860      -0.12320268 </v>
   <v>      -0.09419728      -0.06871465      -0.05844234 </v>
   <v>      -0.02614803      -0.07725016       0.12453185 </v>
   <v>      -0.04188455      -0.04354991       0.10221157 </v>
   <v>      -0.08188297      -0.04996727      -0.14638983 </v>
   <v>       0.02233631      -0.10588906       0.04418448 </v>
   <v>      -0.01792310      -0.09919820      -0.00069362 </v>
   <v>       0.06098489       0.09473581      -0.23803177 </v>
   <v>      -0.05659682       0.09306145       0.28062488 </v>
   <v>      -0.00617216       0.04330866       0.05216629 </v>
   <v>       0.10250147       0.05890234      -0.03649187 </v>
   <v>       0.02377191      -0.07702952      -0.08487994 </v>
   <v>       0.00651634      -0.03832589      -0.00524304 </v>
  </varray>
  <varray name="stress" >
   <v>     -19.88720943       0.00933748       0.01216602 </v>
   <v>       0.00933737     -19.47271818       0.02022679 </v>
   <v>       0.01216596       0.02022684      -1.75074938 </v>
  </varray>
  <energy>
   <i name="e_fr_energy">   -188.64343186 </i>
   <i name="e_wo_entrp">   -188.50107022 </i>
   <i name="e_0_energy">     -0.28472329 </i>
  </energy>
  <time name="totalsc">  421.25  422.38</time>
 </calculation>
 <calculation>
  <scstep>
   <time name="dav">   23.72   23.78</time>
   <time name="total">   24.26   24.32</time>
   <energy>
    <i name="alphaZ">     82.35069612 </i>
    <i name="ewald">  41305.25016382 </i>
    <i name="hartreedc"> -47304.12701649 </i>
    <i name="XCdc">   -233.85461516 </i>
    <i name="pawpsdc">   3949.82444950 </i>
    <i name="pawaedc">  -3364.32404793 </i>
    <i name="eentropy">     -0.23751114 </i>
    <i name="bandstr">  -1386.88812329 </i>
    <i name="atom">   6761.44252427 </i>
    <i name="e_fr_energy">   -190.56348029 </i>
    <i name="e_wo_entrp">   -190.32596916 </i>
    <i name="e_0_energy">   -190.44472473 </i>
   </energy>
  </scstep>
  <scstep>
   <time name="dav">   28.19   28.26</time>
   <time name="total">   28.72   28.79</time>
   <energy>
    <i name="e_fr_energy">   -190.55088567 </i>
    <i name="e_wo_entrp">   -190.30819379 </i>
    <i name="e_0_energy">   -190.42953973 </i>
   </energy>
  </scstep>
  <scstep>
   <time name="dav">   30.18   30.25</time>
   <time name="total">   30.71   30.79</time>
   <energy>
    <i name="e_fr_energy">   -190.03777683 </i>
    <i name="e_wo_entrp">   -189.78919401 </i>
    <i name="e_0_energy">   -189.91348542 </i>
   </energy>
  </scstep>
  <scstep>
   <time name="dav">   30.93   31.00</time>
   <time name="total">   31.46   31.54</time>
   <energy>
    <i name="e_fr_energy">   -189.83240496 </i>
    <i name="e_wo_entrp">   -189.59246170 </i>
    <i name="e_0_energy">   -189.71243333 </i>
   </energy>
  </scstep>
  <scstep>
   <time name="dav">   28.68   28.75</time>
   <time name="total">   29.21   29.29</time>
   <energy>
    <i name="e_fr_energy">   -189.74500823 </i>
    <i name="e_wo_entrp">   -189.50309007 </i>
    <i name="e_0_energy">   -189.62404915 </i>
   </energy>
  </scstep>
  <scstep>
   <time name="dav">   26.58   26.65</time>
   <time name="total">   27.11   27.19</time>
   <energy>
    <i name="e_fr_energy">   -189.72985914 </i>
    <i name="e_wo_entrp">   -189.48886992 </i>
    <i name="e_0_energy">   -189.60936453 </i>
   </energy>
  </scstep>
  <scstep>
   <time name="dav">   30.15   30.23</time>
   <time name="total">   30.69   30.77</time>
   <energy>
    <i name="e_fr_energy">   -189.73149221 </i>
    <i name="e_wo_entrp">   -189.48993252 </i>
    <i name="e_0_energy">   -189.61071236 </i>
   </energy>
  </scstep>
  <scstep>
   <time name="dav">   30.05   30.12</time>
   <time name="total">   30.59   30.67</time>
   <energy>
    <i name="e_fr_energy">   -189.73024900 </i>
    <i name="e_wo_entrp">   -189.48939179 </i>
    <i name="e_0_energy">   -189.60982040 </i>
   </energy>
  </scstep>
  <scstep>
   <time name="dav">   25.52   25.59</time>
   <time name="total">   26.06   26.14</time>
   <energy>
    <i name="e_fr_energy">   -189.73026801 </i>
    <i name="e_wo_entrp">   -189.48908382 </i>
    <i name="e_0_energy">   -189.60967591 </i>
   </energy>
  </scstep>
  <scstep>
   <time name="dav">   26.50   26.57</time>
   <time name="total">   26.54   26.61</time>
   <energy>
    <i name="alphaZ">     82.35069612 </i>
    <i name="ewald">  41305.25016382 </i>
    <i name="hartreedc"> -47277.19192394 </i>
    <i name="XCdc">   -235.24343971 </i>
    <i name="pawpsdc">   4037.10869862 </i>
    <i name="pawaedc">  -3452.79776598 </i>
    <i name="eentropy">     -0.24108105 </i>
    <i name="bandstr">  -1410.40817718 </i>
    <i name="atom">   6761.44252427 </i>
    <i name="e_fr_energy">   -189.73030503 </i>
    <i name="e_wo_entrp">   -189.48922397 </i>
    <i name="e_0_energy">   -189.60976450 </i>
   </energy>
  </scstep>
  <structure>
   <crystal>
    <varray name="basis" >
     <v>       8.66642551       4.99812101       0.00000000 </v>
     <v>      -8.66764778       5.00022365       0.00000000 </v>
     <v>       0.00000000       0.00000000      30.00000000 </v>
    </varray>
    <i name="volume">   2599.68054934 </i>
    <varray name="rec_basis" >
     <v>       0.05770198       0.10002361       0.00000000 </v>
     <v>      -0.05767771       0.10000951       0.00000000 </v>
     <v>       0.00000000       0.00000000       0.03333333 </v>
    </varray>
   </crystal>
   <varray name="positions" >
    <v>       0.33431029       0.00102532       0.00014931 </v>
    <v>      -0.00144710       0.66724441      -0.00011123 </v>
    <v>       0.66843081       0.66800424      -0.00019414 </v>
    <v>      -0.00166495       0.00021575      -0.00016896 </v>
    <v>       0.66678751       0.33145376       0.00008020 </v>
    <v>       0.66881414       0.00218749       0.00021211 </v>
    <v>       0.99561623       0.32914276       0.00003645 </v>
    <v>       0.33360233       0.33135367      -0.00009938 </v>
    <v>       0.33522808       0.66888937       0.00007101 </v>
    <v>       0.11176020       0.22344988       0.95070066 </v>
    <v>       0.22521623       0.10961917       0.04803144 </v>
    <v>       0.10918044       0.55730656       0.95218250 </v>
    <v>       0.22194318       0.44438665       0.04906057 </v>
    <v>       0.11315297       0.88657708       0.95319020 </v>
    <v>       0.22060418       0.77945647       0.04691842 </v>
    <v>       0.44147317       0.21814917       0.95187535 </v>
    <v>       0.55074358       0.10861932       0.04815539 </v>
    <v>       0.44802687       0.55722318       0.95191945 </v>
    <v>       0.55658664       0.44839451       0.04792522 </v>
    <v>       0.44129343       0.89002213       0.95205512 </v>
    <v>       0.55671604       0.77473151       0.04798012 </v>
    <v>       0.77897942       0.22286873       0.95055284 </v>
    <v>       0.88933441       0.11221702       0.04950256 </v>
    <v>       0.77968240       0.56006129       0.95312805 </v>
    <v>       0.89170483       0.44840400       0.04804754 </v>
    <v>       0.77536418       0.88401241       0.95189347 </v>
    <v>       0.88677497       0.77319863       0.04690564 </v>
   </varray>
  </structure>
  <varray name="forces" >
   <v>      -0.01240147       0.18520788       0.00489182 </v>
   <v>      -0.14235195      -0.05139043      -0.09267210 </v>
   <v>      -0.04023083       0.10684909      -0.02344448 </v>
   <v>      -0.52331342       0.11720087      -0.06749219 </v>
   <v>       0.37404255      -0.18470714       0.07627139 </v>
   <v>      -0.01117523       0.53552887       0.00288993 </v>
   <v>       0.10288828      -0.72796129       0.00514600 </v>
   <v>       0.11885443      -0.13237629       0.08765738 </v>
   <v>       0.08409843       0.22667762      -0.01480946 </v>
   <v>      -0.06041539       0.06428181      -0.60249470 </v>
   <v>       0.10735298       0.00009279       0.48905764 </v>
   <v>      -0.03097878      -0.00963247      -0.23780600 </v>
   <v>       0.00239987      -0.02429413       0.27133734 </v>
   <v>       0.10113799       0.00441526      -0.26960580 </v>
   <v>      -0.07847311       0.01442372       0.34225955 </v>
   <v>       0.04143444      -0.13005819      -0.56537962 </v>
   <v>      -0.05559888      -0.14989602       0.62736841 </v>
   <v>       0.04365491       0.07642663      -0.40980526 </v>
   <v>      -0.06791155       0.08662768       0.33922432 </v>
   <v>      -0.08949283      -0.01303586      -0.44783707 </v>
   <v>       0.09643834      -0.00498096       0.50281721 </v>
   <v>       0.01489484       0.00993925      -0.81611386 </v>
   <v>      -0.00717686       0.01354059       0.87255242 </v>
   <v>      -0.03042245       0.08628769      -0.39354711 </v>
   <v>      -0.01456774       0.12508069       0.46211378 </v>
   <v>       0.04244719      -0.13804888      -0.58195054 </v>
   <v>       0.03486622      -0.08619879       0.43937099 </v>
  </varray>
  <varray name="stress" >
   <v>     -10.15145228       0.00858820      -0.00575635 </v>
   <v>       0.00858827      -9.82750004       0.02365130 </v>
   <v>      -0.00575607       0.02365123       6.58953955 </v>
  </varray>
  <energy>
   <i name="e_fr_energy">   -189.73030503 </i>
   <i name="e_wo_entrp">   -189.60976450 </i>
   <i name="e_0_energy">     -0.24108105 </i>
  </energy>
  <time name="totalsc">  327.34  328.20</time>
 </calculation>
 <calculation>
  <scstep>
   <time name="dav">   21.49   21.54</time>
   <time name="total">   22.02   22.07</time>
   <energy>
    <i name="alphaZ">     85.83342167 </i>
    <i name="ewald">  42838.19501798 </i>
    <i name="hartreedc"> -48854.62376366 </i>
    <i name="XCdc">   -232.95563854 </i>
    <i name="pawpsdc">   4037.83973440 </i>
    <i name="pawaedc">  -3453.53505334 </i>
    <i name="eentropy">     -0.20224314 </i>
    <i name="bandstr">  -1373.28725178 </i>
    <i name="atom">   6761.44252427 </i>
    <i name="e_fr_energy">   -191.29325212 </i>
    <i name="e_wo_entrp">   -191.09100899 </i>
    <i name="e_0_energy">   -191.19213055 </i>
   </energy>
  </scstep>
  <scstep>
   <time name="dav">   31.86   31.93</time>
   <time name="total">   32.37   32.46</time>
   <energy>
    <i name="e_fr_energy">   -191.19328378 </i>
    <i name="e_wo_entrp">   -190.98276697 </i>
    <i name="e_0_energy">   -191.08802538 </i>
   </energy>
  </scstep>
  <scstep>
   <time name="dav">   29.70   29.77</time>
   <time name="total">   30.21   30.30</time>
   <energy>
    <i name="e_fr_energy">   -191.19844171 </i>
    <i name="e_wo_entrp">   -190.98097187 </i>
    <i name="e_0_energy">   -191.08970679 </i>
   </energy>
  </scstep>
  <scstep>
   <time name="dav">   31.04   31.11</time>
   <time name="total">   31.55   31.64</time>
   <energy>
    <i name="e_fr_energy">   -190.86440441 </i>
    <i name="e_wo_entrp">   -190.65263869 </i>
    <i name="e_0_energy">   -190.75852155 </i>
   </energy>
  </scstep>
  <scstep>
   <time name="dav">   29.22   29.29</time>
   <time name="total">   29.74   29.82</time>
   <energy>
    <i name="e_fr_energy">   -190.85103744 </i>
    <i name="e_wo_entrp">   -190.64618774 </i>
    <i name="e_0_energy">   -190.74861259 </i>
   </energy>
  </scstep>
  <scstep>
   <time name="dav">   29.90   29.97</time>
   <time name="total">   30.42   30.50</time>
   <energy>
    <i name="e_fr_energy">   -190.71246367 </i>
    <i name="e_wo_entrp">   -190.50203224 </i>
    <i name="e_0_energy">   -190.60724795 </i>
   </energy>
  </scstep>
  <scstep>
   <time name="dav">   30.41   30.48</time>
   <time name="total">   30.92   31.01</time>
   <energy>
    <i name="e_fr_energy">   -190.70381146 </i>
    <i name="e_wo_entrp">   -190.49508758 </i>
    <i name="e_0_energy">   -190.59944952 </i>
   </energy>
  </scstep>
  <scstep>
   <time name="dav">   25.75   25.81</time>
   <time name="total">   26.26   26.33</time>
   <energy>
    <i name="e_fr_energy">   -190.70104000 </i>
    <i name="e_wo_entrp">   -190.49210432 </i>
    <i name="e_0_energy">   -190.59657216 </i>
   </energy>
  </scstep>
  <scstep>
   <time name="dav">   28.38   28.44</time>
   <time name="total">   28.90   28.97</time>
   <energy>
    <i name="e_fr_energy">   -190.70121887 </i>
    <i name="e_wo_entrp">   -190.49231362 </i>
    <i name="e_0_energy">   -190.59676625 </i>
   </energy>
  </scstep>
  <scstep>
   <time name="dav">   26.87   26.94</time>
   <time name="total">   27.39   27.47</time>
   <energy>
    <i name="e_fr_energy">   -190.70113410 </i>
    <i name="e_wo_entrp">   -190.49212126 </i>
    <i name="e_0_energy">   -190.59662768 </i>
   </energy>
  </scstep>
  <scstep>
   <time name="dav">   25.94   26.01</time>
   <time name="total">   26.46   26.54</time>
   <energy>
    <i name="e_fr_energy">   -190.70095841 </i>
    <i name="e_wo_entrp">   -190.49210231 </i>
    <i name="e_0_energy">   -190.59653036 </i>
   </energy>
  </scstep>
  <scstep>
   <time name="dav">   21.36   21.41</time>
   <time name="total">   21.39   21.45</time>
   <energy>
    <i name="alphaZ">     85.83342167 </i>
    <i name="ewald">  42838.19501798 </i>
    <i name="hartreedc"> -48826.39567540 </i>
    <i name="XCdc">   -234.28643725 </i>
    <i name="pawpsdc">   4063.77143248 </i>
    <i name="pawaedc">  -3479.65403452 </i>
    <i name="eentropy">     -0.20889613 </i>
    <i name="bandstr">  -1399.39829677 </i>
    <i name="atom">   6761.44252427 </i>
    <i name="e_fr_energy">   -190.70094366 </i>
    <i name="e_wo_entrp">   -190.49204753 </i>
    <i name="e_0_energy">   -190.59649559 </i>
   </energy>
  </scstep>
  <structure>
   <crystal>
    <varray name="basis" >
     <v>       8.48453427       4.89846481       0.00000000 </v>
     <v>      -8.48543434       4.90001133       0.00000000 </v>
     <v>       0.00000000       0.00000000      30.00000000 </v>
    </varray>
    <i name="volume">   2494.19746727 </i>
    <varray name="rec_basis" >
     <v>       0.05893693       0.10206210       0.00000000 </v>
     <v>      -0.05891833       0.10205127       0.00000000 </v>
     <v>       0.00000000       0.00000000       0.03333333 </v>
    </varray>
   </crystal>
   <varray name="positions" >
    <v>       0.33547652       0.00229722       0.00014096 </v>
    <v>      -0.00220089       0.66738456      -0.00029725 </v>
    <v>       0.66875502       0.66874568      -0.00022116 </v>
    <v>      -0.00274959       0.00313293      -0.00028951 </v>
    <v>       0.66695292       0.32883239       0.00022985 </v>
    <v>       0.67225064       0.00571009       0.00019427 </v>
    <v>       0.99146876       0.32411203       0.00004212 </v>
    <v>       0.33310713       0.33014150       0.00009594 </v>
    <v>       0.33693747       0.66988702       0.00002833 </v>
    <v>       0.11184408       0.22388243       0.94897013 </v>
    <v>       0.22553972       0.10883957       0.04946698 </v>
    <v>       0.10877932       0.55750929       0.95128554 </v>
    <v>       0.22175302       0.44420895       0.05007150 </v>
    <v>       0.11367456       0.88617185       0.95226349 </v>
    <v>       0.22016251       0.78007272       0.04802230 </v>
    <v>       0.44084983       0.21683642       0.95027413 </v>
    <v>       0.54937943       0.10774209       0.04988153 </v>
    <v>       0.44908593       0.55772052       0.95063616 </v>
    <v>       0.55724468       0.44950339       0.04903992 </v>
    <v>       0.44095878       0.89065614       0.95071002 </v>
    <v>       0.55743293       0.77442217       0.04944885 </v>
    <v>       0.77881791       0.22273202       0.94837190 </v>
    <v>       0.88926611       0.11205858       0.05181214 </v>
    <v>       0.78018554       0.56085407       0.95193469 </v>
    <v>       0.89243288       0.44957381       0.04942780 </v>
    <v>       0.77452708       0.88281479       0.95026630 </v>
    <v>       0.88628215       0.77237225       0.04819297 </v>
   </varray>
  </structure>
  <varray name="forces" >
   <v>      -0.01651686       0.16851233      -0.03615179 </v>
   <v>      -0.11267964      -0.03037626      -0.04978087 </v>
   <v>      -0.08880060       0.03089986       0.03459633 </v>
   <v>      -0.56753412       0.14622945      -0.01323422 </v>
   <v>       0.37865892      -0.16938623       0.04042759 </v>
   <v>       0.01754613       0.54699372      -0.02170282 </v>
   <v>       0.12933960      -0.73277690       0.00012433 </v>
   <v>       0.10434280      -0.13006261       0.06561379 </v>
   <v>       0.08731397       0.28471191      -0.01664501 </v>
   <v>      -0.04870193       0.01786079      -0.44808624 </v>
   <v>       0.02939609      -0.07148509       0.33029851 </v>
   <v>       0.03376396      -0.07141643      -0.06821626 </v>
   <v>      -0.04415248      -0.07647305       0.09576845 </v>
   <v>      -0.05017717       0.01568806      -0.18550636 </v>
   <v>      -0.05133541       0.01023054       0.25795196 </v>
   <v>       0.05071283      -0.03806058      -0.36662154 </v>
   <v>       0.03214515      -0.05223355       0.49198383 </v>
   <v>       0.08258117       0.04368543      -0.28989762 </v>
   <v>       0.04206616       0.04564782       0.17905174 </v>
   <v>      -0.00138020       0.07165910      -0.27380477 </v>
   <v>       0.02596816       0.08569741       0.32155251 </v>
   <v>      -0.00514478      -0.03534459      -0.62473689 </v>
   <v>      -0.00209871      -0.04597847       0.71494978 </v>
   <v>       0.01504012      -0.02806614      -0.28980502 </v>
   <v>       0.01552747       0.00949588       0.29397658 </v>
   <v>      -0.01942156      -0.00981567      -0.42016450 </v>
   <v>      -0.03645907       0.01416329       0.27805852 </v>
  </varray>
  <varray name="stress" >
   <v>      -5.73874806      -0.06924901      -0.03633335 </v>
   <v>      -0.06924886      -5.65838089      -0.04957493 </v>
   <v>      -0.03633347      -0.04957484       4.48937385 </v>
  </varray>
  <energy>
   <i name="e_fr_energy">   -190.70094366 </i>
   <i name="e_wo_entrp">   -190.59649559 </i>
   <i name="e_0_energy">     -0.20889613 </i>
  </energy>
  <time name="totalsc">  379.51  380.53</time>
 </calculation>
 <calculation>
  <scstep>
   <time name="dav">   21.51   21.57</time>
   <time name="total">   22.02   22.08</time>
   <energy>
    <i name="alphaZ">     90.12562760 </i>
    <i name="ewald">  44641.30819692 </i>
    <i name="hartreedc"> -50684.18551734 </i>
    <i name="XCdc">   -231.87639230 </i>
    <i name="pawpsdc">   4063.72029666 </i>
    <i name="pawaedc">  -3479.59739819 </i>
    <i name="eentropy">     -0.19262293 </i>
    <i name="bandstr">  -1352.76259468 </i>
    <i name="atom">   6761.44252427 </i>
    <i name="e_fr_energy">   -192.01787998 </i>
    <i name="e_wo_entrp">   -191.82525705 </i>
    <i name="e_0_energy">   -191.92156851 </i>
   </energy>
  </scstep>
  <scstep>
   <time name="dav">   29.98   30.05</time>
   <time name="total">   30.48   30.57</time>
   <energy>
    <i name="e_fr_energy">   -191.87881456 </i>
    <i name="e_wo_entrp">   -191.67383816 </i>
    <i name="e_0_energy">   -191.77632636 </i>
   </energy>
  </scstep>
  <scstep>
   <time name="dav">   28.15   28.21</time>
   <time name="total">   28.65   28.73</time>
   <energy>
    <i name="e_fr_energy">   -192.20303575 </i>
    <i name="e_wo_entrp">   -191.99575502 </i>
    <i name="e_0_energy">   -192.09939539 </i>
   </energy>
  </scstep>
  <scstep>
   <time name="dav">   29.55   29.62</time>
   <time name="total">   30.06   30.14</time>
   <energy>
    <i name="e_fr_energy">   -191.57640964 </i>
    <i name="e_wo_entrp">   -191.37221881 </i>
    <i name="e_0_energy">   -191.47431422 </i>
   </energy>
  </scstep>
  <scstep>
   <time name="dav">   29.88   29.95</time>
   <time name="total">   30.39   30.47</time>
   <energy>
    <i name="e_fr_energy">   -191.50989614 </i>
    <i name="e_wo_entrp">   -191.31429214 </i>
    <i name="e_0_energy">   -191.41209414 </i>
   </energy>
  </scstep>
  <scstep>
   <time name="dav">   29.89   29.96</time>
   <time name="total">   30.40   30.48</time>
   <energy>
    <i name="e_fr_energy">   -191.33306445 </i>
    <i name="e_wo_entrp">   -191.13086389 </i>
    <i name="e_0_energy">   -191.23196417 </i>
   </energy>
  </scstep>
  <scstep>
   <time name="dav">   29.88   29.95</time>
   <time name="total">   30.41   30.49</time>
   <energy>
    <i name="e_fr_energy">   -191.32652206 </i>
    <i name="e_wo_entrp">   -191.12533960 </i>
    <i name="e_0_energy">   -191.22593083 </i>
   </energy>
  </scstep>
  <scstep>
   <time name="dav">   29.28   29.35</time>
   <time name="total">   29.79   29.87</time>
   <energy>
    <i name="e_fr_energy">   -191.32487186 </i>
    <i name="e_wo_entrp">   -191.12398144 </i>
    <i name="e_0_energy">   -191.22442665 </i>
   </energy>
  </scstep>
  <scstep>
   <time name="dav">   29.13   29.20</time>
   <time name="total">   29.64   29.72</time>
   <energy>
    <i name="e_fr_energy">   -191.32088370 </i>
    <i name="e_wo_entrp">   -191.11964541 </i>
    <i name="e_0_energy">   -191.22026456 </i>
   </energy>
  </scstep>
  <scstep>
   <time name="dav">   27.26   27.33</time>
   <time name="total">   27.77   27.85</time>
   <energy>
    <i name="e_fr_energy">   -191.32132034 </i>
    <i name="e_wo_entrp">   -191.12022354 </i>
    <i name="e_0_energy">   -191.22077194 </i>
   </energy>
  </scstep>
  <scstep>
   <time name="dav">   28.01   28.08</time>
   <time name="total">   28.52   28.59</time>
   <energy>
    <i name="e_fr_energy">   -191.32108481 </i>
    <i name="e_wo_entrp">   -191.11996724 </i>
    <i name="e_0_energy">   -191.22052602 </i>
   </energy>
  </scstep>
  <scstep>
   <time name="dav">   18.33   18.37</time>
   <time name="total">   18.36   18.42</time>
   <energy>
    <i name="alphaZ">     90.12562760 </i>
    <i name="ewald">  44641.30819692 </i>
    <i name="hartreedc"> -50650.91516573 </i>
    <i name="XCdc">   -233.37800106 </i>
    <i name="pawpsdc">   4084.63155827 </i>
    <i name="pawaedc">  -3500.59502588 </i>
    <i name="eentropy">     -0.20115501 </i>
    <i name="bandstr">  -1383.73964631 </i>
    <i name="atom">   6761.44252427 </i>
    <i name="e_fr_energy">   -191.32108690 </i>
    <i name="e_wo_entrp">   -191.11993190 </i>
    <i name="e_0_energy">   -191.22050940 </i>
   </energy>
  </scstep>
  <structure>
   <crystal>
    <varray name="basis" >
     <v>       8.27567057       4.77830444       0.00000000 </v>
     <v>      -8.28054462       4.78673464       0.00000000 </v>
     <v>       0.00000000       0.00000000      30.00000000 </v>
    </varray>
    <i name="volume">   2375.41206234 </i>
    <varray name="rec_basis" >
     <v>       0.06045353       0.10457821       0.00000000 </v>
     <v>      -0.06034706       0.10451665       0.00000000 </v>
     <v>       0.00000000       0.00000000       0.03333333 </v>
    </varray>
   </crystal>
   <varray name="positions" >
    <v>       0.33750654       0.00457052      -0.00000227 </v>
    <v>      -0.00333405       0.66774153      -0.00051126 </v>
    <v>       0.66844898       0.66974364      -0.00008962 </v>
    <v>      -0.00488742       0.00916117      -0.00034889 </v>
    <v>       0.66749092       0.32394690       0.00040016 </v>
    <v>       0.67914443       0.01241710       0.00009369 </v>
    <v>       0.98346576       0.31417685       0.00003957 </v>
    <v>       0.33215566       0.32785445       0.00038442 </v>
    <v>       0.34091271       0.67251867      -0.00005066 </v>
    <v>       0.11166920       0.22431555       0.94655316 </v>
    <v>       0.22499186       0.10735478       0.05134891 </v>
    <v>       0.10792393       0.55673604       0.95046139 </v>
    <v>       0.22058522       0.44360910       0.05105938 </v>
    <v>       0.11378462       0.88647726       0.95105935 </v>
    <v>       0.21962239       0.78086938       0.04954533 </v>
    <v>       0.44063002       0.21547314       0.94821779 </v>
    <v>       0.54846760       0.10664133       0.05239907 </v>
    <v>       0.45070166       0.55796458       0.94892194 </v>
    <v>       0.55847424       0.45030342       0.05030882 </v>
    <v>       0.44168111       0.89193372       0.94905056 </v>
    <v>       0.55903688       0.77514925       0.05131328 </v>
    <v>       0.77812615       0.22222630       0.94522342 </v>
    <v>       0.88863775       0.11130698       0.05531509 </v>
    <v>       0.78017712       0.56080005       0.95029380 </v>
    <v>       0.89281670       0.45018118       0.05117079 </v>
    <v>       0.77397412       0.88235634       0.94802611 </v>
    <v>       0.88601033       0.77238525       0.04981658 </v>
   </varray>
  </structure>
  <varray name="forces" >
   <v>       0.00500978       0.11171824       0.03787922 </v>
   <v>      -0.12098679      -0.00057365      -0.02939579 </v>
   <v>      -0.10093961      -0.01670125      -0.00576964 </v>
   <v>      -0.21777610       0.08806361       0.05596291 </v>
   <v>       0.16667285      -0.11904872      -0.02291095 </v>
   <v>       0.03339052       0.02522522       0.03466379 </v>
   <v>       0.04521535      -0.22845663      -0.04250759 </v>
   <v>       0.11170070      -0.15472054      -0.00690557 </v>
   <v>       0.00783267       0.37868359      -0.00591725 </v>
   <v>      -0.09576082       0.01808290      -0.13407568 </v>
   <v>      -0.05341588      -0.09771904       0.02362922 </v>
   <v>       0.17748794      -0.15263685       0.24908192 </v>
   <v>      -0.11000829      -0.13603312      -0.21663114 </v>
   <v>      -0.24181775       0.04443513       0.05179669 </v>
   <v>       0.01532623       0.03478863      -0.02076288 </v>
   <v>       0.02039673       0.03350102      -0.05924855 </v>
   <v>       0.12987612       0.03586234       0.11747257 </v>
   <v>       0.08256486      -0.01653201      -0.00266852 </v>
   <v>       0.16696237      -0.04665266      -0.06234536 </v>
   <v>       0.08421976       0.14982453      -0.03947053 </v>
   <v>      -0.04793045       0.15705127       0.06471683 </v>
   <v>      -0.02158760      -0.03599329      -0.27403540 </v>
   <v>      -0.01066748      -0.07472118       0.34358171 </v>
   <v>       0.02612202      -0.12587915       0.02411229 </v>
   <v>       0.13456769      -0.10853534      -0.00351257 </v>
   <v>      -0.09227521       0.14201882      -0.06820589 </v>
   <v>      -0.09417960       0.09494814      -0.00853387 </v>
  </varray>
  <varray name="stress" >
   <v>      -0.07823347      -0.19331050       0.21379733 </v>
   <v>      -0.19331067       0.24437476      -0.22608980 </v>
   <v>       0.21379713      -0.22608976      -0.59206765 </v>
  </varray>
  <energy>
   <i name="e_fr_energy">   -191.32108690 </i>
   <i name="e_wo_entrp">   -191.22050940 </i>
   <i name="e_0_energy">     -0.20115501 </i>
  </energy>
  <time name="totalsc">  378.22  379.23</time>
 </calculation>
 <calculation>
  <scstep>
   <time name="dav">   21.50   21.55</time>
   <time name="total">   22.01   22.06</time>
   <energy>
    <i name="alphaZ">     90.09042741 </i>
    <i name="ewald">  44606.10288827 </i>
    <i name="hartreedc"> -50616.11697106 </i>
    <i name="XCdc">   -233.48041446 </i>
    <i name="pawpsdc">   4084.54876907 </i>
    <i name="pawaedc">  -3500.50834052 </i>
    <i name="eentropy">     -0.20412397 </i>
    <i name="bandstr">  -1383.23708529 </i>
    <i name="atom">   6761.44252427 </i>
    <i name="e_fr_energy">   -191.36232629 </i>
    <i name="e_wo_entrp">   -191.15820231 </i>
    <i name="e_0_energy">   -191.26026430 </i>
   </energy>
  </scstep>
  <scstep>
   <time name="dav">   30.87   30.94</time>
   <time name="total">   31.38   31.46</time>
   <energy>
    <i name="e_fr_energy">   -191.40363367 </i>
    <i name="e_wo_entrp">   -191.19656179 </i>
    <i name="e_0_energy">   -191.30009773 </i>
   </energy>
  </scstep>
  <scstep>
   <time name="dav">   29.63   29.71</time>
   <time name="total">   30.14   30.22</time>
   <energy>
    <i name="e_fr_energy">   -191.37411280 </i>
    <i name="e_wo_entrp">   -191.17031479 </i>
    <i name="e_0_energy">   -191.27221380 </i>
   </energy>
  </scstep>
  <scstep>
   <time name="dav">   27.44   27.50</time>
   <time name="total">   27.94   28.02</time>
   <energy>
    <i name="e_fr_energy">   -191.37399789 </i>
    <i name="e_wo_entrp">   -191.16914019 </i>
    <i name="e_0_energy">   -191.27156904 </i>
   </energy>
  </scstep>
  <scstep>
   <time name="dav">   25.96   26.03</time>
   <time name="total">   26.47   26.54</time>
   <energy>
    <i name="e_fr_energy">   -191.37191492 </i>
    <i name="e_wo_entrp">   -191.16733295 </i>
    <i name="e_0_energy">   -191.26962393 </i>
   </energy>
  </scstep>
  <scstep>
   <time name="dav">   25.90   25.96</time>
   <time name="total">   26.41   26.48</time>
   <energy>
    <i name="e_fr_energy">   -191.37179925 </i>
    <i name="e_wo_entrp">   -191.16711785 </i>
    <i name="e_0_energy">   -191.26945855 </i>
   </energy>
  </scstep>
  <scstep>
   <time name="dav">   26.59   26.66</time>
   <time name="total">   27.10   27.17</time>
   <energy>
    <i name="e_fr_energy">   -191.37215741 </i>
    <i name="e_wo_entrp">   -191.16759759 </i>
    <i name="e_0_energy">   -191.26987750 </i>
   </energy>
  </scstep>
  <scstep>
   <time name="dav">   23.42   23.48</time>
   <time name="total">   23.93   23.99</time>
   <energy>
    <i name="e_fr_energy">   -191.37151246 </i>
    <i name="e_wo_entrp">   -191.16689092 </i>
    <i name="e_0_energy">   -191.26920169 </i>
   </energy>
  </scstep>
  <scstep>
   <time name="dav">   17.03   17.08</time>
   <time name="total">   17.08   17.12</time>
   <energy>
    <i name="alphaZ">     90.09042741 </i>
    <i name="ewald">  44606.10288827 </i>
    <i name="hartreedc"> -50617.32770821 </i>
    <i name="XCdc">   -233.45072678 </i>
    <i name="pawpsdc">   4081.28715864 </i>
    <i name="pawaedc">  -3497.20218912 </i>
    <i name="eentropy">     -0.20466539 </i>
    <i name="bandstr">  -1382.10923584 </i>
    <i name="atom">   6761.44252427 </i>
    <i name="e_fr_energy">   -191.37152674 </i>
    <i name="e_wo_entrp">   -191.16686135 </i>
    <i name="e_0_energy">   -191.26919405 </i>
   </energy>
  </scstep>
  <structure>
   <crystal>
    <varray name="basis" >
     <v>       8.27128054       4.77703320       0.00000000 </v>
     <v>      -8.28107262       4.79398329       0.00000000 </v>
     <v>       0.00000000       0.00000000      30.00000000 </v>
    </varray>
    <i name="volume">   2376.34018494 </i>
    <varray name="rec_basis" >
     <v>       0.06052143       0.10454403       0.00000000 </v>
     <v>      -0.06030744       0.10442041       0.00000000 </v>
     <v>       0.00000000       0.00000000       0.03333333 </v>
    </varray>
   </crystal>
   <varray name="positions" >
    <v>       0.33809021       0.00512502       0.00005857 </v>
    <v>      -0.00369282       0.66809246      -0.00055907 </v>
    <v>       0.66806860       0.66995569      -0.00009870 </v>
    <v>      -0.00508253       0.01025341      -0.00025875 </v>
    <v>       0.66737693       0.32284933       0.00036352 </v>
    <v>       0.67938209       0.01245925       0.00014941 </v>
    <v>       0.98242784       0.31287175      -0.00002899 </v>
    <v>       0.33169768       0.32674182       0.00037383 </v>
    <v>       0.34285873       0.67441526      -0.00006036 </v>
    <v>       0.11148022       0.22468723       0.94633186 </v>
    <v>       0.22434031       0.10701345       0.05139104 </v>
    <v>       0.10766896       0.55544490       0.95086100 </v>
    <v>       0.21957311       0.44324134       0.05071246 </v>
    <v>       0.11330264       0.88740832       0.95114020 </v>
    <v>       0.21984193       0.78100235       0.04951514 </v>
    <v>       0.44085868       0.21557993       0.94811786 </v>
    <v>       0.54902675       0.10644122       0.05259367 </v>
    <v>       0.45086299       0.55764067       0.94891393 </v>
    <v>       0.55872919       0.44958203       0.05021118 </v>
    <v>       0.44268670       0.89244823       0.94898327 </v>
    <v>       0.55969467       0.77608456       0.05142167 </v>
    <v>       0.77787938       0.22210629       0.94477506 </v>
    <v>       0.88822727       0.11095867       0.05587624 </v>
    <v>       0.77961683       0.56008756       0.95032920 </v>
    <v>       0.89266200       0.44924117       0.05116890 </v>
    <v>       0.77442150       0.88334261       0.94791145 </v>
    <v>       0.88621458       0.77313994       0.04980631 </v>
   </varray>
  </structure>
  <varray name="forces" >
   <v>       0.02549449       0.10900384       0.03624183 </v>
   <v>      -0.15001426      -0.02061884      -0.04006570 </v>
   <v>      -0.10092784       0.02554684      -0.02473474 </v>
   <v>      -0.23545381       0.10549706       0.03441480 </v>
   <v>       0.19146060      -0.10759457      -0.01570097 </v>
   <v>       0.02121034       0.04854551       0.00150728 </v>
   <v>       0.04947687      -0.36174229      -0.00072319 </v>
   <v>       0.12946940      -0.18335452       0.00658804 </v>
   <v>      -0.02053847       0.44462812      -0.01500917 </v>
   <v>      -0.04896810       0.01713949      -0.07969904 </v>
   <v>      -0.02144947      -0.05773374       0.02495116 </v>
   <v>       0.13511013      -0.07291849       0.25059950 </v>
   <v>      -0.07958967      -0.05198634      -0.25182298 </v>
   <v>      -0.15215817       0.03173279       0.08650102 </v>
   <v>       0.01101888       0.03687039      -0.04078542 </v>
   <v>       0.02095557      -0.00414801      -0.05072072 </v>
   <v>       0.06748664       0.01349153       0.08504262 </v>
   <v>       0.05499219      -0.01091822       0.04095654 </v>
   <v>       0.10111540      -0.04126694      -0.09538877 </v>
   <v>       0.03340431       0.08835862      -0.06719428 </v>
   <v>       0.00230479       0.09427147       0.10289251 </v>
   <v>       0.01087818      -0.04711504      -0.14400147 </v>
   <v>      -0.03398270      -0.03120403       0.18197561 </v>
   <v>       0.00996921      -0.09008228       0.05644450 </v>
   <v>       0.07937430      -0.07083137      -0.03637445 </v>
   <v>      -0.04136217       0.08712651      -0.02620661 </v>
   <v>      -0.05927665       0.04930251      -0.01968789 </v>
  </varray>
  <varray name="stress" >
   <v>      -0.08542504      -0.02103130       0.04797039 </v>
   <v>      -0.02103157      -0.17304364      -0.06555934 </v>
   <v>       0.04797042      -0.06555910      -1.33245503 </v>
  </varray>
  <energy>
   <i name="e_fr_energy">   -191.37152674 </i>
   <i name="e_wo_entrp">   -191.26919405 </i>
   <i name="e_0_energy">     -0.20466539 </i>
  </energy>
  <time name="totalsc">  274.21  274.93</time>
 </calculation>
 <calculation>
  <scstep>
   <time name="dav">   21.52   21.58</time>
   <time name="total">   22.03   22.09</time>
   <energy>
    <i name="alphaZ">     90.18706451 </i>
    <i name="ewald">  44653.19226365 </i>
    <i name="hartreedc"> -50665.37926597 </i>
    <i name="XCdc">   -233.37370699 </i>
    <i name="pawpsdc">   4081.17916342 </i>
    <i name="pawaedc">  -3497.09270730 </i>
    <i name="eentropy">     -0.20645197 </i>
    <i name="bandstr">  -1381.36457746 </i>
    <i name="atom">   6761.44252427 </i>
    <i name="e_fr_energy">   -191.41569383 </i>
    <i name="e_wo_entrp">   -191.20924186 </i>
    <i name="e_0_energy">   -191.31246784 </i>
   </energy>
  </scstep>
  <scstep>
   <time name="dav">   31.41   31.49</time>
   <time name="total">   31.92   32.00</time>
   <energy>
    <i name="e_fr_energy">   -191.44679429 </i>
    <i name="e_wo_entrp">   -191.23672248 </i>
    <i name="e_0_energy">   -191.34175838 </i>
   </energy>
  </scstep>
  <scstep>
   <time name="dav">   29.82   29.89</time>
   <time name="total">   30.33   30.41</time>
   <energy>
    <i name="e_fr_energy">   -191.42376418 </i>
    <i name="e_wo_entrp">   -191.21756495 </i>
    <i name="e_0_energy">   -191.32066457 </i>
   </energy>
  </scstep>
  <scstep>
   <time name="dav">   27.52   27.59</time>
   <time name="total">   28.03   28.10</time>
   <energy>
    <i name="e_fr_energy">   -191.42233197 </i>
    <i name="e_wo_entrp">   -191.21539796 </i>
    <i name="e_0_energy">   -191.31886496 </i>
   </energy>
  </scstep>
  <scstep>
   <time name="dav">   27.06   27.13</time>
   <time name="total">   27.57   27.64</time>
   <energy>
    <i name="e_fr_energy">   -191.42105712 </i>
    <i name="e_wo_entrp">   -191.21383594 </i>
    <i name="e_0_energy">   -191.31744653 </i>
   </energy>
  </scstep>
  <scstep>
   <time name="dav">   25.47   25.53</time>
   <time name="total">   25.98   26.05</time>
   <energy>
    <i name="e_fr_energy">   -191.42066729 </i>
    <i name="e_wo_entrp">   -191.21341696 </i>
    <i name="e_0_energy">   -191.31704213 </i>
   </energy>
  </scstep>
  <scstep>
   <time name="dav">   27.28   27.34</time>
   <time name="total">   27.79   27.86</time>
   <energy>
    <i name="e_fr_energy">   -191.42091714 </i>
    <i name="e_wo_entrp">   -191.21378258 </i>
    <i name="e_0_energy">   -191.31734986 </i>
   </energy>
  </scstep>
  <scstep>
   <time name="dav">   23.50   23.56</time>
   <time name="total">   24.01   24.07</time>
   <energy>
    <i name="e_fr_energy">   -191.42032392 </i>
    <i name="e_wo_entrp">   -191.21307499 </i>
    <i name="e_0_energy">   -191.31669946 </i>
   </energy>
  </scstep>
  <scstep>
[...]
      <set comment="kpoint 31">
       <r>  -17.4872    1.0000 </r>
       <r>  -17.3010    1.0000 </r>
       <r>  -16.9044    1.0000 </r>
       <r>  -16.6114    1.0000 </r>
       <r>  -16.4705    1.0000 </r>
       <r>  -16.3215    1.0000 </r>
       <r>  -16.2797    1.0000 </r>
       <r>  -16.1426    1.0000 </r>
       <r>  -16.0873    1.0000 </r>
       <r>  -16.0220    1.0000 </r>
       <r>  -15.9707    1.0000 </r>
       <r>  -15.8990    1.0000 </r>
       <r>  -15.7944    1.0000 </r>
       <r>  -15.7275    1.0000 </r>
       <r>  -15.6239    1.0000 </r>
       <r>  -15.5811    1.0000 </r>
       <r>  -15.4727    1.0000 </r>
       <r>  -15.3867    1.0000 </r>
       <r>   -9.7476    1.0000 </r>
       <r>   -9.4283    1.0000 </r>
       <r>   -9.2504    1.0000 </r>
       <r>   -8.9513    1.0000 </r>
       <r>   -8.8361    1.0000 </r>
       <r>   -8.7238    1.0000 </r>
       <r>   -8.5240    1.0000 </r>
       <r>   -8.4953    1.0000 </r>
       <r>   -8.3870    1.0000 </r>
       <r>   -8.3338    1.0000 </r>
       <r>   -8.2995    1.0000 </r>
       <r>   -8.2179    1.0000 </r>
       <r>   -8.1817    1.0000 </r>
       <r>   -8.0402    1.0000 </r>
       <r>   -7.9626    1.0000 </r>
       <r>   -7.8699    1.0000 </r>
       <r>   -7.7689    1.0000 </r>
       <r>   -7.6207    1.0000 </r>
       <r>   -7.5533    1.0000 </r>
       <r>   -7.3699    1.0000 </r>
       <r>   -7.3045    1.0000 </r>
       <r>   -7.2297    1.0000 </r>
       <r>   -7.1758    1.0000 </r>
       <r>   -7.1016    1.0000 </r>
       <r>   -7.0067    1.0000 </r>
       <r>   -6.9669    1.0000 </r>
       <r>   -6.8537    1.0000 </r>
       <r>   -6.7327    1.0000 </r>
       <r>   -6.6755    1.0000 </r>
       <r>   -6.6293    1.0000 </r>
       <r>   -6.5540    1.0000 </r>
       <r>   -6.4502    1.0000 </r>
       <r>   -6.4276    1.0000 </r>
       <r>   -6.3437    1.0000 </r>
       <r>   -6.2852    1.0000 </r>
       <r>   -6.2191    1.0000 </r>
       <r>   -6.2038    1.0000 </r>
       <r>   -6.0369    1.0000 </r>
       <r>   -6.0239    1.0000 </r>
       <r>   -5.9663    1.0000 </r>
       <r>   -5.9141    1.0000 </r>
       <r>   -5.7667    1.0000 </r>
       <r>   -5.7209    1.0000 </r>
       <r>   -5.6736    1.0000 </r>
       <r>   -5.6116    1.0000 </r>
       <r>   -5.4331    1.0000 </r>
       <r>   -5.2841    1.0000 </r>
       <r>   -5.1434    1.0000 </r>
       <r>   -5.0218    1.0000 </r>
       <r>   -4.9942    1.0000 </r>
       <r>   -4.7620    1.0000 </r>
       <r>   -4.6047    1.0000 </r>
       <r>   -4.5374    1.0000 </r>
       <r>   -4.4547    1.0000 </r>
       <r>   -4.2785    1.0000 </r>
       <r>   -4.1911    1.0000 </r>
       <r>   -4.1540    1.0000 </r>
       <r>   -3.9950    1.0000 </r>
       <r>   -3.8049    1.0000 </r>
       <r>   -3.6907    0.9995 </r>
       <r>   -3.5302    0.9842 </r>
       <r>   -3.0644    0.1265 </r>
       <r>   -3.0001    0.0550 </r>
       <r>   -2.9118    0.0131 </r>
       <r>   -2.7448    0.0003 </r>
       <r>   -2.5602    0.0000 </r>
       <r>   -2.5203    0.0000 </r>
       <r>   -2.3329    0.0000 </r>
       <r>   -2.2094    0.0000 </r>
       <r>   -1.9935    0.0000 </r>
       <r>   -1.9459    0.0000 </r>
       <r>   -1.8378    0.0000 </r>
       <r>   -1.7547    0.0000 </r>
       <r>   -1.5535    0.0000 </r>
       <r>   -1.5422    0.0000 </r>
       <r>   -1.4455    0.0000 </r>
       <r>   -1.3398    0.0000 </r>
       <r>   -1.1986    0.0000 </r>
       <r>   -1.0997    0.0000 </r>
       <r>   -1.0443    0.0000 </r>
       <r>   -0.9804    0.0000 </r>
       <r>   -0.8971    0.0000 </r>
       <r>   -0.8556    0.0000 </r>
       <r>   -0.8061    0.0000 </r>
       <r>   -0.7140    0.0000 </r>
       <r>   -0.5726    0.0000 </r>
       <r>   -0.4810    0.0000 </r>
       <r>   -0.3473    0.0000 </r>
       <r>   -0.2256    0.0000 </r>
       <r>   -0.1045    0.0000 </r>
       <r>    0.0713    0.0000 </r>
       <r>    0.3173    0.0000 </r>
       <r>    0.6100    0.0000 </r>
       <r>    0.6745    0.0000 </r>
       <r>    0.8166    0.0000 </r>
       <r>    0.9487    0.0000 </r>
       <r>    1.0502    0.0000 </r>
       <r>    1.1786    0.0000 </r>
       <r>    1.2989    0.0000 </r>
       <r>    2.1237    0.0000 </r>
       <r>    2.2866    0.0000 </r>
       <r>    2.3856    0.0000 </r>
      </set>
      <set comment="kpoint 32">
       <r>  -17.5078    1.0000 </r>
       <r>  -17.2034    1.0000 </r>
       <r>  -17.0369    1.0000 </r>
       <r>  -16.5956    1.0000 </r>
       <r>  -16.4082    1.0000 </r>
       <r>  -16.3144    1.0000 </r>
       <r>  -16.2582    1.0000 </r>
       <r>  -16.1861    1.0000 </r>
       <r>  -16.0850    1.0000 </r>
       <r>  -16.0341    1.0000 </r>
       <r>  -15.9565    1.0000 </r>
       <r>  -15.8957    1.0000 </r>
       <r>  -15.8237    1.0000 </r>
       <r>  -15.7280    1.0000 </r>
       <r>  -15.6173    1.0000 </r>
       <r>  -15.5932    1.0000 </r>
       <r>  -15.4669    1.0000 </r>
       <r>  -15.3704    1.0000 </r>
       <r>   -9.6991    1.0000 </r>
       <r>   -9.5025    1.0000 </r>
       <r>   -9.3502    1.0000 </r>
       <r>   -8.8717    1.0000 </r>
       <r>   -8.7448    1.0000 </r>
       <r>   -8.5819    1.0000 </r>
       <r>   -8.5557    1.0000 </r>
       <r>   -8.4641    1.0000 </r>
       <r>   -8.4286    1.0000 </r>
       <r>   -8.3662    1.0000 </r>
       <r>   -8.3106    1.0000 </r>
       <r>   -8.2377    1.0000 </r>
       <r>   -8.1911    1.0000 </r>
       <r>   -8.0780    1.0000 </r>
       <r>   -8.0045    1.0000 </r>
       <r>   -7.9434    1.0000 </r>
       <r>   -7.7803    1.0000 </r>
       <r>   -7.5906    1.0000 </r>
       <r>   -7.5109    1.0000 </r>
       <r>   -7.3686    1.0000 </r>
       <r>   -7.3301    1.0000 </r>
       <r>   -7.2245    1.0000 </r>
       <r>   -7.1590    1.0000 </r>
       <r>   -7.1216    1.0000 </r>
       <r>   -7.0441    1.0000 </r>
       <r>   -6.9784    1.0000 </r>
       <r>   -6.8741    1.0000 </r>
       <r>   -6.7481    1.0000 </r>
       <r>   -6.7064    1.0000 </r>
       <r>   -6.6407    1.0000 </r>
       <r>   -6.5312    1.0000 </r>
       <r>   -6.4545    1.0000 </r>
       <r>   -6.3993    1.0000 </r>
       <r>   -6.3252    1.0000 </r>
       <r>   -6.2584    1.0000 </r>
       <r>   -6.2465    1.0000 </r>
       <r>   -6.1920    1.0000 </r>
       <r>   -6.1184    1.0000 </r>
       <r>   -5.9609    1.0000 </r>
       <r>   -5.9014    1.0000 </r>
       <r>   -5.8536    1.0000 </r>
       <r>   -5.6961    1.0000 </r>
       <r>   -5.6431    1.0000 </r>
       <r>   -5.6335    1.0000 </r>
       <r>   -5.5299    1.0000 </r>
       <r>   -5.4066    1.0000 </r>
       <r>   -5.2973    1.0000 </r>
       <r>   -5.2252    1.0000 </r>
       <r>   -5.1485    1.0000 </r>
       <r>   -5.1125    1.0000 </r>
       <r>   -4.7295    1.0000 </r>
       <r>   -4.6168    1.0000 </r>
       <r>   -4.5860    1.0000 </r>
       <r>   -4.4791    1.0000 </r>
       <r>   -4.2905    1.0000 </r>
       <r>   -4.2382    1.0000 </r>
       <r>   -4.0705    1.0000 </r>
       <r>   -3.8887    1.0000 </r>
       <r>   -3.7652    0.9999 </r>
       <r>   -3.7005    0.9996 </r>
       <r>   -3.4793    0.9633 </r>
       <r>   -3.0758    0.1441 </r>
       <r>   -3.0524    0.1098 </r>
       <r>   -2.9343    0.0196 </r>
       <r>   -2.7240    0.0002 </r>
       <r>   -2.6236    0.0000 </r>
       <r>   -2.5099    0.0000 </r>
       <r>   -2.3794    0.0000 </r>
       <r>   -2.2351    0.0000 </r>
       <r>   -2.0414    0.0000 </r>
       <r>   -1.9468    0.0000 </r>
       <r>   -1.8658    0.0000 </r>
       <r>   -1.7529    0.0000 </r>
       <r>   -1.5546    0.0000 </r>
       <r>   -1.5085    0.0000 </r>
       <r>   -1.4455    0.0000 </r>
       <r>   -1.3279    0.0000 </r>
       <r>   -1.1823    0.0000 </r>
       <r>   -1.0603    0.0000 </r>
       <r>   -1.0176    0.0000 </r>
       <r>   -0.9798    0.0000 </r>
       <r>   -0.9188    0.0000 </r>
       <r>   -0.8502    0.0000 </r>
       <r>   -0.7786    0.0000 </r>
       <r>   -0.6763    0.0000 </r>
       <r>   -0.5826    0.0000 </r>
       <r>   -0.4710    0.0000 </r>
       <r>   -0.3812    0.0000 </r>
       <r>   -0.2229    0.0000 </r>
       <r>   -0.1415    0.0000 </r>
       <r>    0.0574    0.0000 </r>
       <r>    0.2639    0.0000 </r>
       <r>    0.5886    0.0000 </r>
       <r>    0.6756    0.0000 </r>
       <r>    0.7875    0.0000 </r>
       <r>    0.9444    0.0000 </r>
       <r>    0.9865    0.0000 </r>
       <r>    1.2545    0.0000 </r>
       <r>    1.4229    0.0000 </r>
       <r>    2.0989    0.0000 </r>
       <r>    2.2562    0.0000 </r>
       <r>    2.5679    0.0000 </r>
      </set>
      <set comment="kpoint 33">
       <r>  -17.4863    1.0000 </r>
       <r>  -17.2839    1.0000 </r>
       <r>  -16.9232    1.0000 </r>
       <r>  -16.5903    1.0000 </r>
       <r>  -16.4972    1.0000 </r>
       <r>  -16.3935    1.0000 </r>
       <r>  -16.2667    1.0000 </r>
       <r>  -16.1355    1.0000 </r>
       <r>  -16.0740    1.0000 </r>
       <r>  -15.9924    1.0000 </r>
       <r>  -15.9426    1.0000 </r>
       <r>  -15.8653    1.0000 </r>
       <r>  -15.8130    1.0000 </r>
       <r>  -15.7292    1.0000 </r>
       <r>  -15.6298    1.0000 </r>
       <r>  -15.6175    1.0000 </r>
       <r>  -15.4489    1.0000 </r>
       <r>  -15.3909    1.0000 </r>
       <r>   -9.7475    1.0000 </r>
       <r>   -9.3941    1.0000 </r>
       <r>   -9.2952    1.0000 </r>
       <r>   -8.8992    1.0000 </r>
       <r>   -8.7914    1.0000 </r>
       <r>   -8.7529    1.0000 </r>
       <r>   -8.5858    1.0000 </r>
       <r>   -8.5543    1.0000 </r>
       <r>   -8.3812    1.0000 </r>
       <r>   -8.3240    1.0000 </r>
       <r>   -8.2954    1.0000 </r>
       <r>   -8.2207    1.0000 </r>
       <r>   -8.1431    1.0000 </r>
       <r>   -8.0355    1.0000 </r>
       <r>   -7.9870    1.0000 </r>
       <r>   -7.8990    1.0000 </r>
       <r>   -7.7270    1.0000 </r>
       <r>   -7.6345    1.0000 </r>
       <r>   -7.5666    1.0000 </r>
       <r>   -7.4225    1.0000 </r>
       <r>   -7.3230    1.0000 </r>
       <r>   -7.2166    1.0000 </r>
       <r>   -7.1800    1.0000 </r>
       <r>   -7.0474    1.0000 </r>
       <r>   -6.9782    1.0000 </r>
       <r>   -6.9508    1.0000 </r>
       <r>   -6.8987    1.0000 </r>
       <r>   -6.7999    1.0000 </r>
       <r>   -6.6831    1.0000 </r>
       <r>   -6.6322    1.0000 </r>
       <r>   -6.5435    1.0000 </r>
       <r>   -6.4965    1.0000 </r>
       <r>   -6.3933    1.0000 </r>
       <r>   -6.3407    1.0000 </r>
       <r>   -6.2993    1.0000 </r>
       <r>   -6.1990    1.0000 </r>
       <r>   -6.1647    1.0000 </r>
       <r>   -6.0264    1.0000 </r>
       <r>   -5.9604    1.0000 </r>
       <r>   -5.9277    1.0000 </r>
       <r>   -5.8819    1.0000 </r>
       <r>   -5.7947    1.0000 </r>
       <r>   -5.6699    1.0000 </r>
       <r>   -5.5955    1.0000 </r>
       <r>   -5.5749    1.0000 </r>
       <r>   -5.4194    1.0000 </r>
       <r>   -5.3342    1.0000 </r>
       <r>   -5.1926    1.0000 </r>
       <r>   -5.1304    1.0000 </r>
       <r>   -4.8977    1.0000 </r>
       <r>   -4.8284    1.0000 </r>
       <r>   -4.6925    1.0000 </r>
       <r>   -4.5525    1.0000 </r>
       <r>   -4.4874    1.0000 </r>
       <r>   -4.2918    1.0000 </r>
       <r>   -4.2113    1.0000 </r>
       <r>   -3.9923    1.0000 </r>
       <r>   -3.8546    1.0000 </r>
       <r>   -3.7347    0.9998 </r>
       <r>   -3.7009    0.9996 </r>
       <r>   -3.5182    0.9806 </r>
       <r>   -3.1378    0.2663 </r>
       <r>   -3.0308    0.0837 </r>
       <r>   -2.9338    0.0194 </r>
       <r>   -2.7721    0.0007 </r>
       <r>   -2.6466    0.0000 </r>
       <r>   -2.4966    0.0000 </r>
       <r>   -2.4374    0.0000 </r>
       <r>   -2.2680    0.0000 </r>
       <r>   -2.0598    0.0000 </r>
       <r>   -1.9404    0.0000 </r>
       <r>   -1.8967    0.0000 </r>
       <r>   -1.7631    0.0000 </r>
       <r>   -1.5359    0.0000 </r>
       <r>   -1.4659    0.0000 </r>
       <r>   -1.4314    0.0000 </r>
       <r>   -1.2751    0.0000 </r>
       <r>   -1.1842    0.0000 </r>
       <r>   -1.0876    0.0000 </r>
       <r>   -1.0137    0.0000 </r>
       <r>   -0.9431    0.0000 </r>
       <r>   -0.8942    0.0000 </r>
       <r>   -0.8358    0.0000 </r>
       <r>   -0.7587    0.0000 </r>
       <r>   -0.7224    0.0000 </r>
       <r>   -0.5775    0.0000 </r>
       <r>   -0.5096    0.0000 </r>
       <r>   -0.4051    0.0000 </r>
       <r>   -0.2831    0.0000 </r>
       <r>   -0.1520    0.0000 </r>
       <r>    0.1125    0.0000 </r>
       <r>    0.2505    0.0000 </r>
       <r>    0.4381    0.0000 </r>
       <r>    0.7159    0.0000 </r>
       <r>    0.8156    0.0000 </r>
       <r>    0.9225    0.0000 </r>
       <r>    0.9822    0.0000 </r>
       <r>    1.3486    0.0000 </r>
       <r>    1.5655    0.0000 </r>
       <r>    2.1360    0.0000 </r>
       <r>    2.2866    0.0000 </r>
       <r>    2.4036    0.0000 </r>
      </set>
      <set comment="kpoint 34">
       <r>  -17.4496    1.0000 </r>
       <r>  -17.3586    1.0000 </r>
       <r>  -16.7485    1.0000 </r>
       <r>  -16.7012    1.0000 </r>
       <r>  -16.5521    1.0000 </r>
       <r>  -16.4266    1.0000 </r>
       <r>  -16.2514    1.0000 </r>
       <r>  -16.1261    1.0000 </r>
       <r>  -16.0804    1.0000 </r>
       <r>  -15.9773    1.0000 </r>
       <r>  -15.9219    1.0000 </r>
       <r>  -15.8390    1.0000 </r>
       <r>  -15.8028    1.0000 </r>
       <r>  -15.7178    1.0000 </r>
       <r>  -15.6385    1.0000 </r>
       <r>  -15.6325    1.0000 </r>
       <r>  -15.4489    1.0000 </r>
       <r>  -15.4067    1.0000 </r>
       <r>   -9.7798    1.0000 </r>
       <r>   -9.2675    1.0000 </r>
       <r>   -9.1914    1.0000 </r>
       <r>   -9.0322    1.0000 </r>
       <r>   -8.9289    1.0000 </r>
       <r>   -8.7727    1.0000 </r>
       <r>   -8.6123    1.0000 </r>
       <r>   -8.5915    1.0000 </r>
       <r>   -8.3878    1.0000 </r>
       <r>   -8.3147    1.0000 </r>
       <r>   -8.2416    1.0000 </r>
       <r>   -8.1783    1.0000 </r>
       <r>   -8.1594    1.0000 </r>
       <r>   -7.9758    1.0000 </r>
       <r>   -7.9612    1.0000 </r>
       <r>   -7.8728    1.0000 </r>
       <r>   -7.7295    1.0000 </r>
       <r>   -7.6342    1.0000 </r>
       <r>   -7.5669    1.0000 </r>
       <r>   -7.4030    1.0000 </r>
       <r>   -7.3558    1.0000 </r>
       <r>   -7.2987    1.0000 </r>
       <r>   -7.1931    1.0000 </r>
       <r>   -7.0611    1.0000 </r>
       <r>   -6.9796    1.0000 </r>
       <r>   -6.8979    1.0000 </r>
       <r>   -6.8417    1.0000 </r>
       <r>   -6.7218    1.0000 </r>
       <r>   -6.6130    1.0000 </r>
       <r>   -6.5984    1.0000 </r>
       <r>   -6.5738    1.0000 </r>
       <r>   -6.4781    1.0000 </r>
       <r>   -6.4513    1.0000 </r>
       <r>   -6.4249    1.0000 </r>
       <r>   -6.3108    1.0000 </r>
       <r>   -6.2047    1.0000 </r>
       <r>   -6.1730    1.0000 </r>
       <r>   -6.0799    1.0000 </r>
       <r>   -6.0316    1.0000 </r>
       <r>   -5.8840    1.0000 </r>
       <r>   -5.8555    1.0000 </r>
       <r>   -5.7936    1.0000 </r>
       <r>   -5.6644    1.0000 </r>
       <r>   -5.6291    1.0000 </r>
       <r>   -5.5326    1.0000 </r>
       <r>   -5.4914    1.0000 </r>
       <r>   -5.4253    1.0000 </r>
       <r>   -5.0654    1.0000 </r>
       <r>   -5.0331    1.0000 </r>
       <r>   -4.9695    1.0000 </r>
       <r>   -4.7731    1.0000 </r>
       <r>   -4.7123    1.0000 </r>
       <r>   -4.5780    1.0000 </r>
       <r>   -4.4190    1.0000 </r>
       <r>   -4.3285    1.0000 </r>
       <r>   -4.1641    1.0000 </r>
       <r>   -3.9607    1.0000 </r>
       <r>   -3.9062    1.0000 </r>
       <r>   -3.7497    0.9999 </r>
       <r>   -3.6616    0.9990 </r>
       <r>   -3.5371    0.9861 </r>
       <r>   -3.1793    0.3704 </r>
       <r>   -2.9967    0.0524 </r>
       <r>   -2.9213    0.0156 </r>
       <r>   -2.8314    0.0026 </r>
       <r>   -2.6386    0.0000 </r>
       <r>   -2.5028    0.0000 </r>
       <r>   -2.4548    0.0000 </r>
       <r>   -2.2853    0.0000 </r>
       <r>   -2.0551    0.0000 </r>
       <r>   -1.9395    0.0000 </r>
       <r>   -1.9090    0.0000 </r>
       <r>   -1.7703    0.0000 </r>
       <r>   -1.5187    0.0000 </r>
       <r>   -1.4371    0.0000 </r>
       <r>   -1.4295    0.0000 </r>
       <r>   -1.2390    0.0000 </r>
       <r>   -1.1743    0.0000 </r>
       <r>   -1.1481    0.0000 </r>
       <r>   -1.0029    0.0000 </r>
       <r>   -0.9129    0.0000 </r>
       <r>   -0.8956    0.0000 </r>
       <r>   -0.8224    0.0000 </r>
       <r>   -0.7462    0.0000 </r>
       <r>   -0.7353    0.0000 </r>
       <r>   -0.6128    0.0000 </r>
       <r>   -0.5193    0.0000 </r>
       <r>   -0.4524    0.0000 </r>
       <r>   -0.2862    0.0000 </r>
       <r>   -0.1357    0.0000 </r>
       <r>    0.1608    0.0000 </r>
       <r>    0.2355    0.0000 </r>
       <r>    0.3528    0.0000 </r>
       <r>    0.7274    0.0000 </r>
       <r>    0.8325    0.0000 </r>
       <r>    0.9317    0.0000 </r>
       <r>    0.9831    0.0000 </r>
       <r>    1.3961    0.0000 </r>
       <r>    1.6255    0.0000 </r>
       <r>    2.2228    0.0000 </r>
       <r>    2.2518    0.0000 </r>
       <r>    2.3726    0.0000 </r>
      </set>
     </set>
    </set>
   </array>
  </eigenvalues>
  <separator name="orbital magnetization" >
   <v name="MAGDIPOLOUT">      0.00000000      0.00000000      0.00000000</v>
  </separator>
 </calculation>
 <structure name="finalpos" >
  <crystal>
   <varray name="basis" >
    <v>       8.31825563       4.79461322       0.00000000 </v>
    <v>      -8.35499145       4.85809865       0.00000000 </v>
    <v>       0.00000000       0.00000000      30.00000000 </v>
   </varray>
   <i name="volume">   2414.09576987 </i>
   <varray name="rec_basis" >
    <v>       0.06037166       0.10382759       0.00000000 </v>
    <v>      -0.05958272       0.10337107       0.00000000 </v>
    <v>       0.00000000       0.00000000       0.03333333 </v>
   </varray>
  </crystal>
  <varray name="positions" >
   <v>       0.35200977       0.00731372       0.00056151 </v>
   <v>       0.01257898       0.70404000       0.00115134 </v>
   <v>       0.65937244       0.65732179      -0.00211238 </v>
   <v>      -0.00750497       0.01627625       0.00103587 </v>
   <v>       0.64818485       0.30051437      -0.00094510 </v>
   <v>       0.67671961       0.01236220       0.00094131 </v>
   <v>       0.97157148       0.29969256      -0.00097428 </v>
   <v>       0.33374854       0.30163268      -0.00092467 </v>
   <v>       0.35497315       0.70579073       0.00141422 </v>
   <v>       0.11047350       0.22348272       0.94584201 </v>
   <v>       0.22247919       0.10110392       0.05208900 </v>
   <v>       0.10767530       0.55759611       0.95705298 </v>
   <v>       0.22459665       0.44621068       0.04227657 </v>
   <v>       0.11571338       0.89787330       0.95092426 </v>
   <v>       0.22408074       0.78808183       0.05228110 </v>
   <v>       0.44092317       0.21052922       0.94387744 </v>
   <v>       0.55064102       0.10308966       0.05519462 </v>
   <v>       0.44142275       0.55460488       0.95202049 </v>
   <v>       0.55476861       0.43844065       0.04891104 </v>
   <v>       0.44874583       0.90021408       0.94635617 </v>
   <v>       0.56358261       0.77582465       0.05216388 </v>
   <v>       0.77585715       0.21809401       0.94305547 </v>
   <v>       0.88638668       0.11307101       0.05768475 </v>
   <v>       0.78187533       0.55640544       0.95402599 </v>
   <v>       0.89072116       0.45011690       0.04556007 </v>
   <v>       0.77515374       0.88349896       0.95005711 </v>
   <v>       0.88146378       0.77503214       0.05047912 </v>
  </varray>
 </structure>
</modeling>
