unknown system                          
           1
     8.854478    5.104206    0.000000
    -8.855831    5.106534    0.000000
     0.000000    0.000000   30.000000
   V    Mo   W    S 
   3   3   3  18
Direct configuration=     1
   0.33333334  0.00000000  0.00000000
   0.00000000  0.66666669  0.00000000
   0.66666669  0.66666669  0.00000000
   0.00000000  0.00000000  0.00000000
   0.66666669  0.33333334  0.00000000
   0.66666669  0.00000000  0.00000000
   1.00000000  0.33333334  0.00000000
   0.33333334  0.33333334  0.00000000
   0.33333334  0.66666669  0.00000000
   0.11068511  0.22244981  0.95539999
   0.22244981  0.11068511  0.04460000
   0.11068511  0.55578315  0.95539999
   0.22244981  0.44401845  0.04460000
   0.11068511  0.88911647  0.95539999
   0.22244981  0.77735180  0.04460000
   0.44401845  0.22244981  0.95539999
   0.55578315  0.11068511  0.04460000
   0.44401845  0.55578315  0.95539999
   0.55578315  0.44401845  0.04460000
   0.44401845  0.88911647  0.95539999
   0.55578315  0.77735180  0.04460000
   0.77735180  0.22244981  0.95539999
   0.88911647  0.11068511  0.04460000
   0.77735180  0.55578315  0.95539999
   0.88911647  0.44401845  0.04460000
   0.77735180  0.88911647  0.95539999
   0.88911647  0.77735180  0.04460000
unknown system                          
           1
     8.666426    4.998121    0.000000
    -8.667648    5.000224    0.000000
     0.000000    0.000000   30.000000
   V    Mo   W    S 
   3   3   3  18
Direct configuration=     2
   0.33404675  0.00074877  0.00013417
  -0.00116872  0.66715818 -0.00005463
   0.66815736  0.66773799 -0.00016641
  -0.00130790 -0.00028848 -0.00011775
   0.66671602  0.33204702  0.00003131
   0.66801169  0.00136752  0.00019452
   0.99676098  0.33039171  0.00003019
   0.33364508  0.33172038 -0.00013996
   0.33475847  0.66851244  0.00007138
   0.11164378  0.22315822  0.95071983
   0.22506905  0.10945987  0.04803651
   0.10907327  0.55739396  0.95204691
   0.22195025  0.44441827  0.04920691
   0.11313404  0.88662196  0.95309684
   0.22048947  0.77951899  0.04698838
   0.44167845  0.21817322  0.95190854
   0.55089763  0.10872305  0.04808467
   0.44813983  0.55725555  0.95186141
   0.55674879  0.44839912  0.04800835
   0.44144862  0.89022026  0.95203003
   0.55689880  0.77487976  0.04798052
   0.77876268  0.22276933  0.95068800
   0.88923358  0.11200734  0.04934320
   0.77961607  0.55998310  0.95309842
   0.89150793  0.44840431  0.04806826
   0.77546983  0.88416378  0.95194167
   0.88683265  0.77326883  0.04690861
unknown system                          
           1
     8.484534    4.898465    0.000000
    -8.485434    4.900011    0.000000
     0.000000    0.000000   30.000000
   V    Mo   W    S 
   3   3   3  18
Direct configuration=     3
   0.33431029  0.00102532  0.00014931
  -0.00144710  0.66724441 -0.00011123
   0.66843081  0.66800424 -0.00019414
  -0.00166495  0.00021575 -0.00016896
   0.66678751  0.33145376  0.00008020
   0.66881414  0.00218749  0.00021211
   0.99561623  0.32914276  0.00003645
   0.33360233  0.33135367 -0.00009938
   0.33522808  0.66888937  0.00007101
   0.11176020  0.22344988  0.95070066
   0.22521623  0.10961917  0.04803144
   0.10918044  0.55730656  0.95218250
   0.22194318  0.44438665  0.04906057
   0.11315297  0.88657708  0.95319020
   0.22060418  0.77945647  0.04691842
   0.44147317  0.21814917  0.95187535
   0.55074358  0.10861932  0.04815539
   0.44802687  0.55722318  0.95191945
   0.55658664  0.44839451  0.04792522
   0.44129343  0.89002213  0.95205512
   0.55671604  0.77473151  0.04798012
   0.77897942  0.22286873  0.95055284
   0.88933441  0.11221702  0.04950256
   0.77968240  0.56006129  0.95312805
   0.89170483  0.44840400  0.04804754
   0.77536418  0.88401241  0.95189347
   0.88677497  0.77319863  0.04690564
unknown system                          
           1
     8.275671    4.778304    0.000000
    -8.280545    4.786735    0.000000
     0.000000    0.000000   30.000000
   V    Mo   W    S 
   3   3   3  18
Direct configuration=     4
   0.33547652  0.00229722  0.00014096
  -0.00220089  0.66738456 -0.00029725
   0.66875502  0.66874568 -0.00022116
  -0.00274959  0.00313293 -0.00028951
   0.66695292  0.32883239  0.00022985
   0.67225064  0.00571009  0.00019427
   0.99146876  0.32411203  0.00004212
   0.33310713  0.33014150  0.00009594
   0.33693747  0.66988702  0.00002833
   0.11184408  0.22388243  0.94897013
   0.22553972  0.10883957  0.04946698
   0.10877932  0.55750929  0.95128554
   0.22175302  0.44420895  0.05007150
   0.11367456  0.88617185  0.95226349
   0.22016251  0.78007272  0.04802230
   0.44084983  0.21683642  0.95027413
   0.54937943  0.10774209  0.04988153
   0.44908593  0.55772052  0.95063616
   0.55724468  0.44950339  0.04903992
   0.44095878  0.89065614  0.95071002
   0.55743293  0.77442217  0.04944885
   0.77881791  0.22273202  0.94837190
   0.88926611  0.11205858  0.05181214
   0.78018554  0.56085407  0.95193469
   0.89243288  0.44957381  0.04942780
   0.77452708  0.88281479  0.95026630
   0.88628215  0.77237225  0.04819297
unknown system                          
           1
     8.271281    4.777033    0.000000
    -8.281073    4.793983    0.000000
     0.000000    0.000000   30.000000
   V    Mo   W    S 
   3   3   3  18
Direct configuration=     5
   0.33750654  0.00457052 -0.00000227
  -0.00333405  0.66774153 -0.00051126
   0.66844898  0.66974364 -0.00008962
  -0.00488742  0.00916117 -0.00034889
   0.66749092  0.32394690  0.00040016
   0.67914443  0.01241710  0.00009369
   0.98346576  0.31417685  0.00003957
   0.33215566  0.32785445  0.00038442
   0.34091271  0.67251867 -0.00005066
   0.11166920  0.22431555  0.94655316
   0.22499186  0.10735478  0.05134891
   0.10792393  0.55673604  0.95046139
   0.22058522  0.44360910  0.05105938
   0.11378462  0.88647726  0.95105935
   0.21962239  0.78086938  0.04954533
   0.44063002  0.21547314  0.94821779
   0.54846760  0.10664133  0.05239907
   0.45070166  0.55796458  0.94892194
   0.55847424  0.45030342  0.05030882
   0.44168111  0.89193372  0.94905056
   0.55903688  0.77514925  0.05131328
   0.77812615  0.22222630  0.94522342
   0.88863775  0.11130698  0.05531509
   0.78017712  0.56080005  0.95029380
   0.89281670  0.45018118  0.05117079
   0.77397412  0.88235634  0.94802611
   0.88601033  0.77238525  0.04981658
unknown system                          
           1
     8.267393    4.773338    0.000000
    -8.277893    4.791508    0.000000
     0.000000    0.000000   30.000000
   V    Mo   W    S 
   3   3   3  18
Direct configuration=     6
   0.33809021  0.00512502  0.00005857
  -0.00369282  0.66809246 -0.00055907
   0.66806860  0.66995569 -0.00009870
  -0.00508253  0.01025341 -0.00025875
   0.66737693  0.32284933  0.00036352
   0.67938209  0.01245925  0.00014941
   0.98242784  0.31287175 -0.00002899
   0.33169768  0.32674182  0.00037383
   0.34285873  0.67441526 -0.00006036
   0.11148022  0.22468723  0.94633186
   0.22434031  0.10701345  0.05139104
   0.10766896  0.55544490  0.95086100
   0.21957311  0.44324134  0.05071246
   0.11330264  0.88740832  0.95114020
   0.21984193  0.78100235  0.04951514
   0.44085868  0.21557993  0.94811786
   0.54902675  0.10644122  0.05259367
   0.45086299  0.55764067  0.94891393
   0.55872919  0.44958203  0.05021118
   0.44268670  0.89244823  0.94898327
   0.55969467  0.77608456  0.05142167
   0.77787938  0.22210629  0.94477506
   0.88822727  0.11095867  0.05587624
   0.77961683  0.56008756  0.95032920
   0.89266200  0.44924117  0.05116890
   0.77442150  0.88334261  0.94791145
   0.88621458  0.77313994  0.04980631
unknown system                          
           1
     8.270590    4.775039    0.000000
    -8.281679    4.794230    0.000000
     0.000000    0.000000   30.000000
   V    Mo   W    S 
   3   3   3  18
Direct configuration=     7
   0.33878420  0.00566499  0.00011919
  -0.00428327  0.66845286 -0.00063055
   0.66788209  0.67041597 -0.00013900
  -0.00527632  0.01163196 -0.00019957
   0.66739797  0.32160924  0.00033850
   0.67979775  0.01273886  0.00015174
   0.98054135  0.31065366 -0.00003174
   0.33110133  0.32532500  0.00038863
   0.34523970  0.67689988 -0.00008701
   0.11141422  0.22493964  0.94615641
   0.22394923  0.10674408  0.05146291
   0.10767871  0.55461259  0.95127704
   0.21901838  0.44319420  0.05029804
   0.11299792  0.88806218  0.95126849
   0.22006595  0.78117925  0.04946939
   0.44090203  0.21547427  0.94799880
   0.54930086  0.10628617  0.05277822
   0.45100204  0.55741383  0.94895617
   0.55884494  0.44905475  0.05006914
   0.44328602  0.89284392  0.94884241
   0.56023829  0.77660384  0.05162637
   0.77764738  0.22181412  0.94447670
   0.88794083  0.11087868  0.05624556
   0.77916061  0.55956854  0.95040006
   0.89253331  0.44861740  0.05113466
   0.77475575  0.88394044  0.94783133
   0.88629316  0.77359413  0.04979803
unknown system                          
           1
     8.262105    4.773398    0.000000
    -8.271640    4.789909    0.000000
     0.000000    0.000000   30.000000
   V    Mo   W    S 
   3   3   3  18
Direct configuration=     8
   0.33893348  0.00573723  0.00013769
  -0.00446965  0.66854844 -0.00065276
   0.66789570  0.67058474 -0.00014555
  -0.00525753  0.01182881 -0.00018490
   0.66738440  0.32138636  0.00033698
   0.67966703  0.01257803  0.00016250
   0.98023248  0.31033274 -0.00004557
   0.33095210  0.32491000  0.00039088
   0.34586605  0.67764834 -0.00009146
   0.11140649  0.22500322  0.94615422
   0.22388126  0.10667826  0.05146151
   0.10773801  0.55447797  0.95141080
   0.21895685  0.44324309  0.05015752
   0.11295271  0.88818504  0.95132610
   0.22013146  0.78120938  0.04943406
   0.44089388  0.21544777  0.94799568
   0.54934445  0.10626219  0.05278459
   0.45099627  0.55737876  0.94900431
   0.55883838  0.44893972  0.05000152
   0.44337225  0.89294379  0.94880350
   0.56034164  0.77665573  0.05166748
   0.77759760  0.22173758  0.94444913
   0.88786037  0.11084030  0.05628406
   0.77905731  0.55946669  0.95044243
   0.89250812  0.44849311  0.05109769
   0.77483442  0.88404231  0.94784165
   0.88629891  0.77365487  0.04977583
unknown system                          
           1
     8.256762    4.767994    0.000000
    -8.268619    4.788514    0.000000
     0.000000    0.000000   30.000000
   V    Mo   W    S 
   3   3   3  18
Direct configuration=     9
   0.33891489  0.00608836  0.00009783
  -0.00371179  0.66850231 -0.00059836
   0.66748169  0.66983749 -0.00012416
  -0.00532099  0.01132064 -0.00021635
   0.66689614  0.32140495  0.00033744
   0.67989402  0.01318298  0.00015075
   0.98103485  0.31123743 -0.00005933
   0.33162754  0.32611225  0.00039990
   0.34439301  0.67564750 -0.00007765
   0.11139972  0.22493899  0.94603770
   0.22405172  0.10673912  0.05146867
   0.10742413  0.55452075  0.95101167
   0.21885440  0.44290997  0.05059377
   0.11314748  0.88818985  0.95118285
   0.22007195  0.78137564  0.04952705
   0.44086970  0.21532745  0.94795804
   0.54912714  0.10615438  0.05282044
   0.45122600  0.55744238  0.94878033
   0.55901711  0.44915749  0.05022037
   0.44329464  0.89281797  0.94894142
   0.56031556  0.77672839  0.05157973
   0.77769783  0.22196819  0.94433280
   0.88796121  0.11080545  0.05643223
   0.77920504  0.55966956  0.95031611
   0.89248657  0.44861961  0.05127835
   0.77463973  0.88386483  0.94775705
   0.88621514  0.77365051  0.04985125
unknown system                          
           1
     8.265085    4.772014    0.000000
    -8.277705    4.793855    0.000000
     0.000000    0.000000   30.000000
   V    Mo   W    S 
   3   3   3  18
Direct configuration=    10
   0.33948380  0.00667650  0.00014900
  -0.00375053  0.66891429 -0.00063133
   0.66714471  0.66984105 -0.00017427
  -0.00546933  0.01216425 -0.00018301
   0.66666535  0.32048495  0.00028741
   0.68030754  0.01359259  0.00017374
   0.97994155  0.30997666 -0.00001624
   0.33155558  0.32565404  0.00038911
   0.34540137  0.67648502 -0.00005342
   0.11143548  0.22510460  0.94603738
   0.22391120  0.10666324  0.05147864
   0.10751946  0.55410756  0.95123964
   0.21856710  0.44286668  0.05034593
   0.11309907  0.88862039  0.95128335
   0.22028549  0.78150085  0.04944620
   0.44085107  0.21523924  0.94785693
   0.54914816  0.10598125  0.05295209
   0.45125293  0.55728574  0.94877751
   0.55906843  0.44879801  0.05017880
   0.44355482  0.89296921  0.94891441
   0.56052151  0.77697209  0.05163583
   0.77760418  0.22185952  0.94423429
   0.88780320  0.11085718  0.05648584
   0.77900176  0.55934647  0.95042064
   0.89227396  0.44816821  0.05118338
   0.77480376  0.88421873  0.94778791
   0.88623282  0.77386613  0.04980017
unknown system                          
           1
     8.260909    4.770383    0.000000
    -8.272312    4.790117    0.000000
     0.000000    0.000000   30.000000
   V    Mo   W    S 
   3   3   3  18
Direct configuration=    11
   0.33952079  0.00644253  0.00017110
  -0.00433988  0.66892875 -0.00067734
   0.66745072  0.67040294 -0.00017173
  -0.00539925  0.01245647 -0.00016138
   0.66695244  0.32042710  0.00030604
   0.67999782  0.01306809  0.00018235
   0.97944121  0.30944232 -0.00004727
   0.33107303  0.32469902  0.00039600
   0.34660043  0.67811124 -0.00007732
   0.11140905  0.22517052  0.94603977
   0.22377463  0.10654993  0.05150641
   0.10768149  0.55402906  0.95150080
   0.21859913  0.44307779  0.05007266
   0.11296202  0.88864180  0.95136371
   0.22031129  0.78143330  0.04941684
   0.44085913  0.21527186  0.94786427
   0.54929224  0.10604010  0.05294755
   0.45116268  0.55726691  0.94890788
   0.55898989  0.44868357  0.05003171
   0.44363826  0.89312904  0.94877971
   0.56063508  0.77694778  0.05174534
   0.77751048  0.22168384  0.94422185
   0.88769218  0.11078206  0.05652440
   0.77886747  0.55922644  0.95046547
   0.89233036  0.44811038  0.05111980
   0.77493024  0.88431305  0.94778615
   0.88627152  0.77387860  0.04978515
unknown system                          
           1
     8.259063    4.770759    0.000000
    -8.269661    4.789103    0.000000
     0.000000    0.000000   30.000000
   V    Mo   W    S 
   3   3   3  18
Direct configuration=    12
   0.33910228  0.00638071  0.00012250
  -0.00352658  0.66870357 -0.00059595
   0.66721690  0.66959728 -0.00015985
  -0.00543921  0.01182788 -0.00020378
   0.66687695  0.32101504  0.00029281
   0.68039361  0.01369856  0.00016395
   0.98047991  0.31055811 -0.00000810
   0.33165051  0.32626379  0.00038206
   0.34447272  0.67544386 -0.00004836
   0.11144387  0.22501828  0.94606770
   0.22397738  0.10677387  0.05146457
   0.10743530  0.55430556  0.95107753
   0.21865549  0.44281255  0.05053034
   0.11309045  0.88839630  0.95122248
   0.22014964  0.78139624  0.04947791
   0.44088847  0.21534046  0.94789709
   0.54915947  0.10605302  0.05290175
   0.45121464  0.55731341  0.94873399
   0.55903597  0.44892605  0.05025087
   0.44345941  0.89280977  0.94898150
   0.56033212  0.77690457  0.05155369
   0.77769798  0.22198063  0.94431527
   0.88791748  0.11090603  0.05639489
   0.77918052  0.55950455  0.95037649
   0.89235276  0.44837324  0.05121329
   0.77472366  0.88411984  0.94779134
   0.88627273  0.77379129  0.04980390
unknown system                          
           1
     8.254604    4.769257    0.000000
    -8.265998    4.788982    0.000000
     0.000000    0.000000   30.000000
   V    Mo   W    S 
   3   3   3  18
Direct configuration=    13
   0.33824641  0.00642485  0.00002411
  -0.00168435  0.66863422 -0.00045050
   0.66604547  0.66706566 -0.00010653
  -0.00564728  0.01106625 -0.00029560
   0.66671581  0.32189998  0.00029145
   0.68171381  0.01556946  0.00009971
   0.98235232  0.31254620 -0.00003317
   0.33316183  0.33020630  0.00036154
   0.34029897  0.66931094 -0.00003959
   0.11149830  0.22494913  0.94614182
   0.22424889  0.10746176  0.05134863
   0.10688585  0.55447553  0.95041478
   0.21840935  0.44209108  0.05140029
   0.11311485  0.88817210  0.95104134
   0.21987319  0.78120075  0.04952719
   0.44097607  0.21564320  0.94794362
   0.54914333  0.10607700  0.05286784
   0.45132946  0.55726366  0.94830917
   0.55917738  0.44913620  0.05063808
   0.44337192  0.89199869  0.94953629
   0.55984245  0.77702277  0.05107042
   0.77810568  0.22258912  0.94440655
   0.88821799  0.11106310  0.05633194
   0.77981711  0.55988846  0.95029864
   0.89228794  0.44860270  0.05129975
   0.77436638  0.88408926  0.94788543
   0.88634533  0.77376609  0.04968671
unknown system                          
           1
     8.261405    4.772968    0.000000
    -8.274093    4.794932    0.000000
     0.000000    0.000000   30.000000
   V    Mo   W    S 
   3   3   3  18
Direct configuration=    14
   0.33827557  0.00683996  0.00003171
  -0.00127330  0.66926134 -0.00042125
   0.66514419  0.66598757 -0.00009759
  -0.00583471  0.01159109 -0.00025190
   0.66650553  0.32138065  0.00026045
   0.68275631  0.01672180  0.00013598
   0.98232221  0.31222009 -0.00000713
   0.33357796  0.33130297  0.00033522
   0.33956448  0.66730872 -0.00002029
   0.11161475  0.22515434  0.94616391
   0.22423654  0.10777929  0.05126626
   0.10689991  0.55426634  0.95048356
   0.21820663  0.44192464  0.05144529
   0.11301499  0.88846899  0.95111562
   0.22006305  0.78105763  0.04941302
   0.44094053  0.21580772  0.94800399
   0.54924280  0.10602540  0.05285697
   0.45136608  0.55716655  0.94817554
   0.55921496  0.44889905  0.05064136
   0.44355472  0.89179319  0.94977049
   0.55984882  0.77716120  0.05088042
   0.77806301  0.22268273  0.94433354
   0.88819177  0.11113804  0.05636553
   0.77979641  0.55973447  0.95038129
   0.89219903  0.44836535  0.05118887
   0.77434897  0.88428901  0.94800762
   0.88637325  0.77388632  0.04954144
unknown system                          
           1
     8.264965    4.774351    0.000000
    -8.278865    4.798409    0.000000
     0.000000    0.000000   30.000000
   V    Mo   W    S 
   3   3   3  18
Direct configuration=    15
   0.33864324  0.00705163  0.00006890
  -0.00176737  0.66979182 -0.00047214
   0.66504135  0.66629315 -0.00011445
  -0.00580700  0.01215603 -0.00022146
   0.66646011  0.32071446  0.00024934
   0.68267654  0.01656539  0.00013620
   0.98152161  0.31128513 -0.00005557
   0.33323134  0.33040166  0.00032716
   0.34096141  0.66870756 -0.00004987
   0.11162551  0.22529858  0.94611784
   0.22408725  0.10766937  0.05130927
   0.10706854  0.55403536  0.95079766
   0.21811119  0.44205852  0.05116880
   0.11293595  0.88877236  0.95122238
   0.22025264  0.78107432  0.04934684
   0.44089391  0.21575101  0.94796497
   0.54930373  0.10595536  0.05292111
   0.45137984  0.55711206  0.94822377
   0.55922042  0.44866326  0.05050602
   0.44372079  0.89199457  0.94968629
   0.56011410  0.77721824  0.05100495
   0.77793060  0.22249387  0.94422222
   0.88804267  0.11106728  0.05653306
   0.77954138  0.55949025  0.95045038
   0.89217060  0.44815306  0.05110214
   0.77450060  0.88446250  0.94802760
   0.88635350  0.77397767  0.04952649
unknown system                          
           1
     8.261496    4.772788    0.000000
    -8.274350    4.795037    0.000000
     0.000000    0.000000   30.000000
   V    Mo   W    S 
   3   3   3  18
Direct configuration=    16
   0.33901280  0.00737326  0.00012461
  -0.00210372  0.67066291 -0.00051056
   0.66457031  0.66610614 -0.00013343
  -0.00575392  0.01280890 -0.00017569
   0.66631200  0.31987509  0.00023430
   0.68274972  0.01676802  0.00015596
   0.98063030  0.31020239 -0.00008660
   0.33308124  0.32999752  0.00032492
   0.34234585  0.66962839 -0.00007656
   0.11165879  0.22547048  0.94608245
   0.22401387  0.10770187  0.05130473
   0.10716094  0.55375380  0.95111815
   0.21792872  0.44207895  0.05092460
   0.11290625  0.88915690  0.95132983
   0.22048253  0.78111032  0.04923454
   0.44083475  0.21568030  0.94795064
   0.54934593  0.10583695  0.05297037
   0.45144364  0.55700243  0.94821213
   0.55923406  0.44837139  0.05037925
   0.44388118  0.89210107  0.94969093
   0.56037586  0.77727139  0.05107304
   0.77783840  0.22233043  0.94411123
   0.88789780  0.11105482  0.05667658
   0.77931516  0.55923711  0.95054257
   0.89212868  0.44789667  0.05096161
   0.77461606  0.88465577  0.94809096
   0.88630725  0.77408119  0.04948934
unknown system                          
           1
     8.261837    4.773246    0.000000
    -8.274536    4.795229    0.000000
     0.000000    0.000000   30.000000
   V    Mo   W    S 
   3   3   3  18
Direct configuration=    17
   0.33877603  0.00722084  0.00007216
  -0.00176320  0.66989555 -0.00047843
   0.66496492  0.66629956 -0.00011101
  -0.00581582  0.01240169 -0.00020535
   0.66638558  0.32041716  0.00025015
   0.68284808  0.01679525  0.00013661
   0.98127435  0.31101724 -0.00005663
   0.33320258  0.33025653  0.00032906
   0.34104106  0.66871898 -0.00005440
   0.11165456  0.22536586  0.94610706
   0.22406509  0.10768390  0.05129680
   0.10709150  0.55394551  0.95084910
   0.21806607  0.44203551  0.05112568
   0.11290730  0.88886326  0.95127701
   0.22031867  0.78108073  0.04931199
   0.44086343  0.21574560  0.94797061
   0.54932594  0.10592700  0.05291240
   0.45136904  0.55707686  0.94822470
   0.55919760  0.44856604  0.05047031
   0.44378453  0.89200872  0.94973012
   0.56015397  0.77727223  0.05098875
   0.77792435  0.22247531  0.94419988
   0.88802890  0.11110087  0.05657407
   0.77949831  0.55941411  0.95047673
   0.89214533  0.44806926  0.05107049
   0.77452999  0.88453319  0.94803766
   0.88637631  0.77402770  0.04949439
unknown system                          
           1
     8.261600    4.773465    0.000000
    -8.275465    4.797469    0.000000
     0.000000    0.000000   30.000000
   V    Mo   W    S 
   3   3   3  18
Direct configuration=    18
   0.33871337  0.00722598  0.00004903
  -0.00159782  0.66958143 -0.00046739
   0.66511944  0.66639301 -0.00010261
  -0.00584657  0.01230948 -0.00021633
   0.66639072  0.32056604  0.00025118
   0.68295962  0.01687658  0.00013077
   0.98150670  0.31132815 -0.00004520
   0.33324667  0.33032799  0.00032768
   0.34045819  0.66827227 -0.00004536
   0.11165678  0.22534721  0.94611106
   0.22407304  0.10766239  0.05129988
   0.10704975  0.55398458  0.95073968
   0.21809544  0.44199024  0.05120776
   0.11289533  0.88877097  0.95127207
   0.22025978  0.78106998  0.04933932
   0.44087522  0.21577154  0.94796940
   0.54931995  0.10593903  0.05289631
   0.45133170  0.55709068  0.94822812
   0.55918662  0.44862035  0.05050423
   0.44377526  0.89198546  0.94976281
   0.56007657  0.77730700  0.05094326
   0.77795891  0.22254401  0.94421873
   0.88807619  0.11113075  0.05655432
   0.77956741  0.55946328  0.95045779
   0.89214226  0.44811460  0.05111199
   0.77450352  0.88451462  0.94801585
   0.88642039  0.77402684  0.04948557
unknown system                          
           1
     8.266919    4.775827    0.000000
    -8.281603    4.801245    0.000000
     0.000000    0.000000   30.000000
   V    Mo   W    S 
   3   3   3  18
Direct configuration=    19
   0.33897101  0.00774855  0.00004920
  -0.00144102  0.66956816 -0.00047656
   0.66494462  0.66643987 -0.00010281
  -0.00585471  0.01282010 -0.00020142
   0.66613039  0.32008799  0.00023646
   0.68342548  0.01732133  0.00013446
   0.98132772  0.31113779 -0.00004864
   0.33327020  0.33017323  0.00033437
   0.34022301  0.66774985 -0.00004780
   0.11167272  0.22550227  0.94610572
   0.22399510  0.10766577  0.05130024
   0.10703969  0.55377645  0.95076758
   0.21800404  0.44184740  0.05114494
   0.11283501  0.88901382  0.95138234
   0.22039875  0.78107133  0.04927873
   0.44086279  0.21577684  0.94793421
   0.54936689  0.10582466  0.05292335
   0.45132123  0.55701282  0.94825626
   0.55918809  0.44846261  0.05041507
   0.44390370  0.89195545  0.94989147
   0.56010411  0.77740715  0.05085048
   0.77796992  0.22258074  0.94415172
   0.88805836  0.11122077  0.05664469
   0.77945547  0.55928856  0.95054036
   0.89200329  0.44787554  0.05106573
   0.77457794  0.88471500  0.94807002
   0.88646067  0.77417038  0.04939972
unknown system                          
           1
     8.267942    4.776228    0.000000
    -8.283588    4.803308    0.000000
     0.000000    0.000000   30.000000
   V    Mo   W    S 
   3   3   3  18
Direct configuration=    20
   0.33910853  0.00769968  0.00010677
  -0.00186771  0.67039721 -0.00050652
   0.66462663  0.66622788 -0.00012677
  -0.00579472  0.01304946 -0.00017199
   0.66618252  0.31970231  0.00022194
   0.68315216  0.01712923  0.00015585
   0.98068648  0.31033848 -0.00008018
   0.33312301  0.32995000  0.00032039
   0.34168165  0.66891493 -0.00007229
   0.11167910  0.22555282  0.94607583
   0.22396994  0.10767789  0.05131849
   0.10710217  0.55366254  0.95104069
   0.21788503  0.44194112  0.05096752
   0.11285106  0.88921312  0.95139352
   0.22049811  0.78109630  0.04922216
   0.44083840  0.21570447  0.94791907
   0.54936999  0.10577113  0.05297914
   0.45140542  0.55695172  0.94822220
   0.55923229  0.44832044  0.05036287
   0.44396092  0.89207275  0.94979417
   0.56033604  0.77737699  0.05098536
   0.77787000  0.22240806  0.94408201
   0.88792677  0.11114171  0.05672054
   0.77931876  0.55917794  0.95057506
   0.89204815  0.44780629  0.05096974
   0.77464053  0.88476814  0.94809526
   0.88638323  0.77416184  0.04942904
unknown system                          
           1
     8.265606    4.774808    0.000000
    -8.280762    4.801039    0.000000
     0.000000    0.000000   30.000000
   V    Mo   W    S 
   3   3   3  18
Direct configuration=    21
   0.33935043  0.00802539  0.00014572
  -0.00196736  0.67093561 -0.00052822
   0.66437482  0.66614419 -0.00014259
  -0.00570872  0.01351762 -0.00013863
   0.66602167  0.31912205  0.00020518
   0.68325220  0.01731532  0.00017326
   0.98016636  0.30972530 -0.00009996
   0.33301513  0.32965500  0.00031268
   0.34236746  0.66930735 -0.00009134
   0.11169688  0.22566750  0.94605736
   0.22392731  0.10769538  0.05132768
   0.10712416  0.55349139  0.95121894
   0.21776605  0.44190881  0.05082798
   0.11284598  0.88946897  0.95146662
   0.22063696  0.78112080  0.04914529
   0.44080504  0.21564125  0.94789254
   0.54938685  0.10567292  0.05302036
   0.45143740  0.55684920  0.94821157
   0.55925474  0.44813350  0.05028323
   0.44404033  0.89210824  0.94982018
   0.56047133  0.77741163  0.05101877
   0.77781543  0.22231453  0.94401289
   0.88784987  0.11116324  0.05680322
   0.77918727  0.55900838  0.95064289
   0.89198696  0.44763833  0.05087772
   0.77473114  0.88492782  0.94813783
   0.88637879  0.77424473  0.04939872
unknown system                          
           1
     8.269163    4.776739    0.000000
    -8.286172    4.806177    0.000000
     0.000000    0.000000   30.000000
   V    Mo   W    S 
   3   3   3  18
Direct configuration=    22
   0.33938422  0.00793109  0.00016205
  -0.00210277  0.67121498 -0.00053873
   0.66427813  0.66607046 -0.00015156
  -0.00563815  0.01353646 -0.00013555
   0.66601493  0.31902484  0.00020966
   0.68303590  0.01716481  0.00017760
   0.98000036  0.30946612 -0.00010568
   0.33293236  0.32954064  0.00031891
   0.34293207  0.66987477 -0.00009620
   0.11168366  0.22564971  0.94606049
   0.22394691  0.10770126  0.05130949
   0.10717703  0.55348435  0.95131035
   0.21776345  0.44199161  0.05075728
   0.11288560  0.88951179  0.95145654
   0.22067938  0.78114995  0.04913206
   0.44079002  0.21560607  0.94791558
   0.54936802  0.10568197  0.05301572
   0.45144816  0.55685852  0.94821139
   0.55924935  0.44810040  0.05027058
   0.44401339  0.89214534  0.94977410
   0.56052248  0.77737507  0.05107233
   0.77778787  0.22225453  0.94401134
   0.88781161  0.11111358  0.05679945
   0.77914845  0.55898532  0.95063913
   0.89202158  0.44763600  0.05084952
   0.77474038  0.88490804  0.94814678
   0.88634007  0.77423676  0.04942727
unknown system                          
           1
     8.278097    4.781696    0.000000
    -8.297276    4.814890    0.000000
     0.000000    0.000000   30.000000
   V    Mo   W    S 
   3   3   3  18
Direct configuration=    23
   0.33965275  0.00841900  0.00020038
  -0.00216460  0.67172189 -0.00055467
   0.66397353  0.66596585 -0.00016306
  -0.00554213  0.01404854 -0.00010424
   0.66583661  0.31843041  0.00018860
   0.68322966  0.01745857  0.00019401
   0.97949688  0.30895281 -0.00012835
   0.33292158  0.32936577  0.00030566
   0.34347123  0.66993550 -0.00011378
   0.11168464  0.22578375  0.94604831
   0.22389105  0.10775320  0.05133859
   0.10715535  0.55325694  0.95146965
   0.21760997  0.44187430  0.05062672
   0.11286597  0.88982458  0.95154076
   0.22083836  0.78115939  0.04904518
   0.44076615  0.21553709  0.94786745
   0.54942065  0.10557244  0.05307018
   0.45150888  0.55673149  0.94820001
   0.55929006  0.44790188  0.05016909
   0.44411451  0.89214038  0.94984038
   0.56065178  0.77739565  0.05106927
   0.77772966  0.22215582  0.94393594
   0.88774637  0.11118382  0.05689162
   0.77898402  0.55878419  0.95072697
   0.89189950  0.44739014  0.05075058
   0.77485197  0.88512053  0.94820940
   0.88633004  0.77435053  0.04937524
unknown system                          
           1
     8.274974    4.779643    0.000000
    -8.292784    4.810464    0.000000
     0.000000    0.000000   30.000000
   V    Mo   W    S 
   3   3   3  18
Direct configuration=    24
   0.34015824  0.00906887  0.00031645
  -0.00256065  0.67346132 -0.00060686
   0.66326142  0.66560508 -0.00021300
  -0.00513466  0.01491015 -0.00002895
   0.66545745  0.31713634  0.00014306
   0.68291977  0.01744977  0.00024489
   0.97833464  0.30755935 -0.00019316
   0.33267753  0.32873645  0.00027564
   0.34580226  0.67143518 -0.00016699
   0.11168961  0.22599126  0.94599606
   0.22386322  0.10784485  0.05139600
   0.10721975  0.55289632  0.95196812
   0.21734112  0.44188529  0.05025510
   0.11296203  0.89044538  0.95162027
   0.22116301  0.78121639  0.04887812
   0.44068666  0.21532173  0.94779771
   0.54940462  0.10537397  0.05320584
   0.45161895  0.55649851  0.94813966
   0.55938248  0.44750201  0.05000240
   0.44417118  0.89222237  0.94980617