   27   27  100    1
  0.9710400E+02  0.1002848E-08  0.1002848E-08  0.3000000E-08  0.5000000E-15
  1.000000000000000E-004
  CAR 
 unknown system                          
    159     34    120
 
  0.0000000E+00  0.0000000E+00  0.0000000E+00  0.1562500E-01
    1      -17.804414   1.000000
    2      -16.690952   1.000000
    3      -16.639129   1.000000
    4      -16.571801   1.000000
    5      -16.536924   1.000000
    6      -16.443543   1.000000
    7      -16.403759   1.000000
    8      -16.354146   1.000000
    9      -16.153313   1.000000
   10      -16.119151   1.000000
   11      -16.025514   1.000000
   12      -16.017609   1.000000
   13      -15.869124   1.000000
   14      -15.754281   1.000000
   15      -15.565116   1.000000
   16      -15.461978   1.000000
   17      -15.431444   1.000000
   18      -15.272406   1.000000
   19       -9.331486   1.000000
   20       -8.935960   1.000000
   21       -8.886558   1.000000
   22       -8.789480   1.000000
   23       -8.753588   1.000000
   24       -8.691464   1.000000
   25       -8.618972   1.000000
   26       -8.551241   1.000000
   27       -8.486236   1.000000
   28       -8.471781   1.000000
   29       -8.424291   1.000000
   30       -8.384587   1.000000
   31       -8.368305   1.000000
   32       -8.243828   1.000000
   33       -8.169865   1.000000
   34       -8.076026   1.000000
   35       -7.852908   1.000000
   36       -7.738236   1.000000
   37       -7.707331   1.000000
   38       -7.587478   1.000000
   39       -7.511680   1.000000
   40       -7.405080   1.000000
   41       -7.264211   1.000000
   42       -7.228265   1.000000
   43       -7.162045   1.000000
   44       -6.875246   1.000000
   45       -6.826452   1.000000
   46       -6.772028   1.000000
   47       -6.711561   1.000000
   48       -6.681710   1.000000
   49       -6.561146   1.000000
   50       -6.546402   1.000000
   51       -6.400892   1.000000
   52       -6.367337   1.000000
   53       -6.332515   1.000000
   54       -6.267722   1.000000
   55       -6.159115   1.000000
   56       -6.097183   1.000000
   57       -5.988039   1.000000
   58       -5.907917   1.000000
   59       -5.819850   1.000000
   60       -5.669419   1.000000
   61       -5.427543   1.000000
   62       -5.400621   1.000000
   63       -5.354207   1.000000
   64       -5.184637   1.000000
   65       -5.052355   1.000000
   66       -4.960063   1.000000
   67       -4.904872   1.000000
   68       -4.861175   1.000000
   69       -4.789501   1.000000
   70       -4.704488   1.000000
   71       -4.607642   1.000000
   72       -4.583280   1.000000
   73       -4.474591   1.000000
   74       -4.352740   1.000000
   75       -4.175984   1.000000
   76       -3.956967   0.999998
   77       -3.766797   0.999419
   78       -3.591318   0.977629
   79       -3.578063   0.972148
   80       -3.448040   0.839874
   81       -3.178733   0.181319
   82       -2.856572   0.000715
   83       -2.764920   0.000062
   84       -2.594719   0.000000
   85       -2.434113   0.000000
   86       -2.369925   0.000000
   87       -2.302022   0.000000
   88       -2.230187   0.000000
   89       -2.142088   0.000000
   90       -2.073967   0.000000
   91       -1.767850   0.000000
   92       -1.747141   0.000000
   93       -1.659910   0.000000
   94       -1.355983   0.000000
   95       -1.251900   0.000000
   96       -1.137894   0.000000
   97       -0.973926   0.000000
   98       -0.814090   0.000000
   99       -0.780716   0.000000
  100       -0.633433   0.000000
  101       -0.556016   0.000000
  102       -0.533194   0.000000
  103       -0.466251   0.000000
  104       -0.376538   0.000000
  105       -0.210864   0.000000
  106       -0.097988   0.000000
  107       -0.028235   0.000000
  108        0.021191   0.000000
  109        0.135553   0.000000
  110        0.235063   0.000000
  111        0.333985   0.000000
  112        0.352605   0.000000
  113        0.605736   0.000000
  114        0.777871   0.000000
  115        0.912470   0.000000
  116        1.179026   0.000000
  117        1.374156   0.000000
  118        1.641991   0.000000
  119        1.834543   0.000000
  120        2.153319   0.000000
 
  0.1250000E+00  0.2775558E-16  0.0000000E+00  0.3125000E-01
    1      -17.779164   1.000000
    2      -16.795402   1.000000
    3      -16.661044   1.000000
    4      -16.597232   1.000000
    5      -16.537477   1.000000
    6      -16.437925   1.000000
    7      -16.378225   1.000000
    8      -16.300471   1.000000
    9      -16.178211   1.000000
   10      -16.112054   1.000000
   11      -16.025288   1.000000
   12      -15.932293   1.000000
   13      -15.854601   1.000000
   14      -15.748176   1.000000
   15      -15.575911   1.000000
   16      -15.466069   1.000000
   17      -15.445977   1.000000
   18      -15.277810   1.000000
   19       -9.321275   1.000000
   20       -9.133686   1.000000
   21       -8.979133   1.000000
   22       -8.913635   1.000000
   23       -8.772006   1.000000
   24       -8.701551   1.000000
   25       -8.607172   1.000000
   26       -8.562749   1.000000
   27       -8.518693   1.000000
   28       -8.443430   1.000000
   29       -8.374620   1.000000
   30       -8.298493   1.000000
   31       -8.257351   1.000000
   32       -8.152995   1.000000
   33       -8.099320   1.000000
   34       -7.925156   1.000000
   35       -7.866542   1.000000
   36       -7.753390   1.000000
   37       -7.687330   1.000000
   38       -7.541081   1.000000
   39       -7.461897   1.000000
   40       -7.431177   1.000000
   41       -7.309153   1.000000
   42       -7.218678   1.000000
   43       -7.165353   1.000000
   44       -6.943342   1.000000
   45       -6.849741   1.000000
   46       -6.814027   1.000000
   47       -6.723789   1.000000
   48       -6.616751   1.000000
   49       -6.585542   1.000000
   50       -6.504144   1.000000
   51       -6.430650   1.000000
   52       -6.337513   1.000000
   53       -6.298665   1.000000
   54       -6.272434   1.000000
   55       -6.173291   1.000000
   56       -6.105077   1.000000
   57       -5.989428   1.000000
   58       -5.907654   1.000000
   59       -5.785297   1.000000
   60       -5.628036   1.000000
   61       -5.495558   1.000000
   62       -5.431125   1.000000
   63       -5.354521   1.000000
   64       -5.214723   1.000000
   65       -5.136078   1.000000
   66       -5.017385   1.000000
   67       -4.964292   1.000000
   68       -4.877258   1.000000
   69       -4.799316   1.000000
   70       -4.696742   1.000000
   71       -4.589179   1.000000
   72       -4.495599   1.000000
   73       -4.419580   1.000000
   74       -4.274960   1.000000
   75       -4.158789   1.000000
   76       -3.913300   0.999991
   77       -3.828691   0.999886
   78       -3.667216   0.994516
   79       -3.603614   0.981871
   80       -3.498789   0.911938
   81       -3.077670   0.052084
   82       -2.837473   0.000445
   83       -2.745167   0.000035
   84       -2.624333   0.000001
   85       -2.466595   0.000000
   86       -2.367495   0.000000
   87       -2.250010   0.000000
   88       -2.214860   0.000000
   89       -2.147267   0.000000
   90       -2.057586   0.000000
   91       -1.752324   0.000000
   92       -1.718762   0.000000
   93       -1.656263   0.000000
   94       -1.370074   0.000000
   95       -1.246719   0.000000
   96       -1.132542   0.000000
   97       -0.978674   0.000000
   98       -0.836005   0.000000
   99       -0.806174   0.000000
  100       -0.720306   0.000000
  101       -0.618766   0.000000
  102       -0.555266   0.000000
  103       -0.483492   0.000000
  104       -0.372100   0.000000
  105       -0.243423   0.000000
  106       -0.190918   0.000000
  107       -0.124284   0.000000
  108        0.050309   0.000000
  109        0.154264   0.000000
  110        0.198312   0.000000
  111        0.332607   0.000000
  112        0.406098   0.000000
  113        0.649780   0.000000
  114        0.821649   0.000000
  115        0.934635   0.000000
  116        1.175728   0.000000
  117        1.382040   0.000000
  118        1.685329   0.000000
  119        1.873074   0.000000
  120        2.188257   0.000000
 
  0.2500000E+00  0.5551115E-16  0.0000000E+00  0.3125000E-01
    1      -17.704431   1.000000
    2      -17.001050   1.000000
    3      -16.686505   1.000000
    4      -16.636829   1.000000
    5      -16.570732   1.000000
    6      -16.426132   1.000000
    7      -16.329565   1.000000
    8      -16.232684   1.000000
    9      -16.177281   1.000000
   10      -16.107168   1.000000
   11      -15.983574   1.000000
   12      -15.852783   1.000000
   13      -15.789246   1.000000
   14      -15.727399   1.000000
   15      -15.602371   1.000000
   16      -15.480981   1.000000
   17      -15.473253   1.000000
   18      -15.293861   1.000000
   19       -9.486498   1.000000
   20       -9.244085   1.000000
   21       -9.118988   1.000000
   22       -9.036243   1.000000
   23       -8.857552   1.000000
   24       -8.770104   1.000000
   25       -8.611029   1.000000
   26       -8.502299   1.000000
   27       -8.483823   1.000000
   28       -8.422894   1.000000
   29       -8.332550   1.000000
   30       -8.208093   1.000000
   31       -8.162461   1.000000
   32       -8.037004   1.000000
   33       -7.989384   1.000000
   34       -7.895471   1.000000
   35       -7.758661   1.000000
   36       -7.618852   1.000000
   37       -7.605584   1.000000
   38       -7.534260   1.000000
   39       -7.437398   1.000000
   40       -7.407322   1.000000
   41       -7.276859   1.000000
   42       -7.217679   1.000000
   43       -7.146689   1.000000
   44       -6.991713   1.000000
   45       -6.879145   1.000000
   46       -6.820393   1.000000
   47       -6.726574   1.000000
   48       -6.660443   1.000000
   49       -6.557362   1.000000
   50       -6.508681   1.000000
   51       -6.417258   1.000000
   52       -6.319577   1.000000
   53       -6.269646   1.000000
   54       -6.223720   1.000000
   55       -6.149609   1.000000
   56       -6.099996   1.000000
   57       -6.005458   1.000000
   58       -5.885270   1.000000
   59       -5.772101   1.000000
   60       -5.709371   1.000000
   61       -5.607581   1.000000
   62       -5.522526   1.000000
   63       -5.442320   1.000000
   64       -5.306620   1.000000
   65       -5.256573   1.000000
   66       -5.021124   1.000000
   67       -4.969196   1.000000
   68       -4.896761   1.000000
   69       -4.790730   1.000000
   70       -4.695119   1.000000
   71       -4.555084   1.000000
   72       -4.385104   1.000000
   73       -4.319071   1.000000
   74       -4.248634   1.000000
   75       -4.097417   1.000000
   76       -3.997791   0.999999
   77       -3.917291   0.999992
   78       -3.734811   0.998743
   79       -3.581282   0.973572
   80       -3.473486   0.879775
   81       -2.982716   0.010827
   82       -2.791647   0.000132
   83       -2.749633   0.000040
   84       -2.639667   0.000001
   85       -2.473672   0.000000
   86       -2.388525   0.000000
   87       -2.212917   0.000000
   88       -2.164727   0.000000
   89       -2.116525   0.000000
   90       -2.007638   0.000000
   91       -1.756634   0.000000
   92       -1.674676   0.000000
   93       -1.595695   0.000000
   94       -1.408612   0.000000
   95       -1.236007   0.000000
   96       -1.119979   0.000000
   97       -1.026053   0.000000
   98       -0.958049   0.000000
   99       -0.886047   0.000000
  100       -0.805835   0.000000
  101       -0.688394   0.000000
  102       -0.639514   0.000000
  103       -0.519424   0.000000
  104       -0.444780   0.000000
  105       -0.368416   0.000000
  106       -0.263554   0.000000
  107       -0.232129   0.000000
  108        0.024207   0.000000
  109        0.158984   0.000000
  110        0.184540   0.000000
  111        0.264165   0.000000
  112        0.431978   0.000000
  113        0.719474   0.000000
  114        0.904353   0.000000
  115        1.034721   0.000000
  116        1.204533   0.000000
  117        1.419275   0.000000
  118        1.807190   0.000000
  119        1.983630   0.000000
  120        2.292151   0.000000
 
  0.3750000E+00  0.0000000E+00  0.0000000E+00  0.3125000E-01
    1      -17.583915   1.000000
    2      -17.215411   1.000000
    3      -16.723289   1.000000
    4      -16.658348   1.000000
    5      -16.574900   1.000000
    6      -16.445836   1.000000
    7      -16.288349   1.000000
    8      -16.213732   1.000000
    9      -16.166435   1.000000
   10      -16.060287   1.000000
   11      -15.907593   1.000000
   12      -15.849515   1.000000
   13      -15.750884   1.000000
   14      -15.693440   1.000000
   15      -15.623177   1.000000
   16      -15.504880   1.000000
   17      -15.471462   1.000000
   18      -15.316218   1.000000
   19       -9.698041   1.000000
   20       -9.314253   1.000000
   21       -9.197541   1.000000
   22       -9.009410   1.000000
   23       -8.913297   1.000000
   24       -8.813191   1.000000
   25       -8.570665   1.000000
   26       -8.561958   1.000000
   27       -8.457126   1.000000
   28       -8.384295   1.000000
   29       -8.278583   1.000000
   30       -8.201711   1.000000
   31       -8.096737   1.000000
   32       -8.031957   1.000000
   33       -7.944117   1.000000
   34       -7.843605   1.000000
   35       -7.710789   1.000000
   36       -7.648984   1.000000
   37       -7.581730   1.000000
   38       -7.523791   1.000000
   39       -7.437922   1.000000
   40       -7.300488   1.000000
   41       -7.159835   1.000000
   42       -7.095390   1.000000
   43       -7.033211   1.000000
   44       -6.982648   1.000000
   45       -6.896440   1.000000
   46       -6.811314   1.000000
   47       -6.702958   1.000000
   48       -6.618403   1.000000
   49       -6.591562   1.000000
   50       -6.448536   1.000000
   51       -6.375087   1.000000
   52       -6.327628   1.000000
   53       -6.309852   1.000000
   54       -6.215392   1.000000
   55       -6.119943   1.000000
   56       -6.039676   1.000000
   57       -5.981407   1.000000
   58       -5.932514   1.000000
   59       -5.901282   1.000000
   60       -5.816395   1.000000
   61       -5.750650   1.000000
   62       -5.650842   1.000000
   63       -5.499376   1.000000
   64       -5.343101   1.000000
   65       -5.268034   1.000000
   66       -5.020947   1.000000
   67       -4.966475   1.000000
   68       -4.859973   1.000000
   69       -4.779031   1.000000
   70       -4.715032   1.000000
   71       -4.629443   1.000000
   72       -4.514558   1.000000
   73       -4.284877   1.000000
   74       -4.156497   1.000000
   75       -4.080343   1.000000
   76       -3.981214   0.999999
   77       -3.897532   0.999985
   78       -3.721372   0.998287
   79       -3.539053   0.949236
   80       -3.448781   0.841145
   81       -2.939941   0.004677
   82       -2.800819   0.000170
   83       -2.734709   0.000026
   84       -2.600185   0.000000
   85       -2.454129   0.000000
   86       -2.431374   0.000000
   87       -2.194993   0.000000
   88       -2.155440   0.000000
   89       -2.008052   0.000000
   90       -1.959815   0.000000
   91       -1.755137   0.000000
   92       -1.678168   0.000000
   93       -1.525532   0.000000
   94       -1.431688   0.000000
   95       -1.242567   0.000000
   96       -1.165218   0.000000
   97       -1.086058   0.000000
   98       -1.043166   0.000000
   99       -1.023683   0.000000
  100       -0.834117   0.000000
  101       -0.762001   0.000000
  102       -0.671940   0.000000
  103       -0.554262   0.000000
  104       -0.510163   0.000000
  105       -0.430774   0.000000
  106       -0.363440   0.000000
  107       -0.304168   0.000000
  108       -0.036664   0.000000
  109        0.088195   0.000000
  110        0.156546   0.000000
  111        0.273544   0.000000
  112        0.429757   0.000000
  113        0.748928   0.000000
  114        0.965080   0.000000
  115        1.139847   0.000000
  116        1.257848   0.000000
  117        1.481992   0.000000
  118        1.990498   0.000000
  119        2.156661   0.000000
  120        2.461369   0.000000
 
  0.5000000E+00  0.1110223E-15  0.0000000E+00  0.1562500E-01
    1      -17.452470   1.000000
    2      -17.380120   1.000000
    3      -16.737454   1.000000
    4      -16.668447   1.000000
    5      -16.568202   1.000000
    6      -16.459788   1.000000
    7      -16.264046   1.000000
    8      -16.229795   1.000000
    9      -16.157280   1.000000
   10      -16.023356   1.000000
   11      -15.865386   1.000000
   12      -15.849492   1.000000
   13      -15.752475   1.000000
   14      -15.713718   1.000000
   15      -15.609201   1.000000
   16      -15.521032   1.000000
   17      -15.454097   1.000000
   18      -15.329444   1.000000
   19       -9.775364   1.000000
   20       -9.351713   1.000000
   21       -9.232746   1.000000
   22       -8.984944   1.000000
   23       -8.890290   1.000000
   24       -8.768637   1.000000
   25       -8.718474   1.000000
   26       -8.529026   1.000000
   27       -8.467970   1.000000
   28       -8.348632   1.000000
   29       -8.236944   1.000000
   30       -8.191425   1.000000
   31       -8.057526   1.000000
   32       -8.027439   1.000000
   33       -7.925046   1.000000
   34       -7.842678   1.000000
   35       -7.760542   1.000000
   36       -7.697363   1.000000
   37       -7.638521   1.000000
   38       -7.493639   1.000000
   39       -7.393601   1.000000
   40       -7.259525   1.000000
   41       -7.087089   1.000000
   42       -7.014628   1.000000
   43       -6.984811   1.000000
   44       -6.947117   1.000000
   45       -6.843190   1.000000
   46       -6.739261   1.000000
   47       -6.665502   1.000000
   48       -6.616707   1.000000
   49       -6.602834   1.000000
   50       -6.563490   1.000000
   51       -6.406036   1.000000
   52       -6.388477   1.000000
   53       -6.252759   1.000000
   54       -6.205104   1.000000
   55       -6.110667   1.000000
   56       -6.060138   1.000000
   57       -5.991865   1.000000
   58       -5.953207   1.000000
   59       -5.907830   1.000000
   60       -5.795738   1.000000
   61       -5.774817   1.000000
   62       -5.663031   1.000000
   63       -5.503842   1.000000
   64       -5.388080   1.000000
   65       -5.315782   1.000000
   66       -5.120001   1.000000
   67       -4.938542   1.000000
   68       -4.874707   1.000000
   69       -4.833102   1.000000
   70       -4.707420   1.000000
   71       -4.631784   1.000000
   72       -4.507092   1.000000
   73       -4.297895   1.000000
   74       -4.110736   1.000000
   75       -4.107400   1.000000
   76       -3.944980   0.999997
   77       -3.847245   0.999932
   78       -3.715931   0.998063
   79       -3.533816   0.945252
   80       -3.439257   0.824289
   81       -2.926137   0.003504
   82       -2.813065   0.000236
   83       -2.712937   0.000013
   84       -2.581063   0.000000
   85       -2.469936   0.000000
   86       -2.430078   0.000000
   87       -2.178281   0.000000
   88       -2.154589   0.000000
   89       -1.957293   0.000000
   90       -1.945081   0.000000
   91       -1.746606   0.000000
   92       -1.687851   0.000000
   93       -1.522050   0.000000
   94       -1.414497   0.000000
   95       -1.256172   0.000000
   96       -1.216848   0.000000
   97       -1.106934   0.000000
   98       -1.087871   0.000000
   99       -1.054282   0.000000
  100       -0.837441   0.000000
  101       -0.798094   0.000000
  102       -0.675758   0.000000
  103       -0.565138   0.000000
  104       -0.519740   0.000000
  105       -0.461868   0.000000
  106       -0.404300   0.000000
  107       -0.336859   0.000000
  108       -0.071382   0.000000
  109        0.051507   0.000000
  110        0.147815   0.000000
  111        0.287787   0.000000
  112        0.422194   0.000000
  113        0.761163   0.000000
  114        0.984254   0.000000
  115        1.176720   0.000000
  116        1.282215   0.000000
  117        1.513569   0.000000
  118        2.199634   0.000000
  119        2.252348   0.000000
  120        2.363711   0.000000
 
  0.0000000E+00  0.1250000E+00  0.0000000E+00  0.3125000E-01
    1      -17.779259   1.000000
    2      -16.777606   1.000000
    3      -16.658925   1.000000
    4      -16.616461   1.000000
    5      -16.549873   1.000000
    6      -16.420748   1.000000
    7      -16.392134   1.000000
    8      -16.313774   1.000000
    9      -16.158925   1.000000
   10      -16.106235   1.000000
   11      -16.019228   1.000000
   12      -15.957572   1.000000
   13      -15.836594   1.000000
   14      -15.747876   1.000000
   15      -15.577199   1.000000
   16      -15.471379   1.000000
   17      -15.437116   1.000000
   18      -15.281754   1.000000
   19       -9.341299   1.000000
   20       -9.099356   1.000000
   21       -8.995610   1.000000
   22       -8.919525   1.000000
   23       -8.761124   1.000000
   24       -8.691682   1.000000
   25       -8.630322   1.000000
   26       -8.582028   1.000000
   27       -8.483943   1.000000
   28       -8.466120   1.000000
   29       -8.394417   1.000000
   30       -8.287738   1.000000
   31       -8.285222   1.000000
   32       -8.133852   1.000000
   33       -8.051361   1.000000
   34       -7.934576   1.000000
   35       -7.854689   1.000000
   36       -7.768056   1.000000
   37       -7.665447   1.000000
   38       -7.555837   1.000000
   39       -7.492862   1.000000
   40       -7.384397   1.000000
   41       -7.282898   1.000000
   42       -7.228096   1.000000
   43       -7.172032   1.000000
   44       -6.922573   1.000000
   45       -6.904197   1.000000
   46       -6.802488   1.000000
   47       -6.754365   1.000000
   48       -6.626300   1.000000
   49       -6.592005   1.000000
   50       -6.524064   1.000000
   51       -6.442866   1.000000
   52       -6.320418   1.000000
   53       -6.293096   1.000000
   54       -6.254449   1.000000
   55       -6.173686   1.000000
   56       -6.108839   1.000000
   57       -5.973489   1.000000
   58       -5.896280   1.000000
   59       -5.744968   1.000000
   60       -5.642218   1.000000
   61       -5.479139   1.000000
   62       -5.394299   1.000000
   63       -5.355877   1.000000
   64       -5.223765   1.000000
   65       -5.144923   1.000000
   66       -5.073241   1.000000
   67       -4.987443   1.000000
   68       -4.913304   1.000000
   69       -4.751199   1.000000
   70       -4.684678   1.000000
   71       -4.634507   1.000000
   72       -4.433901   1.000000
   73       -4.423785   1.000000
   74       -4.308642   1.000000
   75       -4.112719   1.000000
   76       -3.923140   0.999993
   77       -3.857874   0.999950
   78       -3.701024   0.997305
   79       -3.591363   0.977646
   80       -3.400158   0.743883
   81       -3.121004   0.093659
   82       -2.866687   0.000914
   83       -2.758947   0.000053
   84       -2.596703   0.000000
   85       -2.511802   0.000000
   86       -2.356759   0.000000
   87       -2.268926   0.000000
   88       -2.192376   0.000000
   89       -2.143887   0.000000
   90       -2.033113   0.000000
   91       -1.788566   0.000000
   92       -1.703531   0.000000
   93       -1.648601   0.000000
   94       -1.363658   0.000000
   95       -1.252165   0.000000
   96       -1.131419   0.000000
   97       -0.996019   0.000000
   98       -0.813421   0.000000
   99       -0.776109   0.000000
  100       -0.702683   0.000000
  101       -0.606813   0.000000
  102       -0.553344   0.000000
  103       -0.536936   0.000000
  104       -0.402613   0.000000
  105       -0.243839   0.000000
  106       -0.223045   0.000000
  107       -0.080836   0.000000
  108        0.029385   0.000000
  109        0.088480   0.000000
  110        0.225105   0.000000
  111        0.357177   0.000000
  112        0.427878   0.000000
  113        0.735676   0.000000
  114        0.785046   0.000000
  115        0.944580   0.000000
  116        1.175854   0.000000
  117        1.351795   0.000000
  118        1.687423   0.000000
  119        1.872325   0.000000
  120        2.188682   0.000000
 
  0.1250000E+00  0.1250000E+00  0.0000000E+00  0.3125000E-01
    1      -17.728691   1.000000
    2      -16.925615   1.000000
    3      -16.733126   1.000000
    4      -16.617220   1.000000
    5      -16.529296   1.000000
    6      -16.405294   1.000000
    7      -16.368208   1.000000
    8      -16.264646   1.000000
    9      -16.155517   1.000000
   10      -16.138013   1.000000
   11      -16.009085   1.000000
   12      -15.861378   1.000000
   13      -15.783808   1.000000
   14      -15.730060   1.000000
   15      -15.594696   1.000000
   16      -15.479976   1.000000
   17      -15.459038   1.000000
   18      -15.299092   1.000000
   19       -9.428183   1.000000
   20       -9.235606   1.000000
   21       -9.144035   1.000000
   22       -8.959060   1.000000
   23       -8.860345   1.000000
   24       -8.699455   1.000000
   25       -8.583474   1.000000
   26       -8.541384   1.000000
   27       -8.478906   1.000000
   28       -8.441625   1.000000
   29       -8.391887   1.000000
   30       -8.240482   1.000000
   31       -8.180694   1.000000
   32       -8.039383   1.000000
   33       -8.016568   1.000000
   34       -7.938357   1.000000
   35       -7.729104   1.000000
   36       -7.669807   1.000000
   37       -7.625503   1.000000
   38       -7.501201   1.000000
   39       -7.416640   1.000000
   40       -7.332185   1.000000
   41       -7.308660   1.000000
   42       -7.247893   1.000000
   43       -7.161612   1.000000
   44       -7.005104   1.000000
   45       -6.954480   1.000000
   46       -6.841000   1.000000
   47       -6.766213   1.000000
   48       -6.621573   1.000000
   49       -6.584419   1.000000
   50       -6.544428   1.000000
   51       -6.420428   1.000000
   52       -6.325434   1.000000
   53       -6.250947   1.000000
   54       -6.214165   1.000000
   55       -6.128686   1.000000
   56       -6.117122   1.000000
   57       -5.955821   1.000000
   58       -5.886697   1.000000
   59       -5.720015   1.000000
   60       -5.663097   1.000000
   61       -5.552006   1.000000
   62       -5.449267   1.000000
   63       -5.433414   1.000000
   64       -5.310999   1.000000
   65       -5.239873   1.000000
   66       -5.150023   1.000000
   67       -4.973128   1.000000
   68       -4.879674   1.000000
   69       -4.800604   1.000000
   70       -4.683565   1.000000
   71       -4.585291   1.000000
   72       -4.384326   1.000000
   73       -4.321034   1.000000
   74       -4.209894   1.000000
   75       -4.097643   1.000000
   76       -4.026985   1.000000
   77       -3.873236   0.999968
   78       -3.708597   0.997718
   79       -3.624712   0.987558
   80       -3.405317   0.755481
   81       -3.029042   0.024487
   82       -2.858010   0.000741
   83       -2.770092   0.000072
   84       -2.636599   0.000001
   85       -2.532591   0.000000
   86       -2.380598   0.000000
   87       -2.226734   0.000000
   88       -2.148120   0.000000
   89       -2.119076   0.000000
   90       -2.004876   0.000000
   91       -1.784785   0.000000
   92       -1.675282   0.000000
   93       -1.594420   0.000000
   94       -1.405482   0.000000
   95       -1.240333   0.000000
   96       -1.120989   0.000000
   97       -1.024476   0.000000
   98       -0.898743   0.000000
   99       -0.821723   0.000000
  100       -0.772981   0.000000
  101       -0.666755   0.000000
  102       -0.608831   0.000000
  103       -0.534197   0.000000
  104       -0.436978   0.000000
  105       -0.326518   0.000000
  106       -0.289799   0.000000
  107       -0.182832   0.000000
  108       -0.005669   0.000000
  109        0.075096   0.000000
  110        0.200062   0.000000
  111        0.322141   0.000000
  112        0.482425   0.000000
  113        0.753273   0.000000
  114        0.867581   0.000000
  115        1.018822   0.000000
  116        1.200019   0.000000
  117        1.390622   0.000000
  118        1.772076   0.000000
  119        1.944647   0.000000
  120        2.258551   0.000000
 
  0.2500000E+00  0.1250000E+00  0.0000000E+00  0.3125000E-01
    1      -17.630430   1.000000
    2      -17.112739   1.000000
    3      -16.839384   1.000000
    4      -16.601314   1.000000
    5      -16.521948   1.000000
    6      -16.397229   1.000000
    7      -16.314977   1.000000
    8      -16.222840   1.000000
    9      -16.184890   1.000000
   10      -16.100079   1.000000
   11      -15.967483   1.000000
   12      -15.836373   1.000000
   13      -15.742801   1.000000
   14      -15.675372   1.000000
   15      -15.619137   1.000000
   16      -15.493021   1.000000
   17      -15.475364   1.000000
   18      -15.319223   1.000000
   19       -9.612935   1.000000
   20       -9.404362   1.000000
   21       -9.169430   1.000000
   22       -9.035129   1.000000
   23       -8.853623   1.000000
   24       -8.714865   1.000000
   25       -8.566605   1.000000
   26       -8.501743   1.000000
   27       -8.464594   1.000000
   28       -8.398524   1.000000
   29       -8.307852   1.000000
   30       -8.240929   1.000000
   31       -8.128418   1.000000
   32       -8.046176   1.000000
   33       -7.978895   1.000000
   34       -7.953863   1.000000
   35       -7.749482   1.000000
   36       -7.602242   1.000000
   37       -7.504322   1.000000
   38       -7.452006   1.000000
   39       -7.404559   1.000000
   40       -7.331635   1.000000
   41       -7.229309   1.000000
   42       -7.146321   1.000000
   43       -7.081484   1.000000
   44       -6.975384   1.000000
   45       -6.934946   1.000000
   46       -6.845629   1.000000
   47       -6.699669   1.000000