       N       E                     dE             d eps       ncg     rms          rms(c)
DAV:   1     0.112356448185E+04    0.11236E+04   -0.35865E+04  8160   0.577E+02
DAV:   2    -0.443840172416E+01   -0.11280E+04   -0.10861E+04 11680   0.173E+02
DAV:   3    -0.200124253099E+03   -0.19569E+03   -0.18844E+03 10880   0.819E+01
DAV:   4    -0.208993999618E+03   -0.88697E+01   -0.86435E+01 12200   0.260E+01
DAV:   5    -0.209299929541E+03   -0.30593E+00   -0.30516E+00 11360   0.351E+00    0.275E+01
DAV:   6    -0.237726702945E+03   -0.28427E+02   -0.10699E+02 12480   0.599E+01    0.595E+01
DAV:   7    -0.196625606416E+03    0.41101E+02   -0.17699E+02 13480   0.152E+02    0.201E+01
DAV:   8    -0.189636118434E+03    0.69895E+01   -0.17609E+01 12080   0.128E+01    0.128E+01
DAV:   9    -0.188216904716E+03    0.14192E+01   -0.31144E+00 13040   0.615E+00    0.940E+00
DAV:  10    -0.186952112582E+03    0.12648E+01   -0.17570E+00 13400   0.796E+00    0.215E+00
DAV:  11    -0.187043395345E+03   -0.91283E-01   -0.58532E-01 13600   0.295E+00    0.367E+00
DAV:  12    -0.186985776890E+03    0.57618E-01   -0.66670E-01 12720   0.436E+00    0.347E+00
DAV:  13    -0.186877619879E+03    0.10816E+00   -0.26201E-01 13280   0.299E+00    0.178E+00
DAV:  14    -0.186843664077E+03    0.33956E-01   -0.96632E-02 12920   0.152E+00    0.596E-01
DAV:  15    -0.186839589405E+03    0.40747E-02   -0.14933E-02 12640   0.499E-01    0.530E-01
DAV:  16    -0.186839439718E+03    0.14969E-03   -0.11053E-02 13320   0.552E-01    0.549E-01
DAV:  17    -0.186836387813E+03    0.30519E-02   -0.73675E-03 12640   0.432E-01    0.182E-01
DAV:  18    -0.186836125737E+03    0.26208E-03   -0.14238E-03 12200   0.154E-01    0.964E-02
DAV:  19    -0.186836142194E+03   -0.16457E-04   -0.59328E-04  9840   0.697E-02
   1 F= -.18683614E+03 E0= -.18666429E+03  d E =-.186836E+03
       N       E                     dE             d eps       ncg     rms          rms(c)
DAV:   1    -0.187493149783E+03   -0.65702E+00   -0.27427E+02  8160   0.351E+01    0.469E+00
DAV:   2    -0.189515079259E+03   -0.20219E+01   -0.20343E+01 11960   0.155E+01    0.102E+01
DAV:   3    -0.189330825394E+03    0.18425E+00   -0.55749E+00 12280   0.131E+01    0.616E+00
DAV:   4    -0.188766171025E+03    0.56465E+00   -0.57067E-01 11320   0.456E+00    0.246E+00
DAV:   5    -0.188850512525E+03   -0.84342E-01   -0.47949E-01 12160   0.403E+00    0.491E+00
DAV:   6    -0.188721400643E+03    0.12911E+00   -0.63317E-01 12200   0.394E+00    0.222E+00
DAV:   7    -0.188689518552E+03    0.31882E-01   -0.22060E-01 11920   0.203E+00    0.199E+00
DAV:   8    -0.188674050810E+03    0.15468E-01   -0.12627E-01 11920   0.208E+00    0.182E+00
DAV:   9    -0.188648589642E+03    0.25461E-01   -0.55512E-02 12080   0.120E+00    0.628E-01
DAV:  10    -0.188645455717E+03    0.31339E-02   -0.67138E-03 10520   0.302E-01    0.282E-01
DAV:  11    -0.188645146662E+03    0.30905E-03   -0.31511E-03 12960   0.256E-01    0.144E-01
DAV:  12    -0.188645262770E+03   -0.11611E-03   -0.95290E-04 10720   0.999E-02    0.113E-01
DAV:  13    -0.188645316392E+03   -0.53622E-04   -0.29085E-04  6800   0.720E-02
   2 F= -.18864532E+03 E0= -.18850517E+03  d E =-.180917E+01
       N       E                     dE             d eps       ncg     rms          rms(c)
DAV:   1    -0.190599637645E+03   -0.19544E+01   -0.31840E+01  9200   0.144E+01    0.448E+00
DAV:   2    -0.190532212575E+03    0.67425E-01   -0.28068E+00 12120   0.944E+00    0.715E+00
DAV:   3    -0.190076845401E+03    0.45537E+00   -0.13204E+00 12280   0.864E+00    0.428E+00
DAV:   4    -0.189859274084E+03    0.21757E+00   -0.70691E-01 13120   0.438E+00    0.251E+00
DAV:   5    -0.189813229930E+03    0.46044E-01   -0.35077E-01 12240   0.286E+00    0.240E+00
DAV:   6    -0.189757680485E+03    0.55549E-01   -0.11663E-01 12360   0.223E+00    0.707E-01
DAV:   7    -0.189752182096E+03    0.54984E-02   -0.13054E-02 11880   0.528E-01    0.243E-01
DAV:   8    -0.189752929884E+03   -0.74779E-03   -0.45103E-03 11680   0.362E-01    0.381E-01
DAV:   9    -0.189751927725E+03    0.10022E-02   -0.25947E-03 10400   0.318E-01    0.146E-01
DAV:  10    -0.189752294459E+03   -0.36673E-03   -0.10988E-03 10320   0.134E-01    0.140E-01
DAV:  11    -0.189752004613E+03    0.28985E-03   -0.58206E-04 10480   0.867E-02    0.188E-02
DAV:  12    -0.189752065121E+03   -0.60508E-04   -0.73318E-05  6480   0.247E-02
   3 F= -.18975207E+03 E0= -.18963408E+03  d E =-.110675E+01
       N       E                     dE             d eps       ncg     rms          rms(c)
DAV:   1    -0.191339122104E+03   -0.15871E+01   -0.77290E+01  8160   0.200E+01    0.463E+00
DAV:   2    -0.191160876024E+03    0.17825E+00   -0.54038E+00 13000   0.776E+00    0.462E+00
DAV:   3    -0.191317772988E+03   -0.15690E+00   -0.14940E+00 12200   0.910E+00    0.713E+00
DAV:   4    -0.190945568393E+03    0.37220E+00   -0.17222E+00 12160   0.847E+00    0.381E+00
DAV:   5    -0.190926510425E+03    0.19058E-01   -0.74799E-01 11240   0.558E+00    0.354E+00
DAV:   6    -0.190755350088E+03    0.17116E+00   -0.22014E-01 11600   0.318E+00    0.762E-01
DAV:   7    -0.190753415132E+03    0.19350E-02   -0.44441E-02 12640   0.987E-01    0.748E-01
DAV:   8    -0.190752177499E+03    0.12376E-02   -0.22496E-02 12000   0.102E+00    0.680E-01
DAV:   9    -0.190747246004E+03    0.49315E-02   -0.66669E-03 11160   0.563E-01    0.158E-01
DAV:  10    -0.190747601567E+03   -0.35556E-03   -0.15417E-03 10680   0.134E-01    0.133E-01
DAV:  11    -0.190747395243E+03    0.20632E-03   -0.83896E-04 10720   0.112E-01    0.419E-02
DAV:  12    -0.190747418547E+03   -0.23304E-04   -0.13280E-04  6560   0.417E-02
   4 F= -.19074742E+03 E0= -.19064626E+03  d E =-.995353E+00
       N       E                     dE             d eps       ncg     rms          rms(c)
DAV:   1    -0.192124100272E+03   -0.13767E+01   -0.16204E+02  8160   0.284E+01    0.571E+00
DAV:   2    -0.191882768089E+03    0.24133E+00   -0.93855E+00 11480   0.857E+00    0.435E+00
DAV:   3    -0.192377381565E+03   -0.49461E+00   -0.27244E+00 11960   0.104E+01    0.107E+01
DAV:   4    -0.191654470636E+03    0.72291E+00   -0.32447E+00 11760   0.123E+01    0.375E+00
DAV:   5    -0.191596020518E+03    0.58450E-01   -0.71643E-01 11920   0.576E+00    0.392E+00
DAV:   6    -0.191424299144E+03    0.17172E+00   -0.38327E-01 12600   0.433E+00    0.158E+00
DAV:   7    -0.191414326393E+03    0.99728E-02   -0.94301E-02 12440   0.203E+00    0.141E+00
DAV:   8    -0.191400617424E+03    0.13709E-01   -0.56743E-02 11360   0.164E+00    0.664E-01
DAV:   9    -0.191394893009E+03    0.57244E-02   -0.69901E-03 11680   0.485E-01    0.239E-01
DAV:  10    -0.191394854872E+03    0.38136E-04   -0.27475E-03 12200   0.241E-01    0.826E-02
DAV:  11    -0.191394915749E+03   -0.60877E-04   -0.52653E-04 10800   0.913E-02
   5 F= -.19139492E+03 E0= -.19129701E+03  d E =-.647497E+00
       N       E                     dE             d eps       ncg     rms          rms(c)
DAV:   1    -0.191429880511E+03   -0.35026E-01   -0.28832E+00  8160   0.359E+00    0.497E-01
DAV:   2    -0.191470095212E+03   -0.40215E-01   -0.19010E-01 12760   0.236E+00    0.177E+00
DAV:   3    -0.191439428879E+03    0.30666E-01   -0.61702E-02 12360   0.178E+00    0.355E-01
DAV:   4    -0.191439755907E+03   -0.32703E-03   -0.76080E-03 11080   0.600E-01    0.421E-01
DAV:   5    -0.191437912357E+03    0.18436E-02   -0.39775E-03 10720   0.468E-01    0.179E-01
DAV:   6    -0.191437861785E+03    0.50572E-04   -0.17023E-03 11520   0.213E-01    0.166E-01
DAV:   7    -0.191438088606E+03   -0.22682E-03   -0.22473E-03 10200   0.305E-01    0.233E-01
DAV:   8    -0.191437542330E+03    0.54628E-03   -0.96005E-04  8680   0.201E-01    0.270E-02
DAV:   9    -0.191437561288E+03   -0.18958E-04   -0.74766E-05  5800   0.321E-02
   6 F= -.19143756E+03 E0= -.19133756E+03  d E =-.426455E-01
       N       E                     dE             d eps       ncg     rms          rms(c)
DAV:   1    -0.191485225756E+03   -0.47683E-01   -0.74745E+00  8160   0.576E+00    0.708E-01
DAV:   2    -0.191536457146E+03   -0.51231E-01   -0.26684E-01 13200   0.233E+00    0.209E+00
DAV:   3    -0.191496196069E+03    0.40261E-01   -0.11227E-01 12440   0.231E+00    0.654E-01
DAV:   4    -0.191493996091E+03    0.22000E-02   -0.16373E-02 10920   0.748E-01    0.504E-01
DAV:   5    -0.191491880905E+03    0.21152E-02   -0.90650E-03 11320   0.714E-01    0.354E-01
DAV:   6    -0.191491026080E+03    0.85483E-03   -0.52104E-03 11360   0.437E-01    0.249E-01
DAV:   7    -0.191491586394E+03   -0.56031E-03   -0.50158E-03 11360   0.454E-01    0.351E-01
DAV:   8    -0.191490360427E+03    0.12260E-02   -0.21915E-03  9600   0.308E-01    0.407E-02
DAV:   9    -0.191490376777E+03   -0.16350E-04   -0.10799E-04  5560   0.432E-02
   7 F= -.19149038E+03 E0= -.19138820E+03  d E =-.528155E-01
       N       E                     dE             d eps       ncg     rms          rms(c)
DAV:   1    -0.191500034962E+03   -0.96745E-02   -0.29297E-01  8160   0.121E+00    0.243E-01
DAV:   2    -0.191500374616E+03   -0.33965E-03   -0.15186E-02 11560   0.495E-01    0.371E-01
DAV:   3    -0.191499756323E+03    0.61829E-03   -0.67716E-03 11480   0.578E-01    0.303E-01
DAV:   4    -0.191498990420E+03    0.76590E-03   -0.29577E-03 10960   0.361E-01    0.190E-01
DAV:   5    -0.191498848934E+03    0.14149E-03   -0.16726E-03  9760   0.293E-01    0.167E-01
DAV:   6    -0.191498504863E+03    0.34407E-03   -0.77061E-04  9800   0.184E-01    0.410E-02
DAV:   7    -0.191498494066E+03    0.10797E-04   -0.10371E-04  5880   0.481E-02
   8 F= -.19149849E+03 E0= -.19139589E+03  d E =-.811729E-02
       N       E                     dE             d eps       ncg     rms          rms(c)
DAV:   1    -0.191534963919E+03   -0.36459E-01   -0.32065E+00  8160   0.378E+00    0.448E-01
DAV:   2    -0.191561683086E+03   -0.26719E-01   -0.11538E-01 13600   0.181E+00    0.156E+00
DAV:   3    -0.191538867746E+03    0.22815E-01   -0.51023E-02 12400   0.156E+00    0.324E-01
DAV:   4    -0.191539123375E+03   -0.25563E-03   -0.59637E-03 11520   0.495E-01    0.380E-01
DAV:   5    -0.191537818764E+03    0.13046E-02   -0.43699E-03 11160   0.461E-01    0.212E-01
DAV:   6    -0.191537825861E+03   -0.70977E-05   -0.24863E-03 10360   0.295E-01    0.224E-01
DAV:   7    -0.191537636763E+03    0.18910E-03   -0.20331E-03  9720   0.303E-01    0.153E-01
DAV:   8    -0.191537335546E+03    0.30122E-03   -0.49166E-04  8240   0.138E-01    0.201E-02
DAV:   9    -0.191537345558E+03   -0.10013E-04   -0.58971E-05  6880   0.284E-02
   9 F= -.19153735E+03 E0= -.19143401E+03  d E =-.388515E-01
       N       E                     dE             d eps       ncg     rms          rms(c)
DAV:   1    -0.191452593944E+03    0.84742E-01   -0.14117E+01  8160   0.793E+00    0.924E-01
DAV:   2    -0.191547490996E+03   -0.94897E-01   -0.46536E-01 13600   0.353E+00    0.272E+00
DAV:   3    -0.191469287933E+03    0.78203E-01   -0.15916E-01 12240   0.290E+00    0.746E-01
DAV:   4    -0.191470430290E+03   -0.11424E-02   -0.29126E-02 11320   0.117E+00    0.871E-01
DAV:   5    -0.191463479460E+03    0.69508E-02   -0.22226E-02 11960   0.106E+00    0.448E-01
DAV:   6    -0.191463278653E+03    0.20081E-03   -0.10664E-02 11480   0.628E-01    0.469E-01
DAV:   7    -0.191462258412E+03    0.10202E-02   -0.83342E-03 11360   0.606E-01    0.300E-01
DAV:   8    -0.191461112607E+03    0.11458E-02   -0.20921E-03 11720   0.266E-01    0.469E-02
DAV:   9    -0.191461115834E+03   -0.32267E-05   -0.22342E-04  8080   0.520E-02
  10 F= -.19146112E+03 E0= -.19135977E+03  d E =0.762297E-01
       N       E                     dE             d eps       ncg     rms          rms(c)
DAV:   1    -0.191423906972E+03    0.37206E-01   -0.69270E+00  8160   0.553E+00    0.579E-01
DAV:   2    -0.191453894231E+03   -0.29987E-01   -0.17591E-01 13400   0.182E+00    0.155E+00
DAV:   3    -0.191432878179E+03    0.21016E-01   -0.65208E-02 12160   0.177E+00    0.614E-01
DAV:   4    -0.191429574269E+03    0.33039E-02   -0.11074E-02 11240   0.581E-01    0.301E-01
DAV:   5    -0.191429439714E+03    0.13455E-03   -0.61192E-03 11880   0.468E-01    0.411E-01
DAV:   6    -0.191428319060E+03    0.11207E-02   -0.55218E-03 11000   0.472E-01    0.211E-01
DAV:   7    -0.191428090575E+03    0.22849E-03   -0.14622E-03 10160   0.203E-01    0.962E-02
DAV:   8    -0.191427967895E+03    0.12268E-03   -0.43158E-04 10040   0.140E-01    0.725E-02
DAV:   9    -0.191427912761E+03    0.55134E-04   -0.12834E-04  6840   0.894E-02
  11 F= -.19142791E+03 E0= -.19132774E+03  d E =0.332031E-01
       N       E                     dE             d eps       ncg     rms          rms(c)
DAV:   1    -0.191432455307E+03   -0.44874E-02   -0.11233E+00  8160   0.224E+00    0.250E-01
DAV:   2    -0.191435307246E+03   -0.28519E-02   -0.37291E-02 12120   0.563E-01    0.296E-01
DAV:   3    -0.191435509519E+03   -0.20227E-03   -0.91331E-03 11120   0.575E-01    0.417E-01
DAV:   4    -0.191434001010E+03    0.15085E-02   -0.37398E-03 10760   0.387E-01    0.150E-01
DAV:   5    -0.191433916010E+03    0.85000E-04   -0.11115E-03  9600   0.227E-01    0.146E-01
DAV:   6    -0.191433821800E+03    0.94210E-04   -0.86631E-04  9640   0.208E-01
  12 F= -.19143382E+03 E0= -.19133287E+03  d E =-.590904E-02
       N       E                     dE             d eps       ncg     rms          rms(c)
DAV:   1    -0.191449413937E+03   -0.15498E-01   -0.12179E+00  8160   0.237E+00    0.308E-01
DAV:   2    -0.191457956562E+03   -0.85426E-02   -0.48961E-02 13600   0.108E+00    0.867E-01
DAV:   3    -0.191451218514E+03    0.67380E-02   -0.19890E-02 11760   0.948E-01    0.307E-01
DAV:   4    -0.191450983060E+03    0.23545E-03   -0.44272E-03 11040   0.425E-01    0.296E-01
DAV:   5    -0.191450272582E+03    0.71048E-03   -0.26827E-03 10200   0.362E-01    0.169E-01
DAV:   6    -0.191450109032E+03    0.16355E-03   -0.12322E-03  9680   0.206E-01    0.143E-01
DAV:   7    -0.191450046722E+03    0.62310E-04   -0.92784E-04  8480   0.211E-01
  13 F= -.19145005E+03 E0= -.19134732E+03  d E =-.162249E-01
       N       E                     dE             d eps       ncg     rms          rms(c)
DAV:   1    -0.191461899845E+03   -0.11791E-01   -0.65495E-01  8160   0.173E+00    0.230E-01
DAV:   2    -0.191468461584E+03   -0.65617E-02   -0.29768E-02 13600   0.884E-01    0.766E-01
DAV:   3    -0.191462933944E+03    0.55276E-02   -0.13107E-02 11520   0.781E-01    0.199E-01
DAV:   4    -0.191462849940E+03    0.84004E-04   -0.19041E-03 10120   0.264E-01    0.186E-01
DAV:   5    -0.191462610523E+03    0.23942E-03   -0.12422E-03 10440   0.243E-01    0.129E-01
DAV:   6    -0.191462499771E+03    0.11075E-03   -0.63556E-04  8400   0.151E-01    0.978E-02
DAV:   7    -0.191462491232E+03    0.85392E-05   -0.46294E-04  8360   0.149E-01
  14 F= -.19146249E+03 E0= -.19135843E+03  d E =-.124445E-01
       N       E                     dE             d eps       ncg     rms          rms(c)
DAV:   1    -0.191451211491E+03    0.11288E-01   -0.51510E-01  8160   0.152E+00    0.187E-01
DAV:   2    -0.191456046326E+03   -0.48348E-02   -0.20776E-02 13600   0.756E-01    0.656E-01
DAV:   3    -0.191451932642E+03    0.41137E-02   -0.87748E-03 11480   0.654E-01    0.148E-01
DAV:   4    -0.191451816113E+03    0.11653E-03   -0.91688E-04  9800   0.167E-01    0.112E-01
DAV:   5    -0.191451768705E+03    0.47409E-04   -0.61889E-04  9280   0.170E-01
  15 F= -.19145177E+03 E0= -.19134868E+03  d E =0.107225E-01
       N       E                     dE             d eps       ncg     rms          rms(c)
DAV:   1    -0.191455192248E+03   -0.33761E-02   -0.25728E-01  8160   0.109E+00    0.147E-01
DAV:   2    -0.191455971538E+03   -0.77929E-03   -0.87527E-03 12600   0.351E-01    0.268E-01
DAV:   3    -0.191455566926E+03    0.40461E-03   -0.31054E-03 11360   0.380E-01    0.207E-01
DAV:   4    -0.191455150929E+03    0.41600E-03   -0.95361E-04  8880   0.194E-01    0.730E-02
DAV:   5    -0.191455205419E+03   -0.54490E-04   -0.50774E-04  8240   0.140E-01
  16 F= -.19145521E+03 E0= -.19135188E+03  d E =-.343671E-02
       N       E                     dE             d eps       ncg     rms          rms(c)
DAV:   1    -0.191469099280E+03   -0.13948E-01   -0.85933E-01  8160   0.198E+00    0.302E-01
DAV:   2    -0.191484492201E+03   -0.15393E-01   -0.52304E-02 13360   0.127E+00    0.129E+00
DAV:   3    -0.191469866216E+03    0.14626E-01   -0.31989E-02 11160   0.113E+00    0.215E-01
DAV:   4    -0.191470247910E+03   -0.38169E-03   -0.35403E-03 11400   0.365E-01    0.304E-01
DAV:   5    -0.191469414344E+03    0.83357E-03   -0.22945E-03  9640   0.320E-01    0.126E-01
DAV:   6    -0.191469354311E+03    0.60033E-04   -0.79881E-04  9480   0.173E-01
  17 F= -.19146935E+03 E0= -.19136454E+03  d E =-.141489E-01
       N       E                     dE             d eps       ncg     rms          rms(c)
DAV:   1    -0.191424873491E+03    0.44541E-01   -0.11425E+01  8160   0.716E+00    0.930E-01
DAV:   2    -0.191546989943E+03   -0.12212E+00   -0.47556E-01 13560   0.358E+00    0.355E+00
DAV:   3    -0.191438779636E+03    0.10821E+00   -0.25592E-01 12080   0.337E+00    0.734E-01
DAV:   4    -0.191434416058E+03    0.43636E-02   -0.21867E-02 11000   0.871E-01    0.561E-01
DAV:   5    -0.191433329036E+03    0.10870E-02   -0.17183E-02 12640   0.901E-01    0.570E-01
DAV:   6    -0.191430303966E+03    0.30251E-02   -0.89100E-03 12160   0.602E-01    0.292E-01
DAV:   7    -0.191431171873E+03   -0.86791E-03   -0.62223E-03 11160   0.547E-01    0.391E-01
DAV:   8    -0.191429482444E+03    0.16894E-02   -0.26462E-03 10040   0.351E-01    0.413E-02
DAV:   9    -0.191429497479E+03   -0.15035E-04   -0.16694E-04  7600   0.465E-02
  18 F= -.19142950E+03 E0= -.19133046E+03  d E =0.398568E-01
       N       E                     dE             d eps       ncg     rms          rms(c)
DAV:   1    -0.191445266898E+03   -0.15784E-01   -0.11927E+00  8160   0.234E+00    0.387E-01
DAV:   2    -0.191461563491E+03   -0.16297E-01   -0.63025E-02 13520   0.148E+00    0.133E+00
DAV:   3    -0.191444967976E+03    0.16596E-01   -0.35764E-02 11640   0.128E+00    0.308E-01
DAV:   4    -0.191445794807E+03   -0.82683E-03   -0.72002E-03 11400   0.576E-01    0.442E-01
DAV:   5    -0.191443895532E+03    0.18993E-02   -0.46189E-03 10960   0.468E-01    0.179E-01
DAV:   6    -0.191443926492E+03   -0.30960E-04   -0.21711E-03 11440   0.286E-01    0.219E-01
DAV:   7    -0.191443521200E+03    0.40529E-03   -0.12987E-03  9840   0.247E-01    0.849E-02
DAV:   8    -0.191443444758E+03    0.76442E-04   -0.17420E-04  5760   0.814E-02
  19 F= -.19144344E+03 E0= -.19134333E+03  d E =-.139473E-01
       N       E                     dE             d eps       ncg     rms          rms(c)
DAV:   1    -0.191452741306E+03   -0.92201E-02   -0.61826E-01  8160   0.164E+00    0.171E-01
DAV:   2    -0.191455074021E+03   -0.23327E-02   -0.16789E-02 13480   0.486E-01    0.393E-01
DAV:   3    -0.191453770112E+03    0.13039E-02   -0.51368E-03 11480   0.488E-01    0.206E-01
DAV:   4    -0.191453487691E+03    0.28242E-03   -0.11140E-03  9520   0.198E-01    0.115E-01
DAV:   5    -0.191453420128E+03    0.67564E-04   -0.52773E-04  9040   0.164E-01
  20 F= -.19145342E+03 E0= -.19135339E+03  d E =-.997537E-02
       N       E                     dE             d eps       ncg     rms          rms(c)
DAV:   1    -0.191460917024E+03   -0.74293E-02   -0.34664E-01  8160   0.125E+00    0.181E-01
DAV:   2    -0.191466340752E+03   -0.54237E-02   -0.17473E-02 13600   0.753E-01    0.727E-01
DAV:   3    -0.191461228323E+03    0.51124E-02   -0.92007E-03 11200   0.679E-01    0.110E-01
DAV:   4    -0.191461291207E+03   -0.62883E-04   -0.76774E-04  9720   0.149E-01
  21 F= -.19146129E+03 E0= -.19136099E+03  d E =-.787108E-02
       N       E                     dE             d eps       ncg     rms          rms(c)
DAV:   1    -0.191447246618E+03    0.13982E-01   -0.25022E+00  8160   0.335E+00    0.421E-01
DAV:   2    -0.191477856775E+03   -0.30610E-01   -0.10993E-01 13600   0.177E+00    0.170E+00
DAV:   3    -0.191450030030E+03    0.27827E-01   -0.54111E-02 11800   0.159E+00    0.274E-01
DAV:   4    -0.191449640819E+03    0.38921E-03   -0.37004E-03 11240   0.335E-01    0.218E-01
DAV:   5    -0.191449302805E+03    0.33801E-03   -0.20912E-03 12400   0.340E-01    0.188E-01
DAV:   6    -0.191448951263E+03    0.35154E-03   -0.10665E-03  9920   0.218E-01    0.956E-02
DAV:   7    -0.191449284374E+03   -0.33311E-03   -0.11414E-03  9360   0.226E-01    0.204E-01
DAV:   8    -0.191448851837E+03    0.43254E-03   -0.65092E-04  8240   0.176E-01    0.156E-02
DAV:   9    -0.191448871906E+03   -0.20069E-04   -0.28725E-05  5720   0.207E-02
  22 F= -.19144887E+03 E0= -.19135023E+03  d E =0.124193E-01
       N       E                     dE             d eps       ncg     rms          rms(c)
DAV:   1    -0.191467044712E+03   -0.18193E-01   -0.18019E+00  8160   0.280E+00    0.333E-01
DAV:   2    -0.191478734230E+03   -0.11690E-01   -0.53418E-02 13600   0.131E+00    0.987E-01
DAV:   3    -0.191468196211E+03    0.10538E-01   -0.20573E-02 12040   0.105E+00    0.236E-01
DAV:   4    -0.191469012135E+03   -0.81592E-03   -0.47473E-03 11040   0.452E-01    0.380E-01
DAV:   5    -0.191467687986E+03    0.13241E-02   -0.32561E-03 10320   0.400E-01    0.149E-01
DAV:   6    -0.191467590629E+03    0.97358E-04   -0.11253E-03 10120   0.192E-01    0.131E-01
DAV:   7    -0.191467646969E+03   -0.56340E-04   -0.10603E-03  9000   0.220E-01    0.151E-01
DAV:   8    -0.191467405915E+03    0.24105E-03   -0.40539E-04  7080   0.134E-01    0.181E-02
DAV:   9    -0.191467413908E+03   -0.79932E-05   -0.35082E-05  6120   0.233E-02
  23 F= -.19146741E+03 E0= -.19136881E+03  d E =-.185420E-01
       N       E                     dE             d eps       ncg     rms          rms(c)
DAV:   1    -0.191470883109E+03   -0.34772E-02   -0.62800E-02  8160   0.520E-01    0.525E-02
DAV:   2    -0.191471071596E+03   -0.18849E-03   -0.13296E-03 12800   0.151E-01    0.104E-01
DAV:   3    -0.191470945344E+03    0.12625E-03   -0.34765E-04  8600   0.138E-01    0.484E-02
DAV:   4    -0.191470934081E+03    0.11263E-04   -0.85115E-05  5520   0.638E-02
  24 F= -.19147093E+03 E0= -.19137245E+03  d E =-.352017E-02
       N       E                     dE             d eps       ncg     rms          rms(c)
DAV:   1    -0.191479852542E+03   -0.89072E-02   -0.73243E-01  8160   0.182E+00    0.252E-01
DAV:   2    -0.191490037634E+03   -0.10185E-01   -0.36937E-02 13200   0.106E+00    0.964E-01
DAV:   3    -0.191480732019E+03    0.93056E-02   -0.17055E-02 11440   0.918E-01    0.178E-01
DAV:   4    -0.191480767584E+03   -0.35566E-04   -0.17883E-03  9880   0.257E-01    0.198E-01
DAV:   5    -0.191480525267E+03    0.24232E-03   -0.14656E-03  9840   0.257E-01    0.142E-01
DAV:   6    -0.191480414986E+03    0.11028E-03   -0.68710E-04  8520   0.167E-01    0.985E-02
DAV:   7    -0.191480399925E+03    0.15061E-04   -0.42337E-04  8800   0.152E-01
  25 F= -.19148040E+03 E0= -.19138144E+03  d E =-.946584E-02
       N       E                     dE             d eps       ncg     rms          rms(c)
DAV:   1    -0.191497216196E+03   -0.16801E-01   -0.13845E+00  8160   0.245E+00    0.296E-01
DAV:   2    -0.191503553973E+03   -0.63378E-02   -0.35693E-02 13400   0.100E+00    0.715E-01
DAV:   3    -0.191497593605E+03    0.59604E-02   -0.12543E-02 12160   0.841E-01    0.201E-01
DAV:   4    -0.191497585389E+03    0.82158E-05   -0.27705E-03 11080   0.307E-01    0.228E-01
DAV:   5    -0.191497479770E+03    0.10562E-03   -0.26303E-03 10400   0.336E-01    0.242E-01
DAV:   6    -0.191496922031E+03    0.55774E-03   -0.14681E-03  9560   0.237E-01    0.690E-02
DAV:   7    -0.191496990202E+03   -0.68171E-04   -0.39455E-04  7320   0.124E-01
  26 F= -.19149699E+03 E0= -.19139884E+03  d E =-.165903E-01
       N       E                     dE             d eps       ncg     rms          rms(c)
DAV:   1    -0.191525995050E+03   -0.29073E-01   -0.24708E+00  8160   0.330E+00    0.371E-01
DAV:   2    -0.191539835203E+03   -0.13840E-01   -0.70199E-02 13480   0.134E+00    0.107E+00
DAV:   3    -0.191528425594E+03    0.11410E-01   -0.27560E-02 12280   0.116E+00    0.326E-01
DAV:   4    -0.191528774869E+03   -0.34928E-03   -0.62509E-03 11440   0.510E-01    0.383E-01
DAV:   5    -0.191527482293E+03    0.12926E-02   -0.38681E-03 11040   0.445E-01    0.192E-01
DAV:   6    -0.191527321864E+03    0.16043E-03   -0.16917E-03 10120   0.254E-01    0.175E-01
DAV:   7    -0.191527300513E+03    0.21351E-04   -0.14878E-03  9880   0.266E-01    0.156E-01
DAV:   8    -0.191527032637E+03    0.26788E-03   -0.46447E-04  8040   0.141E-01    0.219E-02
DAV:   9    -0.191527034287E+03   -0.16494E-05   -0.43114E-05  6520   0.264E-02
  27 F= -.19152703E+03 E0= -.19142915E+03  d E =-.300441E-01
       N       E                     dE             d eps       ncg     rms          rms(c)
DAV:   1    -0.191520878621E+03    0.61540E-02   -0.10092E-01  8160   0.673E-01    0.766E-02
DAV:   2    -0.191521449532E+03   -0.57091E-03   -0.31906E-03 13560   0.265E-01    0.220E-01
DAV:   3    -0.191520982096E+03    0.46744E-03   -0.11895E-03  9080   0.235E-01    0.702E-02
DAV:   4    -0.191520979395E+03    0.27015E-05   -0.19642E-04  5680   0.936E-02
  28 F= -.19152098E+03 E0= -.19142297E+03  d E =0.605489E-02
       N       E                     dE             d eps       ncg     rms          rms(c)
DAV:   1    -0.191466935336E+03    0.54047E-01   -0.76113E+00  8160   0.582E+00    0.595E-01
DAV:   2    -0.191494292584E+03   -0.27357E-01   -0.19155E-01 13520   0.173E+00    0.136E+00
DAV:   3    -0.191478147719E+03    0.16145E-01   -0.60431E-02 12480   0.168E+00    0.695E-01
DAV:   4    -0.191474889256E+03    0.32585E-02   -0.14395E-02 12160   0.718E-01    0.412E-01
DAV:   5    -0.191473934784E+03    0.95447E-03   -0.74177E-03 11400   0.614E-01    0.378E-01
DAV:   6    -0.191472901972E+03    0.10328E-02   -0.46988E-03 11360   0.466E-01    0.240E-01
DAV:   7    -0.191473411275E+03   -0.50930E-03   -0.39308E-03 11480   0.425E-01    0.316E-01
DAV:   8    -0.191472387738E+03    0.10235E-02   -0.18325E-03  9560   0.300E-01    0.517E-02
DAV:   9    -0.191472359589E+03    0.28149E-04   -0.11875E-04  6280   0.508E-02
  29 F= -.19147236E+03 E0= -.19137425E+03  d E =0.486198E-01
       N       E                     dE             d eps       ncg     rms          rms(c)
DAV:   1    -0.191491214232E+03   -0.18826E-01   -0.14609E+00  8160   0.256E+00    0.297E-01
DAV:   2    -0.191493864236E+03   -0.26500E-02   -0.40316E-02 12120   0.620E-01    0.372E-01
DAV:   3    -0.191494290604E+03   -0.42637E-03   -0.11499E-02 12720   0.713E-01    0.497E-01
DAV:   4    -0.191492057694E+03    0.22329E-02   -0.47563E-03 11040   0.470E-01    0.163E-01
DAV:   5    -0.191492025223E+03    0.32471E-04   -0.15775E-03  9720   0.269E-01    0.191E-01
DAV:   6    -0.191491867299E+03    0.15792E-03   -0.15728E-03 10200   0.285E-01    0.150E-01
DAV:   7    -0.191491763698E+03    0.10360E-03   -0.88674E-04  8800   0.193E-01    0.123E-01
DAV:   8    -0.191491638881E+03    0.12482E-03   -0.37379E-04  7960   0.136E-01    0.402E-02
DAV:   9    -0.191491627207E+03    0.11674E-04   -0.43967E-05  5760   0.389E-02
  30 F= -.19149163E+03 E0= -.19139430E+03  d E =-.192676E-01
       N       E                     dE             d eps       ncg     rms          rms(c)
DAV:   1    -0.191505460633E+03   -0.13822E-01   -0.52793E-01  8160   0.154E+00    0.197E-01
DAV:   2    -0.191508393372E+03   -0.29327E-02   -0.17020E-02 13600   0.664E-01    0.508E-01
DAV:   3    -0.191505773203E+03    0.26202E-02   -0.63827E-03 11280   0.570E-01    0.169E-01
DAV:   4    -0.191505930735E+03   -0.15753E-03   -0.19108E-03  9600   0.285E-01    0.221E-01
DAV:   5    -0.191505494359E+03    0.43638E-03   -0.12717E-03  9520   0.254E-01    0.105E-01
DAV:   6    -0.191505436791E+03    0.57568E-04   -0.47860E-04  8560   0.135E-01
  31 F= -.19150544E+03 E0= -.19140799E+03  d E =-.138096E-01
       N       E                     dE             d eps       ncg     rms          rms(c)
DAV:   1    -0.191551129879E+03   -0.45636E-01   -0.54115E+00  8160   0.490E+00    0.577E-01
DAV:   2    -0.191580437133E+03   -0.29307E-01   -0.15692E-01 13560   0.205E+00    0.159E+00
DAV:   3    -0.191555629058E+03    0.24808E-01   -0.61767E-02 12120   0.174E+00    0.499E-01
DAV:   4    -0.191557404307E+03   -0.17752E-02   -0.17390E-02 11640   0.868E-01    0.692E-01
DAV:   5    -0.191552984172E+03    0.44201E-02   -0.10956E-02 11880   0.736E-01    0.267E-01
DAV:   6    -0.191552833858E+03    0.15031E-03   -0.39195E-03 11200   0.379E-01    0.279E-01
DAV:   7    -0.191552561942E+03    0.27192E-03   -0.33481E-03 11400   0.406E-01    0.216E-01
DAV:   8    -0.191552047947E+03    0.51399E-03   -0.98971E-04  9280   0.202E-01    0.397E-02
DAV:   9    -0.191552024575E+03    0.23372E-04   -0.90535E-05  6520   0.396E-02
  32 F= -.19155202E+03 E0= -.19145518E+03  d E =-.465878E-01
       N       E                     dE             d eps       ncg     rms          rms(c)
DAV:   1    -0.191562937479E+03   -0.10890E-01   -0.33825E-01  8160   0.121E+00    0.123E-01
DAV:   2    -0.191564236220E+03   -0.12987E-02   -0.81112E-03 12440   0.367E-01    0.308E-01
DAV:   3    -0.191563375024E+03    0.86120E-03   -0.29747E-03 11320   0.363E-01    0.147E-01
DAV:   4    -0.191563288119E+03    0.86905E-04   -0.76559E-04  8280   0.169E-01
  33 F= -.19156329E+03 E0= -.19146693E+03  d E =-.112635E-01
       N       E                     dE             d eps       ncg     rms          rms(c)
DAV:   1    -0.191561407370E+03    0.19677E-02   -0.64943E-01  8160   0.169E+00    0.236E-01
DAV:   2    -0.191569806136E+03   -0.83988E-02   -0.29004E-02 12320   0.104E+00    0.829E-01
DAV:   3    -0.191561902813E+03    0.79033E-02   -0.11710E-02 10840   0.834E-01    0.162E-01
DAV:   4    -0.191561981803E+03   -0.78990E-04   -0.15493E-03  9640   0.270E-01    0.178E-01
DAV:   5    -0.191561707214E+03    0.27459E-03   -0.92608E-04  9960   0.218E-01    0.916E-02
DAV:   6    -0.191561675206E+03    0.32008E-04   -0.38341E-04  8000   0.118E-01
  34 F= -.19156168E+03 E0= -.19146503E+03  d E =0.161291E-02
       N       E                     dE             d eps       ncg     rms          rms(c)
DAV:   1    -0.191603471634E+03   -0.41764E-01   -0.48262E+00  8160   0.459E+00    0.480E-01
DAV:   2    -0.191623817734E+03   -0.20346E-01   -0.11837E-01 12760   0.162E+00    0.123E+00
DAV:   3    -0.191609063555E+03    0.14754E-01   -0.45154E-02 12120   0.146E+00    0.516E-01
DAV:   4    -0.191608395529E+03    0.66803E-03   -0.12349E-02 11560   0.698E-01    0.470E-01
DAV:   5    -0.191606658675E+03    0.17369E-02   -0.61693E-03 11200   0.571E-01    0.251E-01
DAV:   6    -0.191605936216E+03    0.72246E-03   -0.20393E-03 11400   0.270E-01    0.112E-01
DAV:   7    -0.191606429690E+03   -0.49347E-03   -0.17622E-03 10920   0.292E-01    0.245E-01
DAV:   8    -0.191605835009E+03    0.59468E-03   -0.10873E-03  9520   0.242E-01    0.474E-02
DAV:   9    -0.191605814156E+03    0.20853E-04   -0.76200E-05  6080   0.457E-02
  35 F= -.19160581E+03 E0= -.19151034E+03  d E =-.441390E-01
       N       E                     dE             d eps       ncg     rms          rms(c)
DAV:   1    -0.191570305259E+03    0.35530E-01   -0.26875E+00  8160   0.343E+00    0.356E-01
DAV:   2    -0.191580688477E+03   -0.10383E-01   -0.66077E-02 12520   0.121E+00    0.826E-01
DAV:   3    -0.191573006630E+03    0.76818E-02   -0.19075E-02 12200   0.999E-01    0.320E-01
DAV:   4    -0.191573412455E+03   -0.40582E-03   -0.66551E-03 11120   0.503E-01    0.397E-01
DAV:   5    -0.191572165535E+03    0.12469E-02   -0.41155E-03 10920   0.444E-01    0.187E-01
DAV:   6    -0.191571781577E+03    0.38396E-03   -0.11112E-03 10280   0.198E-01    0.686E-02
DAV:   7    -0.191571898997E+03   -0.11742E-03   -0.58095E-04 10520   0.147E-01    0.124E-01
DAV:   8    -0.191571746085E+03    0.15291E-03   -0.37205E-04  7720   0.143E-01    0.429E-02
DAV:   9    -0.191571731956E+03    0.14129E-04   -0.46470E-05  5720   0.424E-02
  36 F= -.19157173E+03 E0= -.19147548E+03  d E =0.340822E-01
       N       E                     dE             d eps       ncg     rms          rms(c)
DAV:   1    -0.191526042526E+03    0.45704E-01   -0.71544E+00  8160   0.559E+00    0.569E-01
DAV:   2    -0.191550578005E+03   -0.24535E-01   -0.16646E-01 12360   0.156E+00    0.123E+00
DAV:   3    -0.191535675600E+03    0.14902E-01   -0.52374E-02 12400   0.160E+00    0.684E-01
DAV:   4    -0.191533089653E+03    0.25859E-02   -0.16211E-02 12080   0.785E-01    0.479E-01
DAV:   5    -0.191531754253E+03    0.13354E-02   -0.84312E-03 12000   0.643E-01    0.356E-01
DAV:   6    -0.191530811977E+03    0.94228E-03   -0.42958E-03 11480   0.429E-01    0.239E-01
DAV:   7    -0.191531134309E+03   -0.32233E-03   -0.36989E-03 10960   0.411E-01    0.289E-01
DAV:   8    -0.191530307541E+03    0.82677E-03   -0.17296E-03  9640   0.279E-01    0.554E-02
DAV:   9    -0.191530264505E+03    0.43036E-04   -0.12260E-04  6160   0.504E-02
  37 F= -.19153026E+03 E0= -.19143199E+03  d E =0.414675E-01
       N       E                     dE             d eps       ncg     rms          rms(c)
DAV:   1    -0.191562396192E+03   -0.32089E-01   -0.27961E+00  8160   0.352E+00    0.345E-01
DAV:   2    -0.191570705032E+03   -0.83088E-02   -0.70337E-02 12320   0.945E-01    0.705E-01
DAV:   3    -0.191567303558E+03    0.34015E-02   -0.20640E-02 12240   0.942E-01    0.453E-01
DAV:   4    -0.191565728821E+03    0.15747E-02   -0.52201E-03 11000   0.431E-01    0.228E-01
DAV:   5    -0.191565568105E+03    0.16072E-03   -0.27331E-03 10760   0.353E-01    0.247E-01
DAV:   6    -0.191565240917E+03    0.32719E-03   -0.21312E-03  9800   0.306E-01    0.159E-01
DAV:   7    -0.191565264358E+03   -0.23441E-04   -0.12168E-03 10120   0.244E-01    0.156E-01
DAV:   8    -0.191565000787E+03    0.26357E-03   -0.52992E-04  8240   0.177E-01    0.351E-02
DAV:   9    -0.191564989684E+03    0.11103E-04   -0.48959E-05  6200   0.363E-02
  38 F= -.19156499E+03 E0= -.19146795E+03  d E =-.347252E-01
       N       E                     dE             d eps       ncg     rms          rms(c)
DAV:   1    -0.191568640041E+03   -0.36393E-02   -0.37202E-02  8160   0.407E-01    0.484E-02
DAV:   2    -0.191568832411E+03   -0.19237E-03   -0.11255E-03 13560   0.170E-01    0.121E-01
DAV:   3    -0.191568662816E+03    0.16960E-03   -0.35606E-04  8360   0.139E-01    0.373E-02
DAV:   4    -0.191568683320E+03   -0.20504E-04   -0.11678E-04  5440   0.692E-02
  39 F= -.19156868E+03 E0= -.19147176E+03  d E =-.369364E-02
       N       E                     dE             d eps       ncg     rms          rms(c)
DAV:   1    -0.191600174360E+03   -0.31512E-01   -0.20801E+00  8160   0.309E+00    0.402E-01
DAV:   2    -0.191611234349E+03   -0.11060E-01   -0.70680E-02 13600   0.129E+00    0.104E+00
DAV:   3    -0.191601624973E+03    0.96094E-02   -0.29022E-02 11920   0.114E+00    0.379E-01
DAV:   4    -0.191601980515E+03   -0.35554E-03   -0.85458E-03 11400   0.612E-01    0.455E-01
DAV:   5    -0.191600073957E+03    0.19066E-02   -0.55236E-03 11200   0.533E-01    0.219E-01
DAV:   6    -0.191600051372E+03    0.22585E-04   -0.25578E-03 11200   0.318E-01    0.236E-01
DAV:   7    -0.191599629110E+03    0.42226E-03   -0.17219E-03  9560   0.294E-01    0.117E-01
DAV:   8    -0.191599471979E+03    0.15713E-03   -0.35305E-04  7520   0.115E-01    0.273E-02
DAV:   9    -0.191599457139E+03    0.14839E-04   -0.50584E-05  7440   0.301E-02
  40 F= -.19159946E+03 E0= -.19150302E+03  d E =-.307738E-01
       N       E                     dE             d eps       ncg     rms          rms(c)
DAV:   1    -0.191629029190E+03   -0.29557E-01   -0.18663E+00  8160   0.287E+00    0.260E-01
DAV:   2    -0.191632445936E+03   -0.34167E-02   -0.40133E-02 12240   0.599E-01    0.348E-01
DAV:   3    -0.191632279823E+03    0.16611E-03   -0.87047E-03 12640   0.615E-01    0.383E-01
DAV:   4    -0.191631107486E+03    0.11723E-02   -0.34038E-03 11360   0.394E-01    0.181E-01
DAV:   5    -0.191630982304E+03    0.12518E-03   -0.15034E-03  9720   0.277E-01    0.175E-01
DAV:   6    -0.191630828615E+03    0.15369E-03   -0.11533E-03 10120   0.234E-01    0.118E-01
DAV:   7    -0.191630877894E+03   -0.49280E-04   -0.77065E-04  8520   0.192E-01
  41 F= -.19163088E+03 E0= -.19153587E+03  d E =-.314208E-01
       N       E                     dE             d eps       ncg     rms          rms(c)
DAV:   1    -0.191653598412E+03   -0.22770E-01   -0.10460E+00  8160   0.216E+00    0.199E-01
DAV:   2    -0.191655948411E+03   -0.23500E-02   -0.23220E-02 12240   0.507E-01    0.346E-01
DAV:   3    -0.191655347983E+03    0.60043E-03   -0.58256E-03 12280   0.506E-01    0.270E-01
DAV:   4    -0.191654821020E+03    0.52696E-03   -0.17856E-03  9680   0.265E-01    0.135E-01
DAV:   5    -0.191654748567E+03    0.72452E-04   -0.88070E-04  9160   0.204E-01
  42 F= -.19165475E+03 E0= -.19156032E+03  d E =-.238707E-01
       N       E                     dE             d eps       ncg     rms          rms(c)
DAV:   1    -0.191651489048E+03    0.33320E-02   -0.96342E-02  8160   0.693E-01    0.103E-01
DAV:   2    -0.191652879896E+03   -0.13908E-02   -0.48980E-03 12760   0.388E-01    0.375E-01
DAV:   3    -0.191651524238E+03    0.13557E-02   -0.29403E-03 10280   0.367E-01    0.931E-02
DAV:   4    -0.191651486368E+03    0.37869E-04   -0.34022E-04  7640   0.998E-02
  43 F= -.19165149E+03 E0= -.19155746E+03  d E =0.326220E-02
       N       E                     dE             d eps       ncg     rms          rms(c)
DAV:   1    -0.191675686510E+03   -0.24162E-01   -0.43684E+00  8160   0.440E+00    0.523E-01
DAV:   2    -0.191686388195E+03   -0.10702E-01   -0.11629E-01 12280   0.122E+00    0.899E-01
DAV:   3    -0.191682215388E+03    0.41728E-02   -0.41816E-02 11280   0.140E+00    0.726E-01
DAV:   4    -0.191677937765E+03    0.42776E-02   -0.13247E-02 12200   0.745E-01    0.367E-01
DAV:   5    -0.191677303442E+03    0.63432E-03   -0.62595E-03 10560   0.583E-01    0.345E-01
DAV:   6    -0.191676488593E+03    0.81485E-03   -0.44798E-03 11720   0.443E-01    0.235E-01
DAV:   7    -0.191676375437E+03    0.11316E-03   -0.25468E-03 10160   0.350E-01    0.199E-01
DAV:   8    -0.191675978944E+03    0.39649E-03   -0.83430E-04  9760   0.207E-01    0.455E-02
DAV:   9    -0.191675954247E+03    0.24697E-04   -0.83752E-05  6600   0.442E-02
  44 F= -.19167595E+03 E0= -.19158334E+03  d E =-.244679E-01
       N       E                     dE             d eps       ncg     rms          rms(c)
DAV:   1    -0.191691917841E+03   -0.15939E-01   -0.58696E+00  8160   0.520E+00    0.723E-01
DAV:   2    -0.191717519062E+03   -0.25601E-01   -0.19032E-01 13600   0.192E+00    0.155E+00
DAV:   3    -0.191696604816E+03    0.20914E-01   -0.78921E-02 11760   0.201E+00    0.830E-01
DAV:   4    -0.191692263185E+03    0.43416E-02   -0.22558E-02 11840   0.928E-01    0.613E-01
DAV:   5    -0.191690045413E+03    0.22178E-02   -0.15549E-02 12200   0.880E-01    0.474E-01
DAV:   6    -0.191688606606E+03    0.14388E-02   -0.82110E-03 11680   0.597E-01    0.340E-01
DAV:   7    -0.191687753704E+03    0.85290E-03   -0.39076E-03 10720   0.456E-01    0.184E-01
DAV:   8    -0.191687358816E+03    0.39489E-03   -0.98116E-04  9880   0.203E-01    0.500E-02
DAV:   9    -0.191687312077E+03    0.46739E-04   -0.11173E-04  6880   0.470E-02
  45 F= -.19168731E+03 E0= -.19159414E+03  d E =-.113578E-01
       N       E                     dE             d eps       ncg     rms          rms(c)
DAV:   1    -0.191738872406E+03   -0.51514E-01   -0.50270E+00  8160   0.478E+00    0.482E-01
DAV:   2    -0.191750710778E+03   -0.11838E-01   -0.12561E-01 11720   0.126E+00    0.836E-01
DAV:   3    -0.191747050493E+03    0.36603E-02   -0.30036E-02 12320   0.121E+00    0.585E-01
DAV:   4    -0.191743696790E+03    0.33537E-02   -0.77083E-03 11680   0.579E-01    0.275E-01
DAV:   5    -0.191744055304E+03   -0.35851E-03   -0.50788E-03 11160   0.520E-01    0.368E-01
DAV:   6    -0.191743320315E+03    0.73499E-03   -0.40971E-03 11200   0.428E-01    0.231E-01
DAV:   7    -0.191742961702E+03    0.35861E-03   -0.18416E-03  9720   0.318E-01    0.142E-01
DAV:   8    -0.191742699436E+03    0.26227E-03   -0.45670E-04  8800   0.150E-01    0.254E-02
DAV:   9    -0.191742697710E+03    0.17257E-05   -0.64830E-05  6880   0.319E-02
  46 F= -.19174270E+03 E0= -.19165168E+03  d E =-.553856E-01
       N       E                     dE             d eps       ncg     rms          rms(c)
DAV:   1    -0.191794109187E+03   -0.51410E-01   -0.48094E+00  8160   0.466E+00    0.442E-01
DAV:   2    -0.191802858217E+03   -0.87490E-02   -0.11824E-01 12080   0.110E+00    0.533E-01
DAV:   3    -0.191803709262E+03   -0.85105E-03   -0.20334E-02 12000   0.100E+00    0.615E-01
DAV:   4    -0.191800160467E+03    0.35488E-02   -0.86008E-03 11360   0.677E-01    0.313E-01
DAV:   5    -0.191799794950E+03    0.36552E-03   -0.43153E-03 11200   0.494E-01    0.283E-01
DAV:   6    -0.191799427322E+03    0.36763E-03   -0.29172E-03 11600   0.366E-01    0.194E-01
DAV:   7    -0.191799259648E+03    0.16767E-03   -0.15257E-03  9840   0.290E-01    0.171E-01
DAV:   8    -0.191798934078E+03    0.32557E-03   -0.59455E-04  8400   0.174E-01    0.307E-02
DAV:   9    -0.191798931025E+03    0.30526E-05   -0.66307E-05  6480   0.349E-02
  47 F= -.19179893E+03 E0= -.19171046E+03  d E =-.562333E-01
       N       E                     dE             d eps       ncg     rms          rms(c)
DAV:   1    -0.191865850727E+03   -0.66917E-01   -0.10228E+01  8160   0.678E+00    0.627E-01
DAV:   2    -0.191883310267E+03   -0.17460E-01   -0.25478E-01 11760   0.139E+00    0.536E-01
DAV:   3    -0.191891590811E+03   -0.82805E-02   -0.36573E-02 12280   0.138E+00    0.108E+00
DAV:   4    -0.191879352130E+03    0.12239E-01   -0.17526E-02 12160   0.105E+00    0.248E-01
DAV:   5    -0.191879537600E+03   -0.18547E-03   -0.52517E-03 12040   0.398E-01    0.293E-01
DAV:   6    -0.191879990646E+03   -0.45305E-03   -0.54696E-03 12160   0.555E-01    0.376E-01
DAV:   7    -0.191878476388E+03    0.15143E-02   -0.22633E-03 11000   0.360E-01    0.815E-02
DAV:   8    -0.191878457822E+03    0.18566E-04   -0.32242E-04  8160   0.129E-01
  48 F= -.19187846E+03 E0= -.19179445E+03  d E =-.795268E-01
       N       E                     dE             d eps       ncg     rms          rms(c)
DAV:   1    -0.191932303482E+03   -0.53827E-01   -0.79327E+00  8160   0.602E+00    0.616E-01
DAV:   2    -0.191948466917E+03   -0.16163E-01   -0.24131E-01 11840   0.130E+00    0.506E-01
DAV:   3    -0.191955695090E+03   -0.72282E-02   -0.32338E-02 11800   0.134E+00    0.103E+00
DAV:   4    -0.191944622108E+03    0.11073E-01   -0.16783E-02 12000   0.103E+00    0.253E-01
DAV:   5    -0.191945149847E+03   -0.52774E-03   -0.49742E-03 11720   0.524E-01    0.336E-01
DAV:   6    -0.191944310652E+03    0.83920E-03   -0.40085E-03 11720   0.502E-01    0.197E-01
DAV:   7    -0.191943709622E+03    0.60103E-03   -0.12587E-03 11120   0.210E-01    0.544E-02
DAV:   8    -0.191943726247E+03   -0.16625E-04   -0.21221E-04  7680   0.976E-02
  49 F= -.19194373E+03 E0= -.19186250E+03  d E =-.652684E-01
       N       E                     dE             d eps       ncg     rms          rms(c)
DAV:   1    -0.191993595499E+03   -0.49886E-01   -0.21967E+01  8160   0.998E+00    0.101E+00
DAV:   2    -0.192046988944E+03   -0.53393E-01   -0.66597E-01 12080   0.235E+00    0.109E+00
DAV:   3    -0.192049194679E+03   -0.22057E-02   -0.89037E-02 11440   0.232E+00    0.132E+00
DAV:   4    -0.192031618735E+03    0.17576E-01   -0.35061E-02 11520   0.149E+00    0.600E-01
DAV:   5    -0.192030078514E+03    0.15402E-02   -0.13494E-02 12360   0.100E+00    0.525E-01
DAV:   6    -0.192028537473E+03    0.15410E-02   -0.99163E-03 12680   0.668E-01    0.287E-01
DAV:   7    -0.192026875557E+03    0.16619E-02   -0.37118E-03 10440   0.273E-01    0.797E-02
DAV:   8    -0.192026982948E+03   -0.10739E-03   -0.60719E-04 10960   0.162E-01    0.123E-01
DAV:   9    -0.192026856847E+03    0.12610E-03   -0.30094E-04  8480   0.144E-01    0.516E-02
DAV:  10    -0.192026814903E+03    0.41944E-04   -0.91329E-05  6280   0.536E-02
  50 F= -.19202681E+03 E0= -.19194917E+03  d E =-.830887E-01
       N       E                     dE             d eps       ncg     rms          rms(c)
DAV:   1    -0.192048063562E+03   -0.21207E-01   -0.37341E+00  8160   0.411E+00    0.468E-01
DAV:   2    -0.192060309596E+03   -0.12246E-01   -0.14310E-01 12120   0.114E+00    0.588E-01
DAV:   3    -0.192059869595E+03    0.44000E-03   -0.22206E-02 11280   0.115E+00    0.630E-01
DAV:   4    -0.192055981377E+03    0.38882E-02   -0.70616E-03 12360   0.681E-01    0.271E-01
DAV:   5    -0.192055538678E+03    0.44270E-03   -0.28508E-03 11320   0.450E-01    0.223E-01
DAV:   6    -0.192055302904E+03    0.23577E-03   -0.20358E-03 12000   0.306E-01    0.142E-01
DAV:   7    -0.192055143722E+03    0.15918E-03   -0.10203E-03 10640   0.207E-01    0.131E-01
DAV:   8    -0.192054980298E+03    0.16342E-03   -0.31705E-04  8960   0.148E-01    0.406E-02
DAV:   9    -0.192054967544E+03    0.12755E-04   -0.50540E-05  6520   0.415E-02
  51 F= -.19205497E+03 E0= -.19197761E+03  d E =-.281526E-01
       N       E                     dE             d eps       ncg     rms          rms(c)
DAV:   1    -0.192070777945E+03   -0.15798E-01   -0.53129E+00  8160   0.489E+00    0.537E-01
DAV:   2    -0.192090015014E+03   -0.19237E-01   -0.18897E-01 11920   0.153E+00    0.831E-01
DAV:   3    -0.192084252008E+03    0.57630E-02   -0.31153E-02 11560   0.138E+00    0.572E-01
DAV:   4    -0.192081632467E+03    0.26195E-02   -0.76557E-03 12400   0.703E-01    0.358E-01
DAV:   5    -0.192080586847E+03    0.10456E-02   -0.38482E-03 11800   0.540E-01    0.240E-01
DAV:   6    -0.192080302432E+03    0.28442E-03   -0.24243E-03 12600   0.316E-01    0.141E-01
DAV:   7    -0.192080050518E+03    0.25191E-03   -0.10919E-03 10560   0.173E-01    0.101E-01
DAV:   8    -0.192079960961E+03    0.89557E-04   -0.24528E-04  8920   0.124E-01
  52 F= -.19207996E+03 E0= -.19200286E+03  d E =-.249934E-01
       N       E                     dE             d eps       ncg     rms          rms(c)
DAV:   1    -0.192088334155E+03   -0.82836E-02   -0.88569E-01  8160   0.201E+00    0.243E-01
DAV:   2    -0.192091316600E+03   -0.29824E-02   -0.33338E-02 12640   0.626E-01    0.364E-01
DAV:   3    -0.192090749876E+03    0.56672E-03   -0.62312E-03 12200   0.644E-01    0.319E-01
DAV:   4    -0.192089652452E+03    0.10974E-02   -0.16285E-03 12360   0.330E-01    0.996E-02
DAV:   5    -0.192089601337E+03    0.51115E-04   -0.58769E-04 10120   0.171E-01
  53 F= -.19208960E+03 E0= -.19201211E+03  d E =-.964038E-02
       N       E                     dE             d eps       ncg     rms          rms(c)
DAV:   1    -0.192093688603E+03   -0.40362E-02   -0.19719E-01  8160   0.959E-01    0.164E-01
DAV:   2    -0.192096810756E+03   -0.31222E-02   -0.11286E-02 12200   0.676E-01    0.493E-01
DAV:   3    -0.192093819270E+03    0.29915E-02   -0.42274E-03 11560   0.559E-01    0.107E-01
DAV:   4    -0.192093967142E+03   -0.14787E-03   -0.65197E-04  9240   0.214E-01    0.147E-01
DAV:   5    -0.192093729301E+03    0.23784E-03   -0.37098E-04  9520   0.162E-01    0.420E-02
DAV:   6    -0.192093774931E+03   -0.45630E-04   -0.12422E-04  6480   0.902E-02
  54 F= -.19209377E+03 E0= -.19201622E+03  d E =-.417359E-02
       N       E                     dE             d eps       ncg     rms          rms(c)
DAV:   1    -0.192099316171E+03   -0.55869E-02   -0.49092E-01  8160   0.150E+00    0.167E-01
DAV:   2    -0.192100797598E+03   -0.14814E-02   -0.16194E-02 11760   0.439E-01    0.235E-01
DAV:   3    -0.192100458186E+03    0.33941E-03   -0.29653E-03 11520   0.423E-01    0.194E-01
DAV:   4    -0.192100120357E+03    0.33783E-03   -0.80031E-04 10960   0.227E-01    0.104E-01
DAV:   5    -0.192100057312E+03    0.63045E-04   -0.37586E-04  9040   0.168E-01
  55 F= -.19210006E+03 E0= -.19202216E+03  d E =-.628238E-02
       N       E                     dE             d eps       ncg     rms          rms(c)
DAV:   1    -0.192107224439E+03   -0.71041E-02   -0.10925E+00  8160   0.223E+00    0.253E-01
DAV:   2    -0.192111039594E+03   -0.38152E-02   -0.35607E-02 11800   0.725E-01    0.417E-01
DAV:   3    -0.192109480448E+03    0.15591E-02   -0.64759E-03 12000   0.658E-01    0.253E-01
DAV:   4    -0.192109036889E+03    0.44356E-03   -0.14956E-03 11000   0.319E-01    0.173E-01
DAV:   5    -0.192108800716E+03    0.23617E-03   -0.91010E-04 10400   0.270E-01    0.115E-01
DAV:   6    -0.192108734089E+03    0.66627E-04   -0.51179E-04  9840   0.148E-01
  56 F= -.19210873E+03 E0= -.19203004E+03  d E =-.867678E-02
       N       E                     dE             d eps       ncg     rms          rms(c)
DAV:   1    -0.192112257399E+03   -0.34567E-02   -0.22438E-01  8160   0.103E+00    0.140E-01
DAV:   2    -0.192113578410E+03   -0.13210E-02   -0.95275E-03 12000   0.432E-01    0.311E-01
DAV:   3    -0.192112692018E+03    0.88639E-03   -0.23052E-03 11520   0.399E-01    0.133E-01
DAV:   4    -0.192112552587E+03    0.13943E-03   -0.40033E-04  8760   0.150E-01    0.780E-02
DAV:   5    -0.192112503862E+03    0.48724E-04   -0.22726E-04  9800   0.134E-01
  57 F= -.19211250E+03 E0= -.19203360E+03  d E =-.376977E-02
       N       E                     dE             d eps       ncg     rms          rms(c)
DAV:   1    -0.192115115522E+03   -0.25629E-02   -0.12373E-01  8160   0.753E-01    0.863E-02
DAV:   2    -0.192115441208E+03   -0.32569E-03   -0.37971E-03 11440   0.226E-01    0.118E-01
DAV:   3    -0.192115329066E+03    0.11214E-03   -0.59789E-04 10200   0.205E-01    0.776E-02
DAV:   4    -0.192115258068E+03    0.70998E-04   -0.12793E-04  6400   0.937E-02
  58 F= -.19211526E+03 E0= -.19203615E+03  d E =-.275421E-02
       N       E                     dE             d eps       ncg     rms          rms(c)
DAV:   1    -0.192120520918E+03   -0.51919E-02   -0.60033E-01  8160   0.165E+00    0.189E-01
DAV:   2    -0.192122624720E+03   -0.21038E-02   -0.19049E-02 11920   0.546E-01    0.329E-01
DAV:   3    -0.192121758560E+03    0.86616E-03   -0.35745E-03 12600   0.500E-01    0.210E-01
DAV:   4    -0.192121510449E+03    0.24811E-03   -0.10404E-03  9960   0.262E-01    0.144E-01
DAV:   5    -0.192121328471E+03    0.18198E-03   -0.60383E-04  9960   0.217E-01    0.861E-02
DAV:   6    -0.192121285660E+03    0.42811E-04   -0.29290E-04  9520   0.109E-01
  59 F= -.19212129E+03 E0= -.19204185E+03  d E =-.602759E-02
       N       E                     dE             d eps       ncg     rms          rms(c)
DAV:   1    -0.192122182455E+03   -0.85398E-03   -0.14191E-02  8160   0.268E-01    0.523E-02
DAV:   2    -0.192122245540E+03   -0.63084E-04   -0.76294E-04 10680   0.140E-01
  60 F= -.19212225E+03 E0= -.19204284E+03  d E =-.959880E-03
       N       E                     dE             d eps       ncg     rms          rms(c)
DAV:   1    -0.192125153250E+03   -0.29708E-02   -0.16193E-01  8160   0.873E-01    0.119E-01
DAV:   2    -0.192125797047E+03   -0.64380E-03   -0.57398E-03 12360   0.300E-01    0.216E-01
DAV:   3    -0.192125426361E+03    0.37069E-03   -0.12050E-03 11360   0.312E-01    0.128E-01
DAV:   4    -0.192125262977E+03    0.16338E-03   -0.30615E-04  8440   0.131E-01    0.586E-02
DAV:   5    -0.192125291545E+03   -0.28568E-04   -0.23512E-04  8680   0.126E-01
  61 F= -.19212529E+03 E0= -.19204565E+03  d E =-.304601E-02
       N       E                     dE             d eps       ncg     rms          rms(c)
DAV:   1    -0.192127119507E+03   -0.18565E-02   -0.65534E-02  8160   0.556E-01    0.651E-02
DAV:   2    -0.192127290205E+03   -0.17070E-03   -0.21087E-03 12240   0.174E-01    0.885E-02
DAV:   3    -0.192127246807E+03    0.43397E-04   -0.30127E-04  9800   0.151E-01
  62 F= -.19212725E+03 E0= -.19204727E+03  d E =-.195526E-02
       N       E                     dE             d eps       ncg     rms          rms(c)
DAV:   1    -0.192131012748E+03   -0.37225E-02   -0.26378E-01  8160   0.110E+00    0.133E-01
DAV:   2    -0.192132004604E+03   -0.99186E-03   -0.75713E-03 12440   0.382E-01    0.247E-01
DAV:   3    -0.192131353769E+03    0.65084E-03   -0.17330E-03 12440   0.356E-01    0.117E-01
DAV:   4    -0.192131367917E+03   -0.14149E-04   -0.42364E-04  8680   0.177E-01
  63 F= -.19213137E+03 E0= -.19205118E+03  d E =-.412111E-02
       N       E                     dE             d eps       ncg     rms          rms(c)
DAV:   1    -0.192130191734E+03    0.11620E-02   -0.17605E-02  8160   0.344E-01    0.690E-02
DAV:   2    -0.192131138961E+03   -0.94723E-03   -0.20446E-03 11960   0.340E-01    0.290E-01
DAV:   3    -0.192130185897E+03    0.95306E-03   -0.10877E-03 10120   0.294E-01    0.365E-02
DAV:   4    -0.192130209333E+03   -0.23436E-04   -0.63188E-05  6000   0.633E-02
  64 F= -.19213021E+03 E0= -.19205045E+03  d E =0.115858E-02
       N       E                     dE             d eps       ncg     rms          rms(c)
DAV:   1    -0.192133198679E+03   -0.30128E-02   -0.19181E-01  8160   0.935E-01    0.113E-01
DAV:   2    -0.192133732786E+03   -0.53411E-03   -0.69780E-03 11200   0.301E-01    0.145E-01
DAV:   3    -0.192133639880E+03    0.92907E-04   -0.11375E-03 11240   0.268E-01    0.135E-01
DAV:   4    -0.192133471558E+03    0.16832E-03   -0.40440E-04  8520   0.167E-01    0.648E-02
DAV:   5    -0.192133449259E+03    0.22299E-04   -0.17422E-04  7720   0.108E-01
  65 F= -.19213345E+03 E0= -.19205396E+03  d E =-.323993E-02
       N       E                     dE             d eps       ncg     rms          rms(c)
DAV:   1    -0.192133279268E+03    0.19229E-03   -0.14272E-02  9080   0.316E-01    0.710E-02
DAV:   2    -0.192133437158E+03   -0.15789E-03   -0.11121E-03 11640   0.183E-01    0.138E-01
DAV:   3    -0.192133219264E+03    0.21789E-03   -0.51143E-04  9240   0.196E-01    0.743E-02
DAV:   4    -0.192133187603E+03    0.31661E-04   -0.17805E-04  7000   0.980E-02
  66 F= -.19213319E+03 E0= -.19205325E+03  d E =0.261656E-03
       N       E                     dE             d eps       ncg     rms          rms(c)
DAV:   1    -0.192137556938E+03   -0.43377E-02   -0.49041E-01  8160   0.151E+00    0.169E-01
DAV:   2    -0.192138641126E+03   -0.10842E-02   -0.15828E-02 11720   0.376E-01    0.186E-01
DAV:   3    -0.192138839651E+03   -0.19853E-03   -0.22110E-03 12240   0.401E-01    0.241E-01
DAV:   4    -0.192138202786E+03    0.63687E-03   -0.84038E-04 10000   0.257E-01    0.684E-02
DAV:   5    -0.192138238125E+03   -0.35340E-04   -0.31482E-04  8880   0.128E-01
  67 F= -.19213824E+03 E0= -.19205865E+03  d E =-.505052E-02
       N       E                     dE             d eps       ncg     rms          rms(c)
DAV:   1    -0.192133060799E+03    0.51420E-02   -0.43272E-01  8160   0.141E+00    0.176E-01
DAV:   2    -0.192135735719E+03   -0.26749E-02   -0.16082E-02 11880   0.588E-01    0.445E-01
DAV:   3    -0.192133728745E+03    0.20070E-02   -0.43692E-03 11440   0.541E-01    0.160E-01
DAV:   4    -0.192133569552E+03    0.15919E-03   -0.86173E-04 10160   0.218E-01    0.110E-01
DAV:   5    -0.192133480764E+03    0.88788E-04   -0.41922E-04  9200   0.178E-01
  68 F= -.19213348E+03 E0= -.19205343E+03  d E =0.475736E-02
       N       E                     dE             d eps       ncg     rms          rms(c)
DAV:   1    -0.192135982510E+03   -0.24130E-02   -0.91899E-02  8160   0.702E-01    0.187E-01
DAV:   2    -0.192135612361E+03    0.37015E-03   -0.53782E-03 11400   0.356E-01    0.244E-01
DAV:   3    -0.192135345249E+03    0.26711E-03   -0.24301E-03 10680   0.433E-01    0.212E-01
DAV:   4    -0.192134916723E+03    0.42853E-03   -0.12636E-03 10160   0.293E-01    0.140E-01
DAV:   5    -0.192134837031E+03    0.79691E-04   -0.80429E-04 10080   0.240E-01
  69 F= -.19213484E+03 E0= -.19205409E+03  d E =-.135627E-02
       N       E                     dE             d eps       ncg     rms          rms(c)
DAV:   1    -0.192138555917E+03   -0.36392E-02   -0.26249E-01  8160   0.110E+00    0.119E-01
DAV:   2    -0.192139463433E+03   -0.90752E-03   -0.82272E-03 12320   0.393E-01    0.205E-01
DAV:   3    -0.192139037671E+03    0.42576E-03   -0.14819E-03 11480   0.310E-01    0.107E-01
DAV:   4    -0.192138993321E+03    0.44350E-04   -0.35155E-04  8200   0.149E-01
  70 F= -.19213899E+03 E0= -.19205830E+03  d E =-.415629E-02
       N       E                     dE             d eps       ncg     rms          rms(c)
DAV:   1    -0.192138169413E+03    0.86826E-03   -0.10795E-02  9880   0.256E-01    0.487E-02
DAV:   2    -0.192138606241E+03   -0.43683E-03   -0.91380E-04 10560   0.232E-01    0.190E-01
DAV:   3    -0.192138176969E+03    0.42927E-03   -0.49582E-04  9080   0.200E-01    0.309E-02
DAV:   4    -0.192138186280E+03   -0.93113E-05   -0.40663E-05  5600   0.502E-02
  71 F= -.19213819E+03 E0= -.19205767E+03  d E =0.807040E-03
       N       E                     dE             d eps       ncg     rms          rms(c)
DAV:   1    -0.192127511535E+03    0.10665E-01   -0.13183E+00  8160   0.245E+00    0.271E-01
DAV:   2    -0.192132131067E+03   -0.46195E-02   -0.39006E-02 12880   0.891E-01    0.502E-01
DAV:   3    -0.192129470311E+03    0.26608E-02   -0.73050E-03 12240   0.712E-01    0.220E-01
DAV:   4    -0.192129432965E+03    0.37345E-04   -0.20218E-03 10880   0.354E-01    0.236E-01
DAV:   5    -0.192128945441E+03    0.48752E-03   -0.13698E-03 10200   0.317E-01    0.134E-01
DAV:   6    -0.192128842370E+03    0.10307E-03   -0.76904E-04 10040   0.182E-01    0.875E-02
DAV:   7    -0.192128878412E+03   -0.36041E-04   -0.36047E-04  9600   0.170E-01
  72 F= -.19212888E+03 E0= -.19204798E+03  d E =0.930787E-02
       N       E                     dE             d eps       ncg     rms          rms(c)
DAV:   1    -0.192141324864E+03   -0.12482E-01   -0.37884E+00  8160   0.415E+00    0.442E-01
DAV:   2    -0.192150222836E+03   -0.88980E-02   -0.10563E-01 12200   0.125E+00    0.580E-01
DAV:   3    -0.192147620607E+03    0.26022E-02   -0.15358E-02 12400   0.101E+00    0.430E-01
DAV:   4    -0.192146396205E+03    0.12244E-02   -0.62656E-03 12120   0.602E-01    0.334E-01
DAV:   5    -0.192145796541E+03    0.59966E-03   -0.36735E-03 10880   0.518E-01    0.276E-01
DAV:   6    -0.192145160138E+03    0.63640E-03   -0.19332E-03 12520   0.338E-01    0.112E-01
DAV:   7    -0.192144987118E+03    0.17302E-03   -0.49083E-04 10400   0.112E-01    0.417E-02
DAV:   8    -0.192144986605E+03    0.51304E-06   -0.82087E-05  7520   0.801E-02
  73 F= -.19214499E+03 E0= -.19206462E+03  d E =-.161082E-01
       N       E                     dE             d eps       ncg     rms          rms(c)
DAV:   1    -0.192144720533E+03    0.26659E-03   -0.11925E-02  8280   0.244E-01    0.421E-02
DAV:   2    -0.192144782815E+03   -0.62282E-04   -0.57239E-04 10640   0.117E-01
  74 F= -.19214478E+03 E0= -.19206443E+03  d E =0.203790E-03
       N       E                     dE             d eps       ncg     rms          rms(c)
DAV:   1    -0.192149921759E+03   -0.52012E-02   -0.41446E-01  8160   0.138E+00    0.166E-01
DAV:   2    -0.192150825335E+03   -0.90358E-03   -0.11890E-02 11960   0.382E-01    0.238E-01
DAV:   3    -0.192150638788E+03    0.18655E-03   -0.23491E-03 12040   0.409E-01    0.217E-01
DAV:   4    -0.192150194270E+03    0.44452E-03   -0.96154E-04  9360   0.241E-01    0.951E-02
DAV:   5    -0.192150163272E+03    0.30998E-04   -0.51369E-04  8880   0.174E-01
  75 F= -.19215016E+03 E0= -.19206938E+03  d E =-.538046E-02
       N       E                     dE             d eps       ncg     rms          rms(c)
DAV:   1    -0.192151325978E+03   -0.11317E-02   -0.21152E-02  8160   0.336E-01    0.587E-02
DAV:   2    -0.192151744782E+03   -0.41880E-03   -0.11888E-03 12520   0.243E-01    0.189E-01
DAV:   3    -0.192151316248E+03    0.42853E-03   -0.53410E-04  8800   0.214E-01    0.362E-02
DAV:   4    -0.192151317621E+03   -0.13726E-05   -0.53387E-05  5920   0.424E-02
  76 F= -.19215132E+03 E0= -.19207079E+03  d E =-.115435E-02
       N       E                     dE             d eps       ncg     rms          rms(c)
DAV:   1    -0.192156249003E+03   -0.49328E-02   -0.34146E-01  8160   0.124E+00    0.132E-01
DAV:   2    -0.192157343426E+03   -0.10944E-02   -0.87693E-03 11720   0.415E-01    0.254E-01
DAV:   3    -0.192156768991E+03    0.57443E-03   -0.17971E-03 12240   0.354E-01    0.135E-01
DAV:   4    -0.192156709629E+03    0.59362E-04   -0.50978E-04  8320   0.185E-01
  77 F= -.19215671E+03 E0= -.19207612E+03  d E =-.539201E-02
       N       E                     dE             d eps       ncg     rms          rms(c)
DAV:   1    -0.192160756694E+03   -0.39877E-02   -0.21754E-01  8160   0.101E+00    0.127E-01
DAV:   2    -0.192161209494E+03   -0.45280E-03   -0.57204E-03 11880   0.254E-01    0.160E-01
DAV:   3    -0.192161143368E+03    0.66126E-04   -0.12282E-03 11080   0.286E-01    0.171E-01
DAV:   4    -0.192160917955E+03    0.22541E-03   -0.60202E-04  8800   0.196E-01    0.819E-02
DAV:   5    -0.192160890799E+03    0.27156E-04   -0.33185E-04  8200   0.135E-01
  78 F= -.19216089E+03 E0= -.19208049E+03  d E =-.418117E-02
       N       E                     dE             d eps       ncg     rms          rms(c)
DAV:   1    -0.192164395208E+03   -0.34773E-02   -0.14793E-01  8160   0.817E-01    0.972E-02
DAV:   2    -0.192164700548E+03   -0.30534E-03   -0.37077E-03 11840   0.251E-01    0.140E-01
DAV:   3    -0.192164550017E+03    0.15053E-03   -0.69325E-04 10920   0.230E-01    0.908E-02
DAV:   4    -0.192164506764E+03    0.43253E-04   -0.25467E-04  8760   0.131E-01
  79 F= -.19216451E+03 E0= -.19208408E+03  d E =-.361597E-02
       N       E                     dE             d eps       ncg     rms          rms(c)
DAV:   1    -0.192157676567E+03    0.68734E-02   -0.44690E-01  8160   0.141E+00    0.128E-01
DAV:   2    -0.192158805132E+03   -0.11286E-02   -0.10753E-02 11960   0.349E-01    0.208E-01
DAV:   3    -0.192158419293E+03    0.38584E-03   -0.19187E-03 12160   0.329E-01    0.134E-01
DAV:   4    -0.192158348545E+03    0.70748E-04   -0.50843E-04  8520   0.186E-01
  80 F= -.19215835E+03 E0= -.19207787E+03  d E =0.615822E-02
       N       E                     dE             d eps       ncg     rms          rms(c)
DAV:   1    -0.192145637364E+03    0.12782E-01   -0.22091E+00  8160   0.313E+00    0.332E-01
DAV:   2    -0.192148346496E+03   -0.27091E-02   -0.44263E-02 11960   0.663E-01    0.330E-01
DAV:   3    -0.192148752667E+03   -0.40617E-03   -0.75613E-03 12320   0.673E-01    0.444E-01
DAV:   4    -0.192147206086E+03    0.15466E-02   -0.42128E-03 12000   0.560E-01    0.231E-01
DAV:   5    -0.192146765838E+03    0.44025E-03   -0.21696E-03 11240   0.318E-01    0.162E-01
DAV:   6    -0.192146630899E+03    0.13494E-03   -0.11405E-03 10960   0.279E-01    0.110E-01
DAV:   7    -0.192146483621E+03    0.14728E-03   -0.30174E-04  9120   0.127E-01    0.321E-02
DAV:   8    -0.192146485569E+03   -0.19479E-05   -0.60614E-05  7320   0.635E-02
  81 F= -.19214649E+03 E0= -.19206655E+03  d E =0.118630E-01
       N       E                     dE             d eps       ncg     rms          rms(c)
DAV:   1    -0.192158013853E+03   -0.11530E-01   -0.25800E+00  8160   0.339E+00    0.347E-01
DAV:   2    -0.192163467057E+03   -0.54532E-02   -0.60260E-02 12000   0.913E-01    0.508E-01
DAV:   3    -0.192162154436E+03    0.13126E-02   -0.10349E-02 12360   0.855E-01    0.423E-01
DAV:   4    -0.192160784350E+03    0.13701E-02   -0.42755E-03 12200   0.522E-01    0.247E-01
DAV:   5    -0.192160341505E+03    0.44284E-03   -0.25611E-03 10160   0.395E-01    0.190E-01
DAV:   6    -0.192160030596E+03    0.31091E-03   -0.12239E-03 11680   0.260E-01    0.823E-02
DAV:   7    -0.192159917840E+03    0.11276E-03   -0.29739E-04  7360   0.836E-02    0.231E-02
DAV:   8    -0.192159912838E+03    0.50020E-05   -0.51877E-05  7960   0.421E-02
  82 F= -.19215991E+03 E0= -.19207958E+03  d E =-.134273E-01
       N       E                     dE             d eps       ncg     rms          rms(c)
DAV:   1    -0.192158830705E+03    0.10871E-02   -0.30245E-02  8160   0.368E-01    0.420E-02
DAV:   2    -0.192158975060E+03   -0.14435E-03   -0.78338E-04 11880   0.140E-01    0.107E-01
DAV:   3    -0.192158841031E+03    0.13403E-03   -0.23174E-04  8280   0.132E-01    0.301E-02
DAV:   4    -0.192158838007E+03    0.30243E-05   -0.32389E-05  5640   0.362E-02
  83 F= -.19215884E+03 E0= -.19207866E+03  d E =0.107483E-02
       N       E                     dE             d eps       ncg     rms          rms(c)
DAV:   1    -0.192155449299E+03    0.33917E-02   -0.10953E+00  8160   0.221E+00    0.254E-01
DAV:   2    -0.192158120056E+03   -0.26708E-02   -0.26918E-02 12520   0.747E-01    0.421E-01
DAV:   3    -0.192156184968E+03    0.19351E-02   -0.69745E-03 11720   0.647E-01    0.228E-01
DAV:   4    -0.192155846601E+03    0.33837E-03   -0.16240E-03 12120   0.326E-01    0.174E-01
DAV:   5    -0.192155711059E+03    0.13554E-03   -0.10624E-03 10240   0.292E-01    0.152E-01
DAV:   6    -0.192155448825E+03    0.26223E-03   -0.65549E-04  9080   0.202E-01    0.497E-02
DAV:   7    -0.192155430631E+03    0.18194E-04   -0.13074E-04  6680   0.601E-02
  84 F= -.19215543E+03 E0= -.19207613E+03  d E =0.340738E-02
       N       E                     dE             d eps       ncg     rms          rms(c)
DAV:   1    -0.192154428764E+03    0.10201E-02   -0.15317E-01  8160   0.828E-01    0.849E-02
DAV:   2    -0.192154671000E+03   -0.24224E-03   -0.35432E-03 11880   0.192E-01    0.100E-01
DAV:   3    -0.192154685999E+03   -0.14999E-04   -0.74293E-04 11080   0.203E-01
  85 F= -.19215469E+03 E0= -.19207560E+03  d E =0.744632E-03
       N       E                     dE             d eps       ncg     rms          rms(c)
DAV:   1    -0.192158608370E+03   -0.39374E-02   -0.30198E-01  8160   0.120E+00    0.170E-01
DAV:   2    -0.192159129030E+03   -0.52066E-03   -0.10957E-02 12080   0.373E-01    0.210E-01
DAV:   3    -0.192159115485E+03    0.13545E-04   -0.21668E-03 11200   0.392E-01    0.220E-01
DAV:   4    -0.192158634875E+03    0.48061E-03   -0.10357E-03 10080   0.269E-01    0.111E-01
DAV:   5    -0.192158608682E+03    0.26193E-04   -0.61534E-04  8720   0.202E-01
  86 F= -.19215861E+03 E0= -.19207887E+03  d E =-.392268E-02
       N       E                     dE             d eps       ncg     rms          rms(c)
DAV:   1    -0.192160196679E+03   -0.15618E-02   -0.11093E-01  8160   0.704E-01    0.783E-02
DAV:   2    -0.192160579631E+03   -0.38295E-03   -0.25892E-03 12440   0.235E-01    0.169E-01
DAV:   3    -0.192160285761E+03    0.29387E-03   -0.82788E-04  9880   0.229E-01    0.863E-02
DAV:   4    -0.192160225156E+03    0.60605E-04   -0.17349E-04  6360   0.105E-01
  87 F= -.19216023E+03 E0= -.19208062E+03  d E =-.161647E-02
       N       E                     dE             d eps       ncg     rms          rms(c)
DAV:   1    -0.192161522934E+03   -0.12372E-02   -0.46251E-02  8160   0.465E-01    0.911E-02
DAV:   2    -0.192161895361E+03   -0.37243E-03   -0.20921E-03 11400   0.327E-01    0.199E-01
DAV:   3    -0.192161388725E+03    0.50664E-03   -0.82234E-04  9960   0.257E-01    0.501E-02
DAV:   4    -0.192161395221E+03   -0.64957E-05   -0.12929E-04  5720   0.883E-02
  88 F= -.19216140E+03 E0= -.19208206E+03  d E =-.117006E-02
       N       E                     dE             d eps       ncg     rms          rms(c)
DAV:   1    -0.192166779334E+03   -0.53906E-02   -0.52303E-01  8160   0.153E+00    0.161E-01
DAV:   2    -0.192167964050E+03   -0.11847E-02   -0.12733E-02 11800   0.415E-01    0.243E-01
DAV:   3    -0.192167575640E+03    0.38841E-03   -0.26370E-03 12600   0.407E-01    0.184E-01
DAV:   4    -0.192167274782E+03    0.30086E-03   -0.71484E-04  9880   0.214E-01    0.812E-02
DAV:   5    -0.192167231962E+03    0.42821E-04   -0.28417E-04  8120   0.115E-01
  89 F= -.19216723E+03 E0= -.19208812E+03  d E =-.583674E-02
       N       E                     dE             d eps       ncg     rms          rms(c)
DAV:   1    -0.192167737966E+03   -0.46318E-03   -0.32571E-03 10840   0.200E-01    0.862E-02
DAV:   2    -0.192169381398E+03   -0.16434E-02   -0.25354E-03 10920   0.453E-01    0.393E-01
DAV:   3    -0.192167639583E+03    0.17418E-02   -0.16542E-03 10160   0.382E-01    0.315E-02
DAV:   4    -0.192167659892E+03   -0.20309E-04   -0.45128E-05  6040   0.479E-02
  90 F= -.19216766E+03 E0= -.19208831E+03  d E =-.427930E-03
       N       E                     dE             d eps       ncg     rms          rms(c)
DAV:   1    -0.192172697417E+03   -0.50578E-02   -0.41555E-01  8160   0.135E+00    0.128E-01
DAV:   2    -0.192173293547E+03   -0.59613E-03   -0.87663E-03 12000   0.268E-01    0.113E-01
DAV:   3    -0.192173477154E+03   -0.18361E-03   -0.10313E-03 11160   0.267E-01    0.177E-01
DAV:   4    -0.192173156319E+03    0.32084E-03   -0.55557E-04  8760   0.210E-01    0.629E-02
DAV:   5    -0.192173160121E+03   -0.38023E-05   -0.26196E-04  7520   0.108E-01
  91 F= -.19217316E+03 E0= -.19209392E+03  d E =-.550023E-02
       N       E                     dE             d eps       ncg     rms          rms(c)
DAV:   1    -0.192162300979E+03    0.10855E-01   -0.13971E+00  8160   0.247E+00    0.251E-01
DAV:   2    -0.192167588204E+03   -0.52872E-02   -0.32963E-02 11800   0.805E-01    0.599E-01
DAV:   3    -0.192164179463E+03    0.34087E-02   -0.83834E-03 12360   0.759E-01    0.243E-01
DAV:   4    -0.192163731631E+03    0.44783E-03   -0.16228E-03 10680   0.282E-01    0.139E-01
DAV:   5    -0.192163598680E+03    0.13295E-03   -0.80284E-04 10560   0.237E-01    0.114E-01
DAV:   6    -0.192163505639E+03    0.93041E-04   -0.49931E-04 10200   0.174E-01
  92 F= -.19216351E+03 E0= -.19208418E+03  d E =0.965448E-02
       N       E                     dE             d eps       ncg     rms          rms(c)
DAV:   1    -0.192153416198E+03    0.10182E-01   -0.15083E+00  8160   0.257E+00    0.241E-01
DAV:   2    -0.192156608747E+03   -0.31925E-02   -0.31749E-02 11880   0.645E-01    0.379E-01
DAV:   3    -0.192155975827E+03    0.63292E-03   -0.56487E-03 12480   0.618E-01    0.313E-01
DAV:   4    -0.192155074429E+03    0.90140E-03   -0.17746E-03 10480   0.315E-01    0.109E-01
DAV:   5    -0.192155007163E+03    0.67265E-04   -0.57864E-04 10640   0.159E-01
  93 F= -.19215501E+03 E0= -.19207555E+03  d E =0.849848E-02
       N       E                     dE             d eps       ncg     rms          rms(c)
DAV:   1    -0.192160186254E+03   -0.51118E-02   -0.57205E-01  8160   0.161E+00    0.209E-01
DAV:   2    -0.192164534918E+03   -0.43487E-02   -0.20460E-02 12680   0.770E-01    0.573E-01
DAV:   3    -0.192160879215E+03    0.36557E-02   -0.59323E-03 11720   0.702E-01    0.162E-01
DAV:   4    -0.192160721073E+03    0.15814E-03   -0.99155E-04 10120   0.217E-01    0.125E-01
DAV:   5    -0.192160612076E+03    0.10900E-03   -0.70006E-04 10200   0.206E-01    0.106E-01
DAV:   6    -0.192160518090E+03    0.93986E-04   -0.31101E-04  8120   0.139E-01
  94 F= -.19216052E+03 E0= -.19208076E+03  d E =-.551093E-02
       N       E                     dE             d eps       ncg     rms          rms(c)
DAV:   1    -0.192161705789E+03   -0.10937E-02   -0.22515E-02  8160   0.342E-01    0.640E-02
DAV:   2    -0.192162281810E+03   -0.57602E-03   -0.15339E-03 12440   0.281E-01    0.218E-01
DAV:   3    -0.192161705849E+03    0.57596E-03   -0.72471E-04 10040   0.243E-01    0.399E-02
DAV:   4    -0.192161721917E+03   -0.16068E-04   -0.70661E-05  5520   0.729E-02
  95 F= -.19216172E+03 E0= -.19208219E+03  d E =-.120383E-02
       N       E                     dE             d eps       ncg     rms          rms(c)
DAV:   1    -0.192164933778E+03   -0.32279E-02   -0.19220E-01  8160   0.922E-01    0.973E-02
DAV:   2    -0.192165545610E+03   -0.61183E-03   -0.45943E-03 11760   0.275E-01    0.194E-01
DAV:   3    -0.192165211287E+03    0.33432E-03   -0.89424E-04 11120   0.260E-01    0.955E-02
DAV:   4    -0.192165159442E+03    0.51845E-04   -0.20601E-04  7320   0.112E-01
  96 F= -.19216516E+03 E0= -.19208550E+03  d E =-.343752E-02
       N       E                     dE             d eps       ncg     rms          rms(c)
DAV:   1    -0.192168345817E+03   -0.31345E-02   -0.17102E-01  8160   0.886E-01    0.113E-01
DAV:   2    -0.192169190073E+03   -0.84426E-03   -0.48196E-03 12760   0.342E-01    0.258E-01
DAV:   3    -0.192168528586E+03    0.66149E-03   -0.14586E-03 11040   0.327E-01    0.104E-01
DAV:   4    -0.192168478774E+03    0.49811E-04   -0.36736E-04  8280   0.123E-01
  97 F= -.19216848E+03 E0= -.19208924E+03  d E =-.331933E-02
       N       E                     dE             d eps       ncg     rms          rms(c)
DAV:   1    -0.192165822607E+03    0.27060E-02   -0.15867E-01  8160   0.912E-01    0.151E-01
DAV:   2    -0.192166899219E+03   -0.10766E-02   -0.69328E-03 12160   0.455E-01    0.335E-01
DAV:   3    -0.192165700653E+03    0.11986E-02   -0.23382E-03 11400   0.441E-01    0.127E-01
DAV:   4    -0.192165540538E+03    0.16011E-03   -0.49175E-04  8920   0.151E-01    0.827E-02
DAV:   5    -0.192165538083E+03    0.24548E-05   -0.37689E-04  9320   0.172E-01
  98 F= -.19216554E+03 E0= -.19208576E+03  d E =0.294069E-02
       N       E                     dE             d eps       ncg     rms          rms(c)
DAV:   1    -0.192159220222E+03    0.63203E-02   -0.51904E-01  8160   0.153E+00    0.167E-01
DAV:   2    -0.192160345418E+03   -0.11252E-02   -0.13494E-02 11880   0.441E-01    0.244E-01
DAV:   3    -0.192160038242E+03    0.30718E-03   -0.27023E-03 12440   0.410E-01    0.199E-01
DAV:   4    -0.192159746354E+03    0.29189E-03   -0.98820E-04  9200   0.246E-01    0.121E-01
DAV:   5    -0.192159646117E+03    0.10024E-03   -0.47538E-04  8880   0.194E-01    0.885E-02
DAV:   6    -0.192159597691E+03    0.48426E-04   -0.29327E-04  9160   0.131E-01
  99 F= -.19215960E+03 E0= -.19207913E+03  d E =0.594039E-02
       N       E                     dE             d eps       ncg     rms          rms(c)
DAV:   1    -0.192170966464E+03   -0.11320E-01   -0.26342E+00  8160   0.343E+00    0.361E-01
DAV:   2    -0.192177313065E+03   -0.63466E-02   -0.67039E-02 11800   0.975E-01    0.575E-01
DAV:   3    -0.192175338808E+03    0.19743E-02   -0.12636E-02 12440   0.920E-01    0.430E-01
DAV:   4    -0.192173538992E+03    0.17998E-02   -0.44404E-03 11520   0.476E-01    0.188E-01
DAV:   5    -0.192173568823E+03   -0.29831E-04   -0.20750E-03 10960   0.346E-01    0.239E-01
DAV:   6    -0.192173177956E+03    0.39087E-03   -0.14454E-03 10480   0.331E-01    0.124E-01
DAV:   7    -0.192172999662E+03    0.17829E-03   -0.39427E-04  9040   0.129E-01    0.312E-02
DAV:   8    -0.192172998246E+03    0.14163E-05   -0.72280E-05  7520   0.630E-02
 100 F= -.19217300E+03 E0= -.19209349E+03  d E =-.134006E-01
