<?xml version="1.0" encoding="ISO-8859-1"?>
<modeling>
 <generator>
  <i name="program" type="string">vasp </i>
  <i name="version" type="string">5.4.1  </i>
  <i name="subversion" type="string">05Feb16 (build Jul 05 2020 17:13:04) complex                          parallel </i>
  <i name="platform" type="string">IFC91_ompi </i>
  <i name="date" type="string">2024 04 23 </i>
  <i name="time" type="string">10:03:17 </i>
 </generator>
 <incar>
  <i type="int" name="ISTART">     0</i>
  <i type="string" name="PREC">normal</i>
  <i type="string" name="ALGO"> Normal</i>
  <i type="int" name="ISPIN">     1</i>
  <i type="int" name="ICHARG">     2</i>
  <i type="int" name="IBRION">     1</i>
  <i type="int" name="NSW">   100</i>
  <i type="int" name="ISIF">     3</i>
  <i type="int" name="ISYM">     0</i>
  <i name="SYMPREC">      0.00000001</i>
  <i name="POTIM">      0.50000000</i>
  <i type="logical" name="LREAL"> F  </i>
  <i type="logical" name="LPLANE"> F  </i>
  <i type="int" name="ISMEAR">     0</i>
  <i type="logical" name="LWAVE"> F  </i>
  <i type="logical" name="LCHARG"> F  </i>
  <v type="int" name="KPOINT_BSE">    -1     0     0     0</v>
 </incar>
 <kpoints>
  <generation param="Gamma">
   <v type="int" name="divisions">       8        8        1 </v>
   <v name="usershift">      0.00000000       0.00000000       0.00000000 </v>
   <v name="genvec1">      0.12500000       0.00000000       0.00000000 </v>
   <v name="genvec2">     -0.00000000       0.12500000       0.00000000 </v>
   <v name="genvec3">      0.00000000       0.00000000       1.00000000 </v>
   <v name="shift">      0.00000000       0.00000000       0.00000000 </v>
  </generation>
  <varray name="kpointlist" >
   <v>       0.00000000       0.00000000       0.00000000 </v>
   <v>       0.12500000       0.00000000       0.00000000 </v>
   <v>       0.25000000       0.00000000       0.00000000 </v>
   <v>       0.37500000       0.00000000       0.00000000 </v>
   <v>       0.50000000       0.00000000       0.00000000 </v>
   <v>       0.00000000       0.12500000       0.00000000 </v>
   <v>       0.12500000       0.12500000       0.00000000 </v>
   <v>       0.25000000       0.12500000       0.00000000 </v>
   <v>       0.37500000       0.12500000       0.00000000 </v>
   <v>       0.50000000       0.12500000       0.00000000 </v>
   <v>      -0.37500000       0.12500000       0.00000000 </v>
   <v>      -0.25000000       0.12500000       0.00000000 </v>
   <v>      -0.12500000       0.12500000       0.00000000 </v>
   <v>       0.00000000       0.25000000       0.00000000 </v>
   <v>       0.12500000       0.25000000       0.00000000 </v>
   <v>       0.25000000       0.25000000       0.00000000 </v>
   <v>       0.37500000       0.25000000       0.00000000 </v>
   <v>       0.50000000       0.25000000       0.00000000 </v>
   <v>      -0.37500000       0.25000000       0.00000000 </v>
   <v>      -0.25000000       0.25000000       0.00000000 </v>
   <v>      -0.12500000       0.25000000       0.00000000 </v>
   <v>      -0.00000000       0.37500000       0.00000000 </v>
   <v>       0.12500000       0.37500000       0.00000000 </v>
   <v>       0.25000000       0.37500000       0.00000000 </v>
   <v>       0.37500000       0.37500000       0.00000000 </v>
   <v>       0.50000000       0.37500000       0.00000000 </v>
   <v>      -0.37500000       0.37500000       0.00000000 </v>
   <v>      -0.25000000       0.37500000       0.00000000 </v>
   <v>      -0.12500000       0.37500000       0.00000000 </v>
   <v>       0.00000000       0.50000000       0.00000000 </v>
   <v>       0.12500000       0.50000000       0.00000000 </v>
   <v>       0.25000000       0.50000000       0.00000000 </v>
   <v>       0.37500000       0.50000000       0.00000000 </v>
   <v>       0.50000000       0.50000000       0.00000000 </v>
  </varray>
  <varray name="weights" >
   <v>       0.01562500 </v>
   <v>       0.03125000 </v>
   <v>       0.03125000 </v>
   <v>       0.03125000 </v>
   <v>       0.01562500 </v>
   <v>       0.03125000 </v>
   <v>       0.03125000 </v>
   <v>       0.03125000 </v>
   <v>       0.03125000 </v>
   <v>       0.03125000 </v>
   <v>       0.03125000 </v>
   <v>       0.03125000 </v>
   <v>       0.03125000 </v>
   <v>       0.03125000 </v>
   <v>       0.03125000 </v>
   <v>       0.03125000 </v>
   <v>       0.03125000 </v>
   <v>       0.03125000 </v>
   <v>       0.03125000 </v>
   <v>       0.03125000 </v>
   <v>       0.03125000 </v>
   <v>       0.03125000 </v>
   <v>       0.03125000 </v>
   <v>       0.03125000 </v>
   <v>       0.03125000 </v>
   <v>       0.03125000 </v>
   <v>       0.03125000 </v>
   <v>       0.03125000 </v>
   <v>       0.03125000 </v>
   <v>       0.01562500 </v>
   <v>       0.03125000 </v>
   <v>       0.03125000 </v>
   <v>       0.03125000 </v>
   <v>       0.01562500 </v>
  </varray>
 </kpoints>
 <parameters>
  <separator name="general" >
   <i type="string" name="SYSTEM">unknown system</i>
   <i type="logical" name="LCOMPAT"> F  </i>
  </separator>
  <separator name="electronic" >
   <i type="string" name="PREC">normal</i>
   <i name="ENMAX">    280.00000000</i>
   <i name="ENAUG">    373.43800000</i>
   <i name="EDIFF">      0.00010000</i>
   <i type="int" name="IALGO">    38</i>
   <i type="int" name="IWAVPR">    11</i>
   <i type="int" name="NBANDS">   120</i>
   <i name="NELECT">    159.00000000</i>
   <i type="int" name="TURBO">     0</i>
   <i type="int" name="IRESTART">     0</i>
   <i type="int" name="NREBOOT">     0</i>
   <i type="int" name="NMIN">     0</i>
   <i name="EREF">      0.00000000</i>
   <separator name="electronic smearing" >
    <i type="int" name="ISMEAR">     0</i>
    <i name="SIGMA">      0.20000000</i>
    <i name="KSPACING">      0.50000000</i>
    <i type="logical" name="KGAMMA"> T  </i>
   </separator>
   <separator name="electronic projectors" >
    <i type="logical" name="LREAL"> F  </i>
    <v name="ROPT">      0.00000000      0.00000000      0.00000000      0.00000000</v>
    <i type="int" name="LMAXPAW">  -100</i>
    <i type="int" name="LMAXMIX">     2</i>
    <i type="logical" name="NLSPLINE"> F  </i>
   </separator>
   <separator name="electronic startup" >
    <i type="int" name="ISTART">     0</i>
    <i type="int" name="ICHARG">     2</i>
    <i type="int" name="INIWAV">     1</i>
   </separator>
   <separator name="electronic spin" >
    <i type="int" name="ISPIN">     1</i>
    <i type="logical" name="LNONCOLLINEAR"> F  </i>
    <v name="MAGMOM">      1.00000000      1.00000000      1.00000000      1.00000000      1.00000000      1.00000000      1.00000000      1.00000000      1.00000000      1.00000000      1.00000000      1.00000000      1.00000000      1.00000000      1.00000000      1.00000000      1.00000000      1.00000000      1.00000000      1.00000000
      1.00000000      1.00000000      1.00000000      1.00000000      1.00000000      1.00000000      1.00000000</v>
    <i name="NUPDOWN">     -1.00000000</i>
    <i type="logical" name="LSORBIT"> F  </i>
    <v name="SAXIS">      0.00000000      0.00000000      1.00000000</v>
    <i type="logical" name="LSPIRAL"> F  </i>
    <v name="QSPIRAL">      0.00000000      0.00000000      0.00000000</v>
    <i type="logical" name="LZEROZ"> F  </i>
   </separator>
   <separator name="electronic exchange-correlation" >
    <i type="logical" name="LASPH"> F  </i>
    <i type="logical" name="LMETAGGA"> F  </i>
   </separator>
   <separator name="electronic convergence" >
    <i type="int" name="NELM">    60</i>
    <i type="int" name="NELMDL">    -5</i>
    <i type="int" name="NELMIN">     2</i>
    <i name="ENINI">    280.00000000</i>
    <separator name="electronic convergence detail" >
     <i type="logical" name="LDIAG"> T  </i>
     <i type="logical" name="LSUBROT"> F  </i>
     <i name="WEIMIN">      0.00100000</i>
     <i name="EBREAK">      0.00000021</i>
     <i name="DEPER">      0.30000000</i>
     <i type="int" name="NRMM">     4</i>
     <i name="TIME">      0.40000000</i>
    </separator>
   </separator>
   <separator name="electronic mixer" >
    <i name="AMIX">      0.40000000</i>
    <i name="BMIX">      1.00000000</i>
    <i name="AMIN">      0.10000000</i>
    <i name="AMIX_MAG">      1.60000000</i>
    <i name="BMIX_MAG">      1.00000000</i>
    <separator name="electronic mixer details" >
     <i type="int" name="IMIX">     4</i>
     <i type="logical" name="MIXFIRST"> F  </i>
     <i type="int" name="MAXMIX">   -45</i>
     <i name="WC">    100.00000000</i>
     <i type="int" name="INIMIX">     1</i>
     <i type="int" name="MIXPRE">     1</i>
     <i type="int" name="MREMOVE">     5</i>
    </separator>
   </separator>
   <separator name="electronic dipolcorrection" >
    <i type="logical" name="LDIPOL"> F  </i>
    <i type="logical" name="LMONO"> F  </i>
    <i type="int" name="IDIPOL">     0</i>
    <i name="EPSILON">      1.00000000</i>
    <v name="DIPOL">   -100.00000000   -100.00000000   -100.00000000</v>
    <i name="EFIELD">      0.00000000</i>
   </separator>
  </separator>
  <separator name="grids" >
   <i type="int" name="NGX">    42</i>
   <i type="int" name="NGY">    42</i>
   <i type="int" name="NGZ">   126</i>
   <i type="int" name="NGXF">    84</i>
   <i type="int" name="NGYF">    84</i>
   <i type="int" name="NGZF">   252</i>
   <i type="logical" name="ADDGRID"> F  </i>
  </separator>
  <separator name="ionic" >
   <i type="int" name="NSW">   100</i>
   <i type="int" name="IBRION">     1</i>
   <i type="int" name="ISIF">     3</i>
   <i name="PSTRESS">      0.00000000</i>
   <i name="EDIFFG">      0.00100000</i>
   <i type="int" name="NFREE">     0</i>
   <i name="POTIM">      0.50000000</i>
   <i name="SMASS">     -3.00000000</i>
   <i name="SCALEE">      1.00000000</i>
  </separator>
  <separator name="ionic md" >
   <i name="TEBEG">      0.00010000</i>
   <i name="TEEND">      0.00010000</i>
   <i type="int" name="NBLOCK">     1</i>
   <i type="int" name="KBLOCK">   100</i>
   <i type="int" name="NPACO">   256</i>
   <i name="APACO">     16.00000000</i>
  </separator>
  <separator name="symmetry" >
   <i type="int" name="ISYM">     0</i>
   <i name="SYMPREC">      0.00000001</i>
  </separator>
  <separator name="dos" >
   <i type="logical" name="LORBIT"> F  </i>
   <v name="RWIGS">     -1.00000000     -1.00000000     -1.00000000     -1.00000000</v>
   <i type="int" name="NEDOS">   301</i>
   <i name="EMIN">     10.00000000</i>
   <i name="EMAX">    -10.00000000</i>
   <i name="EFERMI">      0.00000000</i>
  </separator>
  <separator name="writing" >
   <i type="int" name="NWRITE">     2</i>
   <i type="logical" name="LWAVE"> F  </i>
   <i type="logical" name="LCHARG"> F  </i>
   <i type="logical" name="LPARD"> F  </i>
   <i type="logical" name="LVTOT"> F  </i>
   <i type="logical" name="LVHAR"> F  </i>
   <i type="logical" name="LELF"> F  </i>
   <i type="logical" name="LOPTICS"> F  </i>
   <v name="STM">      0.00000000      0.00000000      0.00000000      0.00000000      0.00000000      0.00000000      0.00000000</v>
  </separator>
  <separator name="performance" >
   <i type="int" name="NPAR">    40</i>
   <i type="int" name="NSIM">     4</i>
   <i type="int" name="NBLK">    -1</i>
   <i type="logical" name="LPLANE"> F  </i>
   <i type="logical" name="LSCALAPACK"> T  </i>
   <i type="logical" name="LSCAAWARE"> F  </i>
   <i type="logical" name="LSCALU"> F  </i>
   <i type="logical" name="LASYNC"> F  </i>
   <i type="logical" name="LORBITALREAL"> F  </i>
  </separator>
  <separator name="miscellaneous" >
   <i type="int" name="IDIOT">     3</i>
   <i type="logical" name="LMUSIC"> F  </i>
   <v name="POMASS">     50.94100000     95.94000000    183.85000000     32.06600000</v>
   <v name="DARWINR">      0.00000000      0.00000000      0.00000000      0.00000000</v>
   <v name="DARWINV">      1.00000000      1.00000000      1.00000000      1.00000000</v>
   <i type="logical" name="LCORR"> T  </i>
  </separator>
  <i type="logical" name="GGA_COMPAT"> T  </i>
  <i type="logical" name="LBERRY"> F  </i>
  <i type="int" name="ICORELEVEL">     0</i>
  <i type="logical" name="LDAU"> F  </i>
  <i type="int" name="I_CONSTRAINED_M">     0</i>
  <separator name="electronic exchange-correlation" >
   <i type="string" name="GGA">--</i>
   <i type="int" name="VOSKOWN">     0</i>
   <i type="logical" name="LHFCALC"> F  </i>
   <i type="string" name="PRECFOCK"></i>
   <i type="logical" name="LSYMGRAD"> F  </i>
   <i type="logical" name="LHFONE"> F  </i>
   <i type="logical" name="LRHFCALC"> F  </i>
   <i type="logical" name="LTHOMAS"> F  </i>
   <i type="logical" name="LMODELHF"> F  </i>
   <i name="ENCUT4O">     -1.00000000</i>
   <i type="int" name="EXXOEP">     0</i>
   <i type="int" name="FOURORBIT">     0</i>
   <i name="AEXX">      0.00000000</i>
   <i name="HFALPHA">      0.00000000</i>
   <i name="MCALPHA">      0.00000000</i>
   <i name="ALDAX">      1.00000000</i>
   <i name="AGGAX">      1.00000000</i>
   <i name="ALDAC">      1.00000000</i>
   <i name="AGGAC">      1.00000000</i>
   <i type="int" name="NKREDX">     1</i>
   <i type="int" name="NKREDY">     1</i>
   <i type="int" name="NKREDZ">     1</i>
   <i type="logical" name="SHIFTRED"> F  </i>
   <i type="logical" name="ODDONLY"> F  </i>
   <i type="logical" name="EVENONLY"> F  </i>
   <i type="int" name="LMAXFOCK">     0</i>
   <i type="int" name="NMAXFOCKAE">     0</i>
   <i type="logical" name="LFOCKAEDFT"> F  </i>
   <i name="HFSCREEN">      0.00000000</i>
   <i name="HFSCREENC">      0.00000000</i>
   <i type="int" name="NBANDSGWLOW">     0</i>
  </separator>
  <separator name="vdW DFT" >
   <i type="logical" name="LUSE_VDW"> F  </i>
   <i name="Zab_VDW">     -0.84910000</i>
   <i name="PARAM1">      0.12340000</i>
   <i name="PARAM2">      1.00000000</i>
   <i name="PARAM3">      0.00000000</i>
  </separator>
  <separator name="model GW" >
   <i type="int" name="MODEL_GW">     0</i>
   <i name="MODEL_EPS0">     58.26239943</i>
   <i name="MODEL_ALPHA">      1.00000000</i>
  </separator>
  <separator name="linear response parameters" >
   <i type="logical" name="LEPSILON"> F  </i>
   <i type="logical" name="LRPA"> F  </i>
   <i type="logical" name="LNABLA"> F  </i>
   <i type="logical" name="LVEL"> F  </i>
   <i type="int" name="KINTER">     0</i>
   <i name="CSHIFT">      0.10000000</i>
   <i name="OMEGAMAX">     -1.00000000</i>
   <i name="DEG_THRESHOLD">      0.00200000</i>
  </separator>
  <separator name="orbital magnetization" >
   <i type="logical" name="NUCIND"> F  </i>
   <v name="MAGPOS">      0.00000000      0.00000000      0.00000000</v>
   <i type="logical" name="LNICSALL"> T  </i>
   <i type="logical" name="ORBITALMAG"> F  </i>
   <i type="logical" name="LMAGBLOCH"> F  </i>
   <i type="logical" name="LCHIMAG"> F  </i>
   <i type="logical" name="LGAUGE"> T  </i>
   <i type="int" name="MAGATOM">     0</i>
   <v name="MAGDIPOL">      0.00000000      0.00000000      0.00000000</v>
   <v name="AVECCONST">      0.00000000      0.00000000      0.00000000</v>
  </separator>
  <separator name="response functions" >
   <i type="logical" name="LADDER"> F  </i>
   <i type="logical" name="LFXC"> F  </i>
   <i type="logical" name="LHARTREE"> T  </i>
   <i type="int" name="IBSE">     0</i>
   <v type="int" name="KPOINT">    -1     0     0     0</v>
   <i type="logical" name="LTCTE"> F  </i>
   <i type="logical" name="LTETE"> F  </i>
   <i type="logical" name="LTRIPLET"> F  </i>
   <i type="logical" name="LFXCEPS"> F  </i>
   <i type="logical" name="LFXHEG"> F  </i>
   <i type="int" name="NATURALO">     0</i>
   <i type="logical" name="L2ORDER"> F  </i>
   <i type="logical" name="LUSEW"> F  </i>
   <i name="ENCUTGW">     -2.00000000</i>
   <i name="ENCUTGWSOFT">     -2.00000000</i>
   <i name="ENCUTLF">     -1.00000000</i>
   <i type="int" name="LMAXMP2">    -1</i>
   <i name="SCISSOR">      0.00000000</i>
   <i type="int" name="NOMEGA">     0</i>
   <i type="int" name="NOMEGAR">     0</i>
   <i type="int" name="NBANDSGW">    -1</i>
   <i type="int" name="NBANDSO">    -1</i>
   <i type="int" name="NBANDSV">    -1</i>
   <i type="int" name="NELM">     1</i>
   <i type="int" name="NELMHF">     1</i>
   <i type="int" name="DIM">     3</i>
   <i type="int" name="ANTIRES">     0</i>
   <i name="OMEGAMAX">    -30.00000000</i>
   <i name="OMEGAMIN">    -30.00000000</i>
   <i name="OMEGATL">   -200.00000000</i>
   <i type="int" name="OMEGAGRID">     0</i>
   <i name="CSHIFT">     -0.10000000</i>
   <i type="logical" name="SELFENERGY"> F  </i>
   <i type="logical" name="LSPECTRAL"> F  </i>
   <i type="logical" name="LSPECTRALGW"> F  </i>
   <i type="logical" name="LSINGLES"> F  </i>
   <i type="logical" name="LFERMIGW"> F  </i>
   <i type="logical" name="ODDONLYGW"> F  </i>
   <i type="logical" name="EVENONLYGW"> F  </i>
   <i type="int" name="NKREDLFX">     1</i>
   <i type="int" name="NKREDLFY">     1</i>
   <i type="int" name="NKREDLFZ">     1</i>
   <i type="int" name="MAXMEM">  1800</i>
   <i type="int" name="TELESCOPE">     0</i>
   <i type="int" name="TAUPAR">     1</i>
   <i type="int" name="OMEGAPAR">    -1</i>
   <i name="LAMBDA">      1.00000000</i>
  </separator>
  <separator name="External order field" >
   <i name="OFIELD_KAPPA">      0.00000000</i>
   <v name="OFIELD_K">      0.00000000      0.00000000      0.00000000</v>
   <i name="OFIELD_Q6_NEAR">      0.00000000</i>
   <i name="OFIELD_Q6_FAR">      0.00000000</i>
   <i name="OFIELD_A">      0.00000000</i>
  </separator>
 </parameters>
 <atominfo>
  <atoms>      27 </atoms>
  <types>       4 </types>
  <array name="atoms" >
   <dimension dim="1">ion</dimension>
   <field type="string">element</field>
   <field type="int">atomtype</field>
   <set>
    <rc><c>V </c><c>   1</c></rc>
    <rc><c>V </c><c>   1</c></rc>
    <rc><c>V </c><c>   1</c></rc>
    <rc><c>Mo</c><c>   2</c></rc>
    <rc><c>Mo</c><c>   2</c></rc>
    <rc><c>Mo</c><c>   2</c></rc>
    <rc><c>W </c><c>   3</c></rc>
    <rc><c>W </c><c>   3</c></rc>
    <rc><c>W </c><c>   3</c></rc>
    <rc><c>S </c><c>   4</c></rc>
    <rc><c>S </c><c>   4</c></rc>
    <rc><c>S </c><c>   4</c></rc>
    <rc><c>S </c><c>   4</c></rc>
    <rc><c>S </c><c>   4</c></rc>
    <rc><c>S </c><c>   4</c></rc>
    <rc><c>S </c><c>   4</c></rc>
    <rc><c>S </c><c>   4</c></rc>
    <rc><c>S </c><c>   4</c></rc>
    <rc><c>S </c><c>   4</c></rc>
    <rc><c>S </c><c>   4</c></rc>
    <rc><c>S </c><c>   4</c></rc>
    <rc><c>S </c><c>   4</c></rc>
    <rc><c>S </c><c>   4</c></rc>
    <rc><c>S </c><c>   4</c></rc>
    <rc><c>S </c><c>   4</c></rc>
    <rc><c>S </c><c>   4</c></rc>
    <rc><c>S </c><c>   4</c></rc>
   </set>
  </array>
  <array name="atomtypes" >
   <dimension dim="1">type</dimension>
   <field type="int">atomspertype</field>
   <field type="string">element</field>
   <field>mass</field>
   <field>valence</field>
   <field type="string">pseudopotential</field>
   <set>
    <rc><c>   3</c><c>V </c><c>     50.94100000</c><c>      5.00000000</c><c> PAW_PBE V 08Apr2002                    </c></rc>
    <rc><c>   3</c><c>Mo</c><c>     95.94000000</c><c>      6.00000000</c><c> PAW_PBE Mo 08Apr2002                   </c></rc>
    <rc><c>   3</c><c>W </c><c>    183.85000000</c><c>      6.00000000</c><c> PAW_PBE W 08Apr2002                    </c></rc>
    <rc><c>  18</c><c>S </c><c>     32.06600000</c><c>      6.00000000</c><c>  PAW_PBE S 17Jan2003                   </c></rc>
   </set>
  </array>
 </atominfo>
 <structure name="initialpos" >
  <crystal>
   <varray name="basis" >
    <v>       8.66999996       5.03999989       0.00000000 </v>
    <v>      -8.66999982       5.04000013       0.00000000 </v>
    <v>       0.00000000       0.00000000      30.00000000 </v>
   </varray>
   <i name="volume">   2621.80797419 </i>
   <varray name="rec_basis" >
    <v>       0.05767013       0.09920635       0.00000000 </v>
    <v>      -0.05767013       0.09920635       0.00000000 </v>
    <v>       0.00000000       0.00000000       0.03333333 </v>
   </varray>
  </crystal>
  <varray name="positions" >
   <v>       0.66666669       0.33333334       0.00000000 </v>
   <v>       0.66666669       0.66666669       0.00000000 </v>
   <v>       0.33333334       0.33333334       0.00000000 </v>
   <v>       0.33333334       0.00000000       0.00000000 </v>
   <v>       1.00000000       0.33333334       0.00000000 </v>
   <v>       0.33333334       0.66666669       0.00000000 </v>
   <v>       0.00000000       0.00000000       0.00000000 </v>
   <v>       0.00000000       0.66666669       0.00000000 </v>
   <v>       0.66666669       0.00000000       0.00000000 </v>
   <v>       0.11068511       0.22244981       0.95539999 </v>
   <v>       0.22244981       0.11068511       0.04460000 </v>
   <v>       0.11068511       0.55578315       0.95539999 </v>
   <v>       0.22244981       0.44401845       0.04460000 </v>
   <v>       0.11068511       0.88911647       0.95539999 </v>
   <v>       0.22244981       0.77735180       0.04460000 </v>
   <v>       0.44401845       0.22244981       0.95539999 </v>
   <v>       0.55578315       0.11068511       0.04460000 </v>
   <v>       0.44401845       0.55578315       0.95539999 </v>
   <v>       0.55578315       0.44401845       0.04460000 </v>
   <v>       0.44401845       0.88911647       0.95539999 </v>
   <v>       0.55578315       0.77735180       0.04460000 </v>
   <v>       0.77735180       0.22244981       0.95539999 </v>
   <v>       0.88911647       0.11068511       0.04460000 </v>
   <v>       0.77735180       0.55578315       0.95539999 </v>
   <v>       0.88911647       0.44401845       0.04460000 </v>
   <v>       0.77735180       0.88911647       0.95539999 </v>
   <v>       0.88911647       0.77735180       0.04460000 </v>
  </varray>
 </structure>
 <calculation>
  <scstep>
   <time name="dav">   21.57   21.62</time>
   <time name="total">   21.61   21.67</time>
   <energy>
    <i name="alphaZ">     81.65567618 </i>
    <i name="ewald">  41891.17178794 </i>
    <i name="hartreedc"> -47723.81647088 </i>
    <i name="XCdc">   -242.92502634 </i>
    <i name="pawpsdc">   3467.42045192 </i>
    <i name="pawaedc">  -2871.19716117 </i>
    <i name="eentropy">     -0.53078945 </i>
    <i name="bandstr">   -239.65651062 </i>
    <i name="atom">   6761.44252427 </i>
    <i name="e_fr_energy">   1123.56448185 </i>
    <i name="e_wo_entrp">   1124.09527130 </i>
    <i name="e_0_energy">   1123.82987657 </i>
   </energy>
  </scstep>
  <scstep>
   <time name="dav">   29.01   29.08</time>
   <time name="total">   29.01   29.09</time>
   <energy>
    <i name="e_fr_energy">     -4.43840172 </i>
    <i name="e_wo_entrp">     -4.22774243 </i>
    <i name="e_0_energy">     -4.33307208 </i>
   </energy>
  </scstep>
  <scstep>
   <time name="dav">   27.33   27.40</time>
   <time name="total">   27.33   27.41</time>
   <energy>
    <i name="e_fr_energy">   -200.12425310 </i>
    <i name="e_wo_entrp">   -199.85294364 </i>
    <i name="e_0_energy">   -199.98859837 </i>
   </energy>
  </scstep>
  <scstep>
   <time name="dav">   30.05   30.12</time>
   <time name="total">   30.05   30.13</time>
   <energy>
    <i name="e_fr_energy">   -208.99399962 </i>
    <i name="e_wo_entrp">   -208.70147106 </i>
    <i name="e_0_energy">   -208.84773534 </i>
   </energy>
  </scstep>
  <scstep>
   <time name="dav">   28.22   28.29</time>
   <time name="total">   28.69   28.77</time>
   <energy>
    <i name="e_fr_energy">   -209.29992954 </i>
    <i name="e_wo_entrp">   -209.01029100 </i>
    <i name="e_0_energy">   -209.15511027 </i>
   </energy>
  </scstep>
  <scstep>
   <time name="dav">   30.47   30.54</time>
   <time name="total">   30.97   31.05</time>
   <energy>
    <i name="e_fr_energy">   -237.72670295 </i>
    <i name="e_wo_entrp">   -237.46594952 </i>
    <i name="e_0_energy">   -237.59632623 </i>
   </energy>
  </scstep>
  <scstep>
   <time name="dav">   32.64   32.72</time>
   <time name="total">   33.14   33.23</time>
   <energy>
    <i name="e_fr_energy">   -196.62560642 </i>
    <i name="e_wo_entrp">   -196.30025010 </i>
    <i name="e_0_energy">   -196.46292826 </i>
   </energy>
  </scstep>
  <scstep>
   <time name="dav">   29.75   29.83</time>
   <time name="total">   30.27   30.35</time>
   <energy>
    <i name="e_fr_energy">   -189.63611843 </i>
    <i name="e_wo_entrp">   -189.32950350 </i>
    <i name="e_0_energy">   -189.48281096 </i>
   </energy>
  </scstep>
  <scstep>
   <time name="dav">   31.73   31.80</time>
   <time name="total">   32.25   32.34</time>
   <energy>
    <i name="e_fr_energy">   -188.21690472 </i>
    <i name="e_wo_entrp">   -187.88741591 </i>
    <i name="e_0_energy">   -188.05216031 </i>
   </energy>
  </scstep>
  <scstep>
   <time name="dav">   32.46   32.53</time>
   <time name="total">   32.99   33.08</time>
   <energy>
    <i name="e_fr_energy">   -186.95211258 </i>
    <i name="e_wo_entrp">   -186.59932787 </i>
    <i name="e_0_energy">   -186.77572022 </i>
   </energy>
  </scstep>
  <scstep>
   <time name="dav">   32.89   32.96</time>
   <time name="total">   33.42   33.51</time>
   <energy>
    <i name="e_fr_energy">   -187.04339535 </i>
    <i name="e_wo_entrp">   -186.70362509 </i>
    <i name="e_0_energy">   -186.87351022 </i>
   </energy>
  </scstep>
  <scstep>
   <time name="dav">   31.04   31.12</time>
   <time name="total">   31.58   31.66</time>
   <energy>
    <i name="e_fr_energy">   -186.98577689 </i>
    <i name="e_wo_entrp">   -186.64748647 </i>
    <i name="e_0_energy">   -186.81663168 </i>
   </energy>
  </scstep>
  <scstep>
   <time name="dav">   32.20   32.28</time>
   <time name="total">   32.74   32.83</time>
   <energy>
    <i name="e_fr_energy">   -186.87761988 </i>
    <i name="e_wo_entrp">   -186.54163513 </i>
    <i name="e_0_energy">   -186.70962750 </i>
   </energy>
  </scstep>
  <scstep>
   <time name="dav">   31.46   31.53</time>
   <time name="total">   31.99   32.08</time>
   <energy>
    <i name="e_fr_energy">   -186.84366408 </i>
    <i name="e_wo_entrp">   -186.49849928 </i>
    <i name="e_0_energy">   -186.67108168 </i>
   </energy>
  </scstep>
  <scstep>
   <time name="dav">   30.86   30.94</time>
   <time name="total">   31.40   31.48</time>
   <energy>
    <i name="e_fr_energy">   -186.83958941 </i>
    <i name="e_wo_entrp">   -186.49449575 </i>
    <i name="e_0_energy">   -186.66704258 </i>
   </energy>
  </scstep>
  <scstep>
   <time name="dav">   32.29   32.37</time>
   <time name="total">   32.82   32.91</time>
   <energy>
    <i name="e_fr_energy">   -186.83943972 </i>
    <i name="e_wo_entrp">   -186.49494714 </i>
    <i name="e_0_energy">   -186.66719343 </i>
   </energy>
  </scstep>
  <scstep>
   <time name="dav">   30.78   30.85</time>
   <time name="total">   31.32   31.40</time>
   <energy>
    <i name="e_fr_energy">   -186.83638781 </i>
    <i name="e_wo_entrp">   -186.49323771 </i>
    <i name="e_0_energy">   -186.66481276 </i>
   </energy>
  </scstep>
  <scstep>
   <time name="dav">   29.89   29.97</time>
   <time name="total">   30.43   30.51</time>
   <energy>
    <i name="e_fr_energy">   -186.83612574 </i>
    <i name="e_wo_entrp">   -186.49246501 </i>
    <i name="e_0_energy">   -186.66429537 </i>
   </energy>
  </scstep>
  <scstep>
   <time name="dav">   25.19   25.25</time>
   <time name="total">   25.22   25.29</time>
   <energy>
    <i name="alphaZ">     81.65567618 </i>
    <i name="ewald">  41891.17178794 </i>
    <i name="hartreedc"> -47818.64104707 </i>
    <i name="XCdc">   -231.69452594 </i>
    <i name="pawpsdc">   4194.27924730 </i>
    <i name="pawaedc">  -3612.29805451 </i>
    <i name="eentropy">     -0.34369517 </i>
    <i name="bandstr">  -1452.40805520 </i>
    <i name="atom">   6761.44252427 </i>
    <i name="e_fr_energy">   -186.83614219 </i>
    <i name="e_wo_entrp">   -186.49244702 </i>
    <i name="e_0_energy">   -186.66429461 </i>
   </energy>
  </scstep>
  <structure>
   <crystal>
    <varray name="basis" >
     <v>       8.66999996       5.03999989       0.00000000 </v>
     <v>      -8.66999982       5.04000013       0.00000000 </v>
     <v>       0.00000000       0.00000000      30.00000000 </v>
    </varray>
    <i name="volume">   2621.80797419 </i>
    <varray name="rec_basis" >
     <v>       0.05767013       0.09920635       0.00000000 </v>
     <v>      -0.05767013       0.09920635       0.00000000 </v>
     <v>       0.00000000       0.00000000       0.03333333 </v>
    </varray>
   </crystal>
   <varray name="positions" >
    <v>       0.66666669       0.33333334       0.00000000 </v>
    <v>       0.66666669       0.66666669       0.00000000 </v>
    <v>       0.33333334       0.33333334       0.00000000 </v>
    <v>       0.33333334       0.00000000       0.00000000 </v>
    <v>       1.00000000       0.33333334       0.00000000 </v>
    <v>       0.33333334       0.66666669       0.00000000 </v>
    <v>       0.00000000       0.00000000       0.00000000 </v>
    <v>       0.00000000       0.66666669       0.00000000 </v>
    <v>       0.66666669       0.00000000       0.00000000 </v>
    <v>       0.11068511       0.22244981       0.95539999 </v>
    <v>       0.22244981       0.11068511       0.04460000 </v>
    <v>       0.11068511       0.55578315       0.95539999 </v>
    <v>       0.22244981       0.44401845       0.04460000 </v>
    <v>       0.11068511       0.88911647       0.95539999 </v>
    <v>       0.22244981       0.77735180       0.04460000 </v>
    <v>       0.44401845       0.22244981       0.95539999 </v>
    <v>       0.55578315       0.11068511       0.04460000 </v>
    <v>       0.44401845       0.55578315       0.95539999 </v>
    <v>       0.55578315       0.44401845       0.04460000 </v>
    <v>       0.44401845       0.88911647       0.95539999 </v>
    <v>       0.55578315       0.77735180       0.04460000 </v>
    <v>       0.77735180       0.22244981       0.95539999 </v>
    <v>       0.88911647       0.11068511       0.04460000 </v>
    <v>       0.77735180       0.55578315       0.95539999 </v>
    <v>       0.88911647       0.44401845       0.04460000 </v>
    <v>       0.77735180       0.88911647       0.95539999 </v>
    <v>       0.88911647       0.77735180       0.04460000 </v>
   </varray>
  </structure>
  <varray name="forces" >
   <v>       0.03187222      -0.12517095      -0.00597819 </v>
   <v>      -0.13570201      -0.25375881       0.01203905 </v>
   <v>      -0.12234381       0.03056693      -0.00770828 </v>
   <v>       0.21672420      -0.11595458       0.03450567 </v>
   <v>       0.01099731       0.29400441      -0.05738540 </v>
   <v>      -0.20335404      -0.15490416       0.09123064 </v>
   <v>       0.00915171       0.35774998      -0.09611281 </v>
   <v>       0.53052710       0.19281295       0.10607817 </v>
   <v>      -0.30370473      -0.17054133      -0.10771552 </v>
   <v>       0.60724457       0.52409973      -2.18837688 </v>
   <v>      -0.60011098       0.54597789       2.16071794 </v>
   <v>      -0.02683927      -0.02775026      -2.92893239 </v>
   <v>       0.74353510       0.02373373       2.10798173 </v>
   <v>       0.01100845      -0.13990193      -2.87967187 </v>
   <v>      -0.20872561      -0.16047072       2.96686258 </v>
   <v>      -0.32502740       0.67490855      -1.38990931 </v>
   <v>      -0.38066752       0.68963627       2.18229469 </v>
   <v>       0.90935244      -0.00797343      -1.44261028 </v>
   <v>      -0.06813955       0.00039923       0.77652159 </v>
   <v>       0.23450753       0.17884923      -2.87283724 </v>
   <v>       0.65783126       0.12681672       2.09840144 </v>
   <v>      -0.63785312      -0.15499860      -2.11563211 </v>
   <v>      -0.06128999      -0.13441626       2.84259661 </v>
   <v>      -0.24735864      -0.53578209      -1.37877923 </v>
   <v>      -0.64205740      -0.53554332       2.13592294 </v>
   <v>       0.45437904      -0.54911639      -2.16704625 </v>
   <v>      -0.45395685      -0.57327278       2.12354271 </v>
  </varray>
  <varray name="stress" >
   <v>       7.53666596       0.04579081      -1.62543473 </v>
   <v>       0.04579070       4.43764874       0.01694903 </v>
   <v>      -1.62543463       0.01694921      31.14233080 </v>
  </varray>
  <energy>
   <i name="e_fr_energy">   -186.83614219 </i>
   <i name="e_wo_entrp">   -186.66429461 </i>
   <i name="e_0_energy">     -0.34369517 </i>
  </energy>
  <time name="totalsc">  618.88  620.53</time>
 </calculation>
 <calculation>
  <scstep>
   <time name="dav">   21.54   21.60</time>
   <time name="total">   22.09   22.15</time>
   <energy>
    <i name="alphaZ">     78.87172382 </i>
    <i name="ewald">  39352.44750181 </i>
    <i name="hartreedc"> -45300.02623150 </i>
    <i name="XCdc">   -239.17432209 </i>
    <i name="pawpsdc">   4193.05433686 </i>
    <i name="pawaedc">  -3611.05434817 </i>
    <i name="eentropy">     -0.28133034 </i>
    <i name="bandstr">  -1422.77300445 </i>
    <i name="atom">   6761.44252427 </i>
    <i name="e_fr_energy">   -187.49314978 </i>
    <i name="e_wo_entrp">   -187.21181944 </i>
    <i name="e_0_energy">   -187.35248461 </i>
   </energy>
  </scstep>
  <scstep>
   <time name="dav">   29.48   29.55</time>
   <time name="total">   30.02   30.10</time>
   <energy>
    <i name="e_fr_energy">   -189.51507926 </i>
    <i name="e_wo_entrp">   -189.17930535 </i>
    <i name="e_0_energy">   -189.34719231 </i>
   </energy>
  </scstep>
  <scstep>
   <time name="dav">   30.00   30.07</time>
   <time name="total">   30.55   30.63</time>
   <energy>
    <i name="e_fr_energy">   -189.33082539 </i>
    <i name="e_wo_entrp">   -189.06958288 </i>
    <i name="e_0_energy">   -189.20020414 </i>
   </energy>
  </scstep>
  <scstep>
   <time name="dav">   28.00   28.07</time>
   <time name="total">   28.55   28.63</time>
   <energy>
    <i name="e_fr_energy">   -188.76617102 </i>
    <i name="e_wo_entrp">   -188.48347454 </i>
    <i name="e_0_energy">   -188.62482278 </i>
   </energy>
  </scstep>
  <scstep>
   <time name="dav">   29.75   29.82</time>
   <time name="total">   30.30   30.38</time>
   <energy>
    <i name="e_fr_energy">   -188.85051252 </i>
    <i name="e_wo_entrp">   -188.56262023 </i>
    <i name="e_0_energy">   -188.70656638 </i>
   </energy>
  </scstep>
  <scstep>
   <time name="dav">   29.87   29.94</time>
   <time name="total">   30.42   30.50</time>
   <energy>
    <i name="e_fr_energy">   -188.72140064 </i>
    <i name="e_wo_entrp">   -188.43768423 </i>
    <i name="e_0_energy">   -188.57954243 </i>
   </energy>
  </scstep>
  <scstep>
   <time name="dav">   29.29   29.36</time>
   <time name="total">   29.84   29.92</time>
   <energy>
    <i name="e_fr_energy">   -188.68951855 </i>
    <i name="e_wo_entrp">   -188.40628516 </i>
    <i name="e_0_energy">   -188.54790185 </i>
   </energy>
  </scstep>
  <scstep>
   <time name="dav">   29.29   29.36</time>
   <time name="total">   29.84   29.92</time>
   <energy>
    <i name="e_fr_energy">   -188.67405081 </i>
    <i name="e_wo_entrp">   -188.38958394 </i>
    <i name="e_0_energy">   -188.53181738 </i>
   </energy>
  </scstep>
  <scstep>
   <time name="dav">   29.65   29.72</time>
   <time name="total">   30.19   30.27</time>
   <energy>
    <i name="e_fr_energy">   -188.64858964 </i>
    <i name="e_wo_entrp">   -188.36670733 </i>
    <i name="e_0_energy">   -188.50764849 </i>
   </energy>
  </scstep>
  <scstep>
   <time name="dav">   26.40   26.47</time>
   <time name="total">   26.95   27.02</time>
   <energy>
    <i name="e_fr_energy">   -188.64545572 </i>
    <i name="e_wo_entrp">   -188.36421959 </i>
    <i name="e_0_energy">   -188.50483766 </i>
   </energy>
  </scstep>
  <scstep>
   <time name="dav">   31.48   31.55</time>
   <time name="total">   32.03   32.11</time>
   <energy>
    <i name="e_fr_energy">   -188.64514666 </i>
    <i name="e_wo_entrp">   -188.36521788 </i>
    <i name="e_0_energy">   -188.50518227 </i>
   </energy>
  </scstep>
  <scstep>
   <time name="dav">   26.85   26.92</time>
   <time name="total">   27.40   27.48</time>
   <energy>
    <i name="e_fr_energy">   -188.64526277 </i>
    <i name="e_wo_entrp">   -188.36521856 </i>
    <i name="e_0_energy">   -188.50524066 </i>
   </energy>
  </scstep>
  <scstep>
   <time name="dav">   18.96   19.00</time>
   <time name="total">   18.99   19.05</time>
   <energy>
    <i name="alphaZ">     78.87172382 </i>
    <i name="ewald">  39352.44750181 </i>
    <i name="hartreedc"> -45317.42691694 </i>
    <i name="XCdc">   -238.02975863 </i>
    <i name="pawpsdc">   3949.55609846 </i>
    <i name="pawaedc">  -3364.04696502 </i>
    <i name="eentropy">     -0.28028881 </i>
    <i name="bandstr">  -1411.17923536 </i>
    <i name="atom">   6761.44252427 </i>
    <i name="e_fr_energy">   -188.64531639 </i>
    <i name="e_wo_entrp">   -188.36502758 </i>
    <i name="e_0_energy">   -188.50517198 </i>
   </energy>
  </scstep>
  <structure>
   <crystal>
    <varray name="basis" >
     <v>       8.86172873       5.10655518       0.00000000 </v>
     <v>      -8.86037902       5.10423383       0.00000000 </v>
     <v>       0.00000000       0.00000000      30.00000000 </v>
    </varray>
    <i name="volume">   2714.35049930 </i>
    <varray name="rec_basis" >
     <v>       0.05641387       0.09792817       0.00000000 </v>
     <v>      -0.05643953       0.09794309       0.00000000 </v>
     <v>       0.00000000       0.00000000       0.03333333 </v>
    </varray>
   </crystal>
   <varray name="positions" >
    <v>       0.66615629       0.33264560      -0.00000961 </v>
    <v>       0.66507466       0.66582975       0.00001936 </v>
    <v>       0.33313926       0.33382002      -0.00001240 </v>
    <v>       0.33338135      -0.00115792       0.00005549 </v>
    <v>       1.00143769       0.33470985      -0.00009228 </v>
    <v>       0.33202621       0.66649108       0.00014671 </v>
    <v>       0.00173764       0.00168672      -0.00015456 </v>
    <v>       0.00239881       0.66611347       0.00017058 </v>
    <v>       0.66500552       0.00002875      -0.00017322 </v>
    <v>       0.11488289       0.22326869       0.95188089 </v>
    <v>       0.22339324       0.11496775       0.04807462 </v>
    <v>       0.11047763       0.55572501       0.95069001 </v>
    <v>       0.22463203       0.44206341       0.04798982 </v>
    <v>       0.11004617       0.88841627       0.95076922 </v>
    <v>       0.22110109       0.77716450       0.04937098 </v>
    <v>       0.44634427       0.22658418       0.95316489 </v>
    <v>       0.55802466       0.11504477       0.04810932 </v>
    <v>       0.44651026       0.55321503       0.95308015 </v>
    <v>       0.55559549       0.44420994       0.04584871 </v>
    <v>       0.44552686       0.88932000       0.95078021 </v>
    <v>       0.55822029       0.77612855       0.04797441 </v>
    <v>       0.77483537       0.22348260       0.95199787 </v>
    <v>       0.88830263       0.11021232       0.04917115 </v>
    <v>       0.77409936       0.55390710       0.95318279 </v>
    <v>       0.88476706       0.44324166       0.04803475 </v>
    <v>       0.77598789       0.88522425       0.95191519 </v>
    <v>       0.88510981       0.77587111       0.04801484 </v>
   </varray>
  </structure>
  <varray name="forces" >
   <v>       0.09616334      -0.12608276      -0.09442657 </v>
   <v>      -0.14275733      -0.12871946      -0.01208008 </v>
   <v>      -0.13236745      -0.06866376      -0.01671632 </v>
   <v>       0.34653697      -0.34326321      -0.05325769 </v>
   <v>       0.01707239       0.26909303       0.06225294 </v>
   <v>      -0.52575367      -0.16676767       0.04139755 </v>
   <v>      -0.05466213       0.28785913       0.06800765 </v>
   <v>       0.58368482       0.39165558       0.04413535 </v>
   <v>      -0.23262199      -0.13582968      -0.02992295 </v>
   <v>       0.08106590      -0.03336423      -0.09183810 </v>
   <v>      -0.07058296      -0.04209969      -0.04432499 </v>
   <v>      -0.13090667      -0.00285273      -0.21020764 </v>
   <v>       0.06499819       0.01333960       0.08077048 </v>
   <v>      -0.07301789      -0.11748504       0.01869271 </v>
   <v>      -0.04463144      -0.11292705       0.30704544 </v>
   <v>      -0.00782688       0.05099650       0.16268370 </v>
   <v>       0.09801956       0.04384026       0.03223001 </v>
   <v>       0.04057605      -0.01267198       0.10525940 </v>
   <v>      -0.01862936      -0.01385121      -0.14021574 </v>
   <v>       0.06421807       0.10192416      -0.13578657 </v>
   <v>      -0.03388836       0.09222356      -0.03265705 </v>
   <v>       0.01897000      -0.10450787       0.00867778 </v>
   <v>       0.07293197      -0.10799417      -0.15718231 </v>
   <v>       0.06491187       0.06420996       0.25225356 </v>
   <v>      -0.08369226       0.05997855      -0.03667422 </v>
   <v>      -0.06760311       0.07071123       0.13467752 </v>
   <v>       0.06979237       0.07124895      -0.26279388 </v>
  </varray>
  <varray name="stress" >
   <v>     -20.05636536       0.00015480       0.05919859 </v>
   <v>       0.00015484     -19.58033329      -0.01387622 </v>
   <v>       0.05919852      -0.01387636      -1.72334602 </v>
  </varray>
  <energy>
   <i name="e_fr_energy">   -188.64531639 </i>
   <i name="e_wo_entrp">   -188.50517198 </i>
   <i name="e_0_energy">     -0.28028881 </i>
  </energy>
  <time name="totalsc">  408.73  409.83</time>
 </calculation>
 <calculation>
  <scstep>
   <time name="dav">   23.66   23.72</time>
   <time name="total">   24.20   24.26</time>
   <energy>
    <i name="alphaZ">     82.32742226 </i>
    <i name="ewald">  41294.54995746 </i>
    <i name="hartreedc"> -47290.59632740 </i>
    <i name="XCdc">   -233.86137091 </i>
    <i name="pawpsdc">   3948.78750646 </i>
    <i name="pawaedc">  -3363.27103837 </i>
    <i name="eentropy">     -0.23464728 </i>
    <i name="bandstr">  -1389.74366413 </i>
    <i name="atom">   6761.44252427 </i>
    <i name="e_fr_energy">   -190.59963765 </i>
    <i name="e_wo_entrp">   -190.36499036 </i>
    <i name="e_0_energy">   -190.48231400 </i>
   </energy>
  </scstep>
  <scstep>
   <time name="dav">   29.77   29.84</time>
   <time name="total">   30.30   30.38</time>
   <energy>
    <i name="e_fr_energy">   -190.53221258 </i>
    <i name="e_wo_entrp">   -190.30876113 </i>
    <i name="e_0_energy">   -190.42048685 </i>
   </energy>
  </scstep>
  <scstep>
   <time name="dav">   29.98   30.05</time>
   <time name="total">   30.51   30.59</time>
   <energy>
    <i name="e_fr_energy">   -190.07684540 </i>
    <i name="e_wo_entrp">   -189.82526432 </i>
    <i name="e_0_energy">   -189.95105486 </i>
   </energy>
  </scstep>
  <scstep>
   <time name="dav">   31.84   31.92</time>
   <time name="total">   32.38   32.46</time>
   <energy>
    <i name="e_fr_energy">   -189.85927408 </i>
    <i name="e_wo_entrp">   -189.63214711 </i>
    <i name="e_0_energy">   -189.74571060 </i>
   </energy>
  </scstep>
  <scstep>
   <time name="dav">   29.91   29.98</time>
   <time name="total">   30.44   30.52</time>
   <energy>
    <i name="e_fr_energy">   -189.81322993 </i>
    <i name="e_wo_entrp">   -189.57121403 </i>
    <i name="e_0_energy">   -189.69222198 </i>
   </energy>
  </scstep>
  <scstep>
   <time name="dav">   30.17   30.24</time>
   <time name="total">   30.70   30.78</time>
   <energy>
    <i name="e_fr_energy">   -189.75768048 </i>
    <i name="e_wo_entrp">   -189.52357574 </i>
    <i name="e_0_energy">   -189.64062811 </i>
   </energy>
  </scstep>
  <scstep>
   <time name="dav">   29.20   29.27</time>
   <time name="total">   29.74   29.82</time>
   <energy>
    <i name="e_fr_energy">   -189.75218210 </i>
    <i name="e_wo_entrp">   -189.51599519 </i>
    <i name="e_0_energy">   -189.63408864 </i>
   </energy>
  </scstep>
  <scstep>
   <time name="dav">   28.81   28.87</time>
   <time name="total">   29.34   29.42</time>
   <energy>
    <i name="e_fr_energy">   -189.75292988 </i>
    <i name="e_wo_entrp">   -189.51757773 </i>
    <i name="e_0_energy">   -189.63525381 </i>
   </energy>
  </scstep>
  <scstep>
   <time name="dav">   26.16   26.22</time>
   <time name="total">   26.69   26.76</time>
   <energy>
    <i name="e_fr_energy">   -189.75192772 </i>
    <i name="e_wo_entrp">   -189.51599925 </i>
    <i name="e_0_energy">   -189.63396349 </i>
   </energy>
  </scstep>
  <scstep>
   <time name="dav">   26.01   26.07</time>
   <time name="total">   26.54   26.62</time>
   <energy>
    <i name="e_fr_energy">   -189.75229446 </i>
    <i name="e_wo_entrp">   -189.51662808 </i>
    <i name="e_0_energy">   -189.63446127 </i>
   </energy>
  </scstep>
  <scstep>
   <time name="dav">   26.44   26.50</time>
   <time name="total">   26.97   27.04</time>
   <energy>
    <i name="e_fr_energy">   -189.75200461 </i>
    <i name="e_wo_entrp">   -189.51602441 </i>
    <i name="e_0_energy">   -189.63401451 </i>
   </energy>
  </scstep>
  <scstep>
   <time name="dav">   18.30   18.35</time>
   <time name="total">   18.34   18.39</time>
   <energy>
    <i name="alphaZ">     82.32742226 </i>
    <i name="ewald">  41294.54995746 </i>
    <i name="hartreedc"> -47265.76078197 </i>
    <i name="XCdc">   -235.25726585 </i>
    <i name="pawpsdc">   4038.74454876 </i>
    <i name="pawaedc">  -3454.44346748 </i>
    <i name="eentropy">     -0.23596322 </i>
    <i name="bandstr">  -1411.11903937 </i>
    <i name="atom">   6761.44252427 </i>
    <i name="e_fr_energy">   -189.75206512 </i>
    <i name="e_wo_entrp">   -189.51610190 </i>
    <i name="e_0_energy">   -189.63408351 </i>
   </energy>
  </scstep>
  <structure>
   <crystal>
    <varray name="basis" >
     <v>       8.67149271       4.99953488       0.00000000 </v>
     <v>      -8.67017028       4.99725925       0.00000000 </v>
     <v>       0.00000000       0.00000000      30.00000000 </v>
    </varray>
    <i name="volume">   2600.41547581 </i>
    <varray name="rec_basis" >
     <v>       0.05765147       0.10002444       0.00000000 </v>
     <v>      -0.05767772       0.10003970       0.00000000 </v>
     <v>       0.00000000       0.00000000       0.03333333 </v>
    </varray>
   </crystal>
   <varray name="positions" >
    <v>       0.66603822       0.33234237      -0.00006330 </v>
    <v>       0.66472226       0.66575213       0.00001249 </v>
    <v>       0.33289718       0.33383273      -0.00002190 </v>
    <v>       0.33314141      -0.00206505       0.00002521 </v>
    <v>       1.00190364       0.33514299      -0.00005688 </v>
    <v>       0.33124169       0.66671863       0.00017025 </v>
    <v>       0.00216590       0.00222028      -0.00011589 </v>
    <v>       0.00361475       0.66620588       0.00019568 </v>
    <v>       0.66455477       0.00002577      -0.00019023 </v>
    <v>       0.11490517       0.22313490       0.95182867 </v>
    <v>       0.22325499       0.11496537       0.04804942 </v>
    <v>       0.11034689       0.55584628       0.95057048 </v>
    <v>       0.22471686       0.44202312       0.04803575 </v>
    <v>       0.10977965       0.88829028       0.95077985 </v>
    <v>       0.22086950       0.77701879       0.04954556 </v>
    <v>       0.44642193       0.22667692       0.95325740 </v>
    <v>       0.55819222       0.11502365       0.04812765 </v>
    <v>       0.44652814       0.55315479       0.95314000 </v>
    <v>       0.55555442       0.44420473       0.04576899 </v>
    <v>       0.44575892       0.88942846       0.95070300 </v>
    <v>       0.55834173       0.77631525       0.04795584 </v>
    <v>       0.77467904       0.22328973       0.95200280 </v>
    <v>       0.88819242       0.10996167       0.04908177 </v>
    <v>       0.77426909       0.55395189       0.95332622 </v>
    <v>       0.88478672       0.44342244       0.04801390 </v>
    <v>       0.77604096       0.88540748       0.95199177 </v>
    <v>       0.88529600       0.77592295       0.04786542 </v>
   </varray>
  </structure>
  <varray name="forces" >
   <v>       0.15473195      -0.12329398      -0.09670764 </v>
   <v>      -0.16535281      -0.06005874      -0.01976334 </v>
   <v>      -0.15881218      -0.13889824      -0.02012326 </v>
   <v>       0.39744191      -0.42039757      -0.05180873 </v>
   <v>       0.02615122       0.25001011       0.06568078 </v>
   <v>      -0.63056573      -0.15508056       0.01726403 </v>
   <v>      -0.08082076       0.25641312       0.08872089 </v>
   <v>       0.59202145       0.45527516       0.01276871 </v>
   <v>      -0.19745298      -0.12298132       0.00196303 </v>
   <v>       0.07444092       0.11697571      -0.61848738 </v>
   <v>      -0.05079281       0.10808893       0.45674209 </v>
   <v>      -0.04166568       0.00048683      -0.78674259 </v>
   <v>       0.14527274       0.02822890       0.58132927 </v>
   <v>      -0.03052914      -0.06820908      -0.53916903 </v>
   <v>      -0.00106501      -0.03308091       0.91783284 </v>
   <v>      -0.04515069       0.10341381      -0.27715517 </v>
   <v>      -0.03089275       0.10263438       0.54259114 </v>
   <v>       0.09430311      -0.01524646      -0.33755513 </v>
   <v>      -0.01562055      -0.01760344       0.28270811 </v>
   <v>       0.03406229       0.01582116      -0.70656987 </v>
   <v>       0.06870758       0.01724835       0.46155115 </v>
   <v>      -0.09127776      -0.02256746      -0.49371949 </v>
   <v>       0.02288638      -0.05318961       0.38560031 </v>
   <v>      -0.00118055      -0.04308619      -0.18479243 </v>
   <v>      -0.08701906      -0.07585861       0.46994545 </v>
   <v>       0.00887302      -0.05182478      -0.37305989 </v>
   <v>       0.00930590      -0.05321952       0.22095614 </v>
  </varray>
  <varray name="stress" >
   <v>     -10.23257846      -0.00013744       0.05700818 </v>
   <v>      -0.00013741      -9.83558911      -0.01015823 </v>
   <v>       0.05700819      -0.01015826       6.51046223 </v>
  </varray>
  <energy>
   <i name="e_fr_energy">   -189.75206512 </i>
   <i name="e_wo_entrp">   -189.63408351 </i>
   <i name="e_0_energy">     -0.23596322 </i>
  </energy>
  <time name="totalsc">  377.82  378.82</time>
 </calculation>
 <calculation>
  <scstep>
   <time name="dav">   21.52   21.57</time>
   <time name="total">   22.04   22.10</time>
   <energy>
    <i name="alphaZ">     85.81956612 </i>
    <i name="ewald">  42832.82760859 </i>
    <i name="hartreedc"> -48848.80311907 </i>
    <i name="XCdc">   -232.95921158 </i>
    <i name="pawpsdc">   4038.64683526 </i>
    <i name="pawaedc">  -3454.34076284 </i>
    <i name="eentropy">     -0.19702680 </i>
    <i name="bandstr">  -1373.77553605 </i>
    <i name="atom">   6761.44252427 </i>
    <i name="e_fr_energy">   -191.33912210 </i>
    <i name="e_wo_entrp">   -191.14209530 </i>
    <i name="e_0_energy">   -191.24060870 </i>
   </energy>
  </scstep>
  <scstep>
   <time name="dav">   31.57   31.64</time>
   <time name="total">   32.08   32.17</time>
   <energy>
    <i name="e_fr_energy">   -191.16087602 </i>
    <i name="e_wo_entrp">   -190.96617032 </i>
    <i name="e_0_energy">   -191.06352317 </i>
   </energy>
  </scstep>
  <scstep>
   <time name="dav">   29.84   29.91</time>
   <time name="total">   30.36   30.44</time>
   <energy>
    <i name="e_fr_energy">   -191.31777299 </i>
    <i name="e_wo_entrp">   -191.09978517 </i>
    <i name="e_0_energy">   -191.20877908 </i>
   </energy>
  </scstep>
  <scstep>
   <time name="dav">   29.76   29.83</time>
   <time name="total">   30.28   30.36</time>
   <energy>
    <i name="e_fr_energy">   -190.94556839 </i>
    <i name="e_wo_entrp">   -190.73528124 </i>
    <i name="e_0_energy">   -190.84042481 </i>
   </energy>
  </scstep>
  <scstep>
   <time name="dav">   27.88   27.94</time>
   <time name="total">   28.40   28.47</time>
   <energy>
    <i name="e_fr_energy">   -190.92651043 </i>
    <i name="e_wo_entrp">   -190.73840027 </i>
    <i name="e_0_energy">   -190.83245535 </i>
   </energy>
  </scstep>
  <scstep>
   <time name="dav">   28.62   28.68</time>
   <time name="total">   29.14   29.21</time>
   <energy>
    <i name="e_fr_energy">   -190.75535009 </i>
    <i name="e_wo_entrp">   -190.55350675 </i>
    <i name="e_0_energy">   -190.65442842 </i>
   </energy>
  </scstep>
  <scstep>
   <time name="dav">   30.81   30.88</time>
   <time name="total">   31.33   31.41</time>
   <energy>
    <i name="e_fr_energy">   -190.75341513 </i>
    <i name="e_wo_entrp">   -190.55108302 </i>
    <i name="e_0_energy">   -190.65224908 </i>
   </energy>
  </scstep>
  <scstep>
   <time name="dav">   29.51   29.58</time>
   <time name="total">   30.03   30.11</time>
   <energy>
    <i name="e_fr_energy">   -190.75217750 </i>
    <i name="e_wo_entrp">   -190.54981007 </i>
    <i name="e_0_energy">   -190.65099378 </i>
   </energy>
  </scstep>
  <scstep>
   <time name="dav">   27.71   27.78</time>
   <time name="total">   28.24   28.31</time>
   <energy>
    <i name="e_fr_energy">   -190.74724600 </i>
    <i name="e_wo_entrp">   -190.54518170 </i>
    <i name="e_0_energy">   -190.64621385 </i>
   </energy>
  </scstep>
  <scstep>
   <time name="dav">   26.74   26.80</time>
   <time name="total">   27.25   27.33</time>
   <energy>
    <i name="e_fr_energy">   -190.74760157 </i>
    <i name="e_wo_entrp">   -190.54551368 </i>
    <i name="e_0_energy">   -190.64655762 </i>
   </energy>
  </scstep>
  <scstep>
   <time name="dav">   26.87   26.94</time>
   <time name="total">   27.40   27.47</time>
   <energy>
    <i name="e_fr_energy">   -190.74739524 </i>
    <i name="e_wo_entrp">   -190.54520359 </i>
    <i name="e_0_energy">   -190.64629942 </i>
   </energy>
  </scstep>
  <scstep>
   <time name="dav">   18.45   18.50</time>
   <time name="total">   18.49   18.54</time>
   <energy>
    <i name="alphaZ">     85.81956612 </i>
    <i name="ewald">  42832.82760859 </i>
    <i name="hartreedc"> -48820.55074749 </i>
    <i name="XCdc">   -234.29478635 </i>
    <i name="pawpsdc">   4063.71546348 </i>
    <i name="pawaedc">  -3479.59557820 </i>
    <i name="eentropy">     -0.20230883 </i>
    <i name="bandstr">  -1399.90916014 </i>
    <i name="atom">   6761.44252427 </i>
    <i name="e_fr_energy">   -190.74741855 </i>
    <i name="e_wo_entrp">   -190.54510971 </i>
    <i name="e_0_energy">   -190.64626413 </i>
   </energy>
  </scstep>
  <structure>
   <crystal>
    <varray name="basis" >
     <v>       8.48760677       4.89999250       0.00000000 </v>
     <v>      -8.48632217       4.89777915       0.00000000 </v>
     <v>       0.00000000       0.00000000      30.00000000 </v>
    </varray>
    <i name="volume">   2494.60015498 </i>
    <varray name="rec_basis" >
     <v>       0.05890057       0.10205630       0.00000000 </v>
     <v>      -0.05892719       0.10207175       0.00000000 </v>
     <v>       0.00000000       0.00000000       0.03333333 </v>
    </varray>
   </crystal>
   <varray name="positions" >
    <v>       0.66591524       0.33093418      -0.00026539 </v>
    <v>       0.66388693       0.66617581      -0.00003490 </v>
    <v>       0.33124174       0.33339992      -0.00006643 </v>
    <v>       0.33182475      -0.00639863      -0.00008080 </v>
    <v>       1.00352975       0.33655448       0.00008195 </v>
    <v>       0.32787254       0.66820389       0.00018561 </v>
    <v>       0.00336486       0.00407804       0.00008522 </v>
    <v>       0.00877401       0.66706514       0.00019563 </v>
    <v>       0.66315351      -0.00004974      -0.00015926 </v>
    <v>       0.11627000       0.22398109       0.95010407 </v>
    <v>       0.22414929       0.11617019       0.04941766 </v>
    <v>       0.11033523       0.55588061       0.94845553 </v>
    <v>       0.22556986       0.44159735       0.04966142 </v>
    <v>       0.10942502       0.88803474       0.94919308 </v>
    <v>       0.22091865       0.77695115       0.05196075 </v>
    <v>       0.44698331       0.22767123       0.95231254 </v>
    <v>       0.55868519       0.11610826       0.04968141 </v>
    <v>       0.44684353       0.55263542       0.95206761 </v>
    <v>       0.55538274       0.44413728       0.04671106 </v>
    <v>       0.44572446       0.88923409       0.94875885 </v>
    <v>       0.55865853       0.77584255       0.04932824 </v>
    <v>       0.77425377       0.22383886       0.95055691 </v>
    <v>       0.88800629       0.10975319       0.05033797 </v>
    <v>       0.77363450       0.55351459       0.95257489 </v>
    <v>       0.88365576       0.44292948       0.04941415 </v>
    <v>       0.77555379       0.88463759       0.95079110 </v>
    <v>       0.88460123       0.77533369       0.04873102 </v>
   </varray>
  </structure>
  <varray name="forces" >
   <v>       0.15106804      -0.10671810      -0.06575571 </v>
   <v>      -0.17409468      -0.03542805      -0.03172994 </v>
   <v>      -0.17774626      -0.16624780      -0.02297862 </v>
   <v>       0.45900436      -0.46990540      -0.01366571 </v>
   <v>       0.06248572       0.21756237       0.04517478 </v>
   <v>      -0.67603581      -0.10214267      -0.02728454 </v>
   <v>      -0.14757779       0.23293903       0.06962589 </v>
   <v>       0.56349907       0.45951509      -0.01909443 </v>
   <v>      -0.15373066      -0.13133531       0.03881121 </v>
   <v>       0.01650461       0.08735508      -0.44736456 </v>
   <v>       0.04989062       0.09052254       0.27006116 </v>
   <v>       0.03607731       0.00062634      -0.57881008 </v>
   <v>       0.02464098       0.07216700       0.40462400 </v>
   <v>       0.02008628      -0.03172776      -0.33596923 </v>
   <v>       0.01897151       0.01794582       0.79314936 </v>
   <v>       0.02245783      -0.04869847      -0.17779768 </v>
   <v>      -0.05484998      -0.00752296       0.34833060 </v>
   <v>      -0.05661193      -0.03190236      -0.23523195 </v>
   <v>      -0.01072281      -0.03008066       0.26105925 </v>
   <v>       0.02927225      -0.04657687      -0.51536079 </v>
   <v>      -0.04044806      -0.05667198       0.29444142 </v>
   <v>      -0.00588568       0.01674076      -0.33105241 </v>
   <v>      -0.05139881       0.00181543       0.23560055 </v>
   <v>       0.06425938       0.05428621      -0.08166806 </v>
   <v>      -0.03057832       0.01451665       0.29498976 </v>
   <v>      -0.00999240      -0.00055100      -0.25776119 </v>
   <v>       0.07145522      -0.00048293       0.08565693 </v>
  </varray>
  <varray name="stress" >
   <v>      -5.69394054       0.06378530      -0.13392240 </v>
   <v>       0.06378539      -5.87044921       0.10598661 </v>
   <v>      -0.13392236       0.10598688       4.55030078 </v>
  </varray>
  <energy>
   <i name="e_fr_energy">   -190.74741855 </i>
   <i name="e_wo_entrp">   -190.64626413 </i>
   <i name="e_0_energy">     -0.20230883 </i>
  </energy>
  <time name="totalsc">  376.93  377.92</time>
 </calculation>
 <calculation>
  <scstep>
   <time name="dav">   21.54   21.59</time>
   <time name="total">   22.05   22.11</time>
   <energy>
    <i name="alphaZ">     90.17291642 </i>
    <i name="ewald">  44671.25672717 </i>
    <i name="hartreedc"> -50714.00114835 </i>
    <i name="XCdc">   -231.81565273 </i>
    <i name="pawpsdc">   4063.71281551 </i>
    <i name="pawaedc">  -3479.58902275 </i>
    <i name="eentropy">     -0.18599400 </i>
    <i name="bandstr">  -1353.11726580 </i>
    <i name="atom">   6761.44252427 </i>
    <i name="e_fr_energy">   -192.12410027 </i>
    <i name="e_wo_entrp">   -191.93810627 </i>
    <i name="e_0_energy">   -192.03110327 </i>
   </energy>
  </scstep>
  <scstep>
   <time name="dav">   28.36   28.42</time>
   <time name="total">   28.86   28.94</time>
   <energy>
    <i name="e_fr_energy">   -191.88276809 </i>
    <i name="e_wo_entrp">   -191.68348067 </i>
    <i name="e_0_energy">   -191.78312438 </i>
   </energy>
  </scstep>
  <scstep>
   <time name="dav">   29.36   29.43</time>
   <time name="total">   29.86   29.94</time>
   <energy>
    <i name="e_fr_energy">   -192.37738157 </i>
    <i name="e_wo_entrp">   -192.19254423 </i>
    <i name="e_0_energy">   -192.28496290 </i>
   </energy>
  </scstep>
  <scstep>
   <time name="dav">   28.95   29.02</time>
   <time name="total">   29.46   29.54</time>
   <energy>
    <i name="e_fr_energy">   -191.65447064 </i>
    <i name="e_wo_entrp">   -191.46032230 </i>
    <i name="e_0_energy">   -191.55739647 </i>
   </energy>
  </scstep>
  <scstep>
   <time name="dav">   29.27   29.34</time>
   <time name="total">   29.78   29.86</time>
   <energy>
    <i name="e_fr_energy">   -191.59602052 </i>
    <i name="e_wo_entrp">   -191.39762722 </i>
    <i name="e_0_energy">   -191.49682387 </i>
   </energy>
  </scstep>
  <scstep>
   <time name="dav">   30.71   30.78</time>
   <time name="total">   31.22   31.30</time>
   <energy>
    <i name="e_fr_energy">   -191.42429914 </i>
    <i name="e_wo_entrp">   -191.23395797 </i>
    <i name="e_0_energy">   -191.32912856 </i>
   </energy>
  </scstep>
  <scstep>
   <time name="dav">   30.36   30.43</time>
   <time name="total">   30.87   30.96</time>
   <energy>
    <i name="e_fr_energy">   -191.41432639 </i>
    <i name="e_wo_entrp">   -191.21107270 </i>
    <i name="e_0_energy">   -191.31269955 </i>
   </energy>
  </scstep>
  <scstep>
   <time name="dav">   28.11   28.18</time>
   <time name="total">   28.62   28.70</time>
   <energy>
    <i name="e_fr_energy">   -191.40061742 </i>
    <i name="e_wo_entrp">   -191.20712425 </i>
    <i name="e_0_energy">   -191.30387083 </i>
   </energy>
  </scstep>
  <scstep>
   <time name="dav">   28.81   28.87</time>
   <time name="total">   29.31   29.39</time>
   <energy>
    <i name="e_fr_energy">   -191.39489301 </i>
    <i name="e_wo_entrp">   -191.19990668 </i>
    <i name="e_0_energy">   -191.29739985 </i>
   </energy>
  </scstep>
  <scstep>
   <time name="dav">   29.85   29.92</time>
   <time name="total">   30.36   30.44</time>
   <energy>
    <i name="e_fr_energy">   -191.39485487 </i>
    <i name="e_wo_entrp">   -191.19914568 </i>
    <i name="e_0_energy">   -191.29700028 </i>
   </energy>
  </scstep>
  <scstep>
   <time name="dav">   27.02   27.08</time>
   <time name="total">   27.05   27.13</time>
   <energy>
    <i name="alphaZ">     90.17291642 </i>
    <i name="ewald">  44671.25672717 </i>
    <i name="hartreedc"> -50680.17927807 </i>
    <i name="XCdc">   -233.34088076 </i>
    <i name="pawpsdc">   4086.73757991 </i>
    <i name="pawaedc">  -3502.73737794 </i>
    <i name="eentropy">     -0.19580798 </i>
    <i name="bandstr">  -1384.55131876 </i>
    <i name="atom">   6761.44252427 </i>
    <i name="e_fr_energy">   -191.39491575 </i>
    <i name="e_wo_entrp">   -191.19910777 </i>
    <i name="e_0_energy">   -191.29701176 </i>
   </energy>
  </scstep>
  <structure>
   <crystal>
    <varray name="basis" >
     <v>       8.28583306       4.78127107       0.00000000 </v>
     <v>      -8.28087565       4.77269655       0.00000000 </v>
     <v>       0.00000000       0.00000000      30.00000000 </v>
    </varray>
    <i name="volume">   2374.16634003 </i>
    <varray name="rec_basis" >
     <v>       0.06030786       0.10463726       0.00000000 </v>
     <v>      -0.06041621       0.10469991       0.00000000 </v>
     <v>       0.00000000       0.00000000       0.03333333 </v>
    </varray>
   </crystal>
   <varray name="positions" >
    <v>       0.66575724       0.32846250      -0.00054384 </v>
    <v>       0.66236197       0.66714702      -0.00016148 </v>
    <v>       0.32780101       0.33249954      -0.00015907 </v>
    <v>       0.32922484      -0.01548018      -0.00015343 </v>
    <v>       1.00658787       0.33877641       0.00027464 </v>
    <v>       0.32171700       0.67177497       0.00007792 </v>
    <v>       0.00512874       0.00786935       0.00039042 </v>
    <v>       0.01851069       0.66882609       0.00010678 </v>
    <v>       0.66054819      -0.00053282       0.00000547 </v>
    <v>       0.11796066       0.22535312       0.94774112 </v>
    <v>       0.22598569       0.11743315       0.05106302 </v>
    <v>       0.11067609       0.55557313       0.94550570 </v>
    <v>       0.22683210       0.44202728       0.05183327 </v>
    <v>       0.10928086       0.88756668       0.94722405 </v>
    <v>       0.22146233       0.77712560       0.05574750 </v>
    <v>       0.44682096       0.22744235       0.95113639 </v>
    <v>       0.55836841       0.11693268       0.05164920 </v>
    <v>       0.44630873       0.55243568       0.95065991 </v>
    <v>       0.55495260       0.44385680       0.04815964 </v>
    <v>       0.44517953       0.88836757       0.94607422 </v>
    <v>       0.55786601       0.77507880       0.05105322 </v>
    <v>       0.77432309       0.22450865       0.94868162 </v>
    <v>       0.88772151       0.11021096       0.05186776 </v>
    <v>       0.77411439       0.55343141       0.95177964 </v>
    <v>       0.88302995       0.44284910       0.05115728 </v>
    <v>       0.77519057       0.88413103       0.94922537 </v>
    <v>       0.88450346       0.77454757       0.04960358 </v>
   </varray>
  </structure>
  <varray name="forces" >
   <v>       0.05461910      -0.05973610      -0.01878280 </v>
   <v>      -0.13801313      -0.10196768      -0.00267274 </v>
   <v>      -0.17268808      -0.07637326       0.03027398 </v>
   <v>       0.23268657      -0.12082979       0.06873621 </v>
   <v>       0.14877263       0.06629415      -0.01746340 </v>
   <v>      -0.10276884       0.05484791      -0.01212004 </v>
   <v>      -0.25186568       0.15445374       0.01383231 </v>
   <v>       0.17958117       0.11172527       0.03014621 </v>
   <v>      -0.04989988      -0.12847302      -0.01619261 </v>
   <v>      -0.03964233       0.01290089      -0.15496385 </v>
   <v>       0.14927964       0.01806614      -0.05189910 </v>
   <v>       0.07562585      -0.01695004      -0.23715344 </v>
   <v>      -0.11872646       0.14060166       0.05675391 </v>
   <v>       0.04358861      -0.01234779      -0.01037255 </v>
   <v>       0.01331484       0.02321008       0.36785737 </v>
   <v>       0.10616894      -0.24874493       0.07387970 </v>
   <v>      -0.02735710      -0.11456524       0.05564492 </v>
   <v>      -0.23564146      -0.04089052      -0.01544577 </v>
   <v>      -0.00630835      -0.03482193       0.01475936 </v>
   <v>       0.03563842      -0.07919576      -0.17478942 </v>
   <v>      -0.15330554      -0.11726694       0.01656662 </v>
   <v>       0.09579056       0.01246017      -0.01127709 </v>
   <v>      -0.11246992       0.03842512       0.04771176 </v>
   <v>       0.14262212       0.21002150       0.13978217 </v>
   <v>       0.02771718       0.13436008      -0.00286756 </v>
   <v>      -0.06032038       0.08611249      -0.00838420 </v>
   <v>       0.16360151       0.08868382      -0.18155996 </v>
  </varray>
  <varray name="stress" >
   <v>       0.34550116       0.05055498      -0.24767525 </v>
   <v>       0.05055490       0.01520113       0.27860698 </v>
   <v>      -0.24767528       0.27860681      -0.29511436 </v>
  </varray>
  <energy>
   <i name="e_fr_energy">   -191.39491575 </i>
   <i name="e_wo_entrp">   -191.29701176 </i>
   <i name="e_0_energy">     -0.19580798 </i>
  </energy>
  <time name="totalsc">  359.15  360.10</time>
 </calculation>
 <calculation>
  <scstep>
   <time name="dav">   21.50   21.55</time>
   <time name="total">   22.01   22.06</time>
   <energy>
    <i name="alphaZ">     90.04597715 </i>
    <i name="ewald">  44592.62026776 </i>
    <i name="hartreedc"> -50601.10755537 </i>
    <i name="XCdc">   -233.51471341 </i>
    <i name="pawpsdc">   4087.10296120 </i>
    <i name="pawaedc">  -3503.09995125 </i>
    <i name="eentropy">     -0.19885640 </i>
    <i name="bandstr">  -1384.72053446 </i>
    <i name="atom">   6761.44252427 </i>
    <i name="e_fr_energy">   -191.42988051 </i>
    <i name="e_wo_entrp">   -191.23102411 </i>
    <i name="e_0_energy">   -191.33045231 </i>
   </energy>
  </scstep>
  <scstep>
   <time name="dav">   31.07   31.14</time>
   <time name="total">   31.58   31.66</time>
   <energy>
    <i name="e_fr_energy">   -191.47009521 </i>
    <i name="e_wo_entrp">   -191.26213645 </i>
    <i name="e_0_energy">   -191.36611583 </i>
   </energy>
  </scstep>
  <scstep>
   <time name="dav">   30.16   30.23</time>
   <time name="total">   30.67   30.75</time>
   <energy>
    <i name="e_fr_energy">   -191.43942888 </i>
    <i name="e_wo_entrp">   -191.24059523 </i>
    <i name="e_0_energy">   -191.34001206 </i>
   </energy>
  </scstep>
  <scstep>
   <time name="dav">   27.52   27.59</time>
   <time name="total">   28.03   28.11</time>
   <energy>
    <i name="e_fr_energy">   -191.43975591 </i>
    <i name="e_wo_entrp">   -191.23985264 </i>
    <i name="e_0_energy">   -191.33980427 </i>
   </energy>
  </scstep>
  <scstep>
   <time name="dav">   26.83   26.89</time>
   <time name="total">   27.34   27.41</time>
   <energy>
    <i name="e_fr_energy">   -191.43791236 </i>
    <i name="e_wo_entrp">   -191.23746257 </i>
    <i name="e_0_energy">   -191.33768747 </i>
   </energy>
  </scstep>
  <scstep>
   <time name="dav">   28.47   28.54</time>
   <time name="total">   28.98   29.06</time>
   <energy>
    <i name="e_fr_energy">   -191.43786179 </i>
    <i name="e_wo_entrp">   -191.23745443 </i>
    <i name="e_0_energy">   -191.33765811 </i>
   </energy>
  </scstep>
  <scstep>
   <time name="dav">   25.75   25.81</time>
   <time name="total">   26.26   26.33</time>
   <energy>
    <i name="e_fr_energy">   -191.43808861 </i>
    <i name="e_wo_entrp">   -191.23890083 </i>
    <i name="e_0_energy">   -191.33849472 </i>
   </energy>
  </scstep>
  <scstep>
   <time name="dav">   22.66   22.73</time>
   <time name="total">   23.18   23.25</time>
   <energy>
    <i name="e_fr_energy">   -191.43754233 </i>
    <i name="e_wo_entrp">   -191.23755227 </i>
    <i name="e_0_energy">   -191.33754730 </i>
   </energy>
  </scstep>
  <scstep>
   <time name="dav">   16.90   16.94</time>
   <time name="total">   16.94   16.99</time>
   <energy>
    <i name="alphaZ">     90.04597715 </i>
    <i name="ewald">  44592.62026776 </i>
    <i name="hartreedc"> -50603.15095681 </i>
    <i name="XCdc">   -233.45602093 </i>
    <i name="pawpsdc">   4082.58327352 </i>
    <i name="pawaedc">  -3498.51648422 </i>
    <i name="eentropy">     -0.20000832 </i>
    <i name="bandstr">  -1382.80613372 </i>
    <i name="atom">   6761.44252427 </i>
    <i name="e_fr_energy">   -191.43756129 </i>
    <i name="e_wo_entrp">   -191.23755297 </i>
    <i name="e_0_energy">   -191.33755713 </i>
   </energy>
  </scstep>
  <structure>
   <crystal>
    <varray name="basis" >
     <v>       8.29573849       4.78366599       0.00000000 </v>
     <v>      -8.28958872       4.77303109       0.00000000 </v>
     <v>       0.00000000       0.00000000      30.00000000 </v>
    </varray>
    <i name="volume">   2377.51324071 </i>
    <varray name="rec_basis" >
     <v>       0.06022719       0.10459991       0.00000000 </v>
     <v>      -0.06036138       0.10467751       0.00000000 </v>
     <v>       0.00000000       0.00000000       0.03333333 </v>
    </varray>
   </crystal>
   <varray name="positions" >
    <v>       0.66562035       0.32805717      -0.00056835 </v>
    <v>       0.66149551       0.66701912      -0.00016353 </v>
    <v>       0.32699752       0.33263030      -0.00011019 </v>
    <v>       0.32933470      -0.01657893      -0.00004458 </v>
    <v>       1.00728293       0.33864308       0.00024397 </v>
    <v>       0.32180038       0.67227484       0.00006077 </v>
    <v>       0.00514519       0.00927850       0.00040660 </v>
    <v>       0.01940154       0.66883493       0.00015553 </v>
    <v>       0.65981957      -0.00101446      -0.00002271 </v>
    <v>       0.11787775       0.22550096       0.94754513 </v>
    <v>       0.22646133       0.11707201       0.05094787 </v>
    <v>       0.11080016       0.55528154       0.94519181 </v>
    <v>       0.22716266       0.44304975       0.05187922 </v>
    <v>       0.10934479       0.88738975       0.94724799 </v>
    <v>       0.22160256       0.77719789       0.05625183 </v>
    <v>       0.44590042       0.22591841       0.95127688 </v>
    <v>       0.55773247       0.11642794       0.05169660 </v>
    <v>       0.44544790       0.55290817       0.95066470 </v>
    <v>       0.55477099       0.44370831       0.04815380 </v>
    <v>       0.44490297       0.88789341       0.94585321 </v>
    <v>       0.55686839       0.77495426       0.05104394 </v>
    <v>       0.77465498       0.22428243       0.94870174 </v>
    <v>       0.88759616       0.11070968       0.05190998 </v>
    <v>       0.77554721       0.55406312       0.95201677 </v>
    <v>       0.88378466       0.44343687       0.05111714 </v>
    <v>       0.77545182       0.88473959       0.94924463 </v>
    <v>       0.88540955       0.77453581       0.04929917 </v>
   </varray>
  </structure>
  <varray name="forces" >
   <v>       0.03946652      -0.06164478      -0.04227216 </v>
   <v>      -0.13203686      -0.14104358      -0.00260008 </v>
   <v>      -0.18551891      -0.06050243       0.02460743 </v>
   <v>       0.28327671      -0.12227340       0.01868899 </v>
   <v>       0.15446237       0.08640961      -0.03032888 </v>
   <v>      -0.18363681       0.02570413      -0.01157306 </v>
   <v>      -0.28462659       0.17465488       0.02153817 </v>
   <v>       0.29279411       0.14393281       0.00159626 </v>
   <v>      -0.07321552      -0.14559515      -0.03232596 </v>
   <v>      -0.02319814       0.02457956      -0.14083247 </v>
   <v>       0.08195700       0.01416675      -0.06897012 </v>
   <v>       0.04342220      -0.00650647      -0.10633815 </v>
   <v>      -0.05998332       0.08249578       0.05019456 </v>
   <v>       0.01155545       0.00375471       0.07202156 </v>
   <v>       0.03054689       0.00104926       0.21695420 </v>
   <v>       0.06096505      -0.15881512       0.10695359 </v>
   <v>       0.00015512      -0.06067054       0.04780436 </v>
   <v>      -0.12874025      -0.02596240      -0.02575029 </v>
   <v>      -0.00883273      -0.02163352      -0.02141149 </v>
   <v>       0.02159222      -0.03652107      -0.11830958 </v>
   <v>      -0.08380221      -0.05573419       0.03324816 </v>
   <v>       0.06534736       0.00268141       0.02519723 </v>
   <v>      -0.08463363       0.01394587       0.03310969 </v>
   <v>       0.07870778       0.12523866       0.14197310 </v>
   <v>       0.04446546       0.06937305      -0.01296946 </v>
   <v>      -0.04317371       0.05707419       0.01049227 </v>
   <v>       0.08268447       0.07184199      -0.19069789 </v>
  </varray>
  <varray name="stress" >
   <v>      -0.24850778      -0.03854499      -0.08732277 </v>
   <v>      -0.03854514      -0.25363579       0.13579928 </v>
   <v>      -0.08732284       0.13579923      -1.09654066 </v>
  </varray>
  <energy>
   <i name="e_fr_energy">   -191.43756129 </i>
   <i name="e_wo_entrp">   -191.33755713 </i>
   <i name="e_0_energy">     -0.20000832 </i>
  </energy>
  <time name="totalsc">  276.65  277.40</time>
 </calculation>
 <calculation>
  <scstep>
   <time name="dav">   21.52   21.58</time>
   <time name="total">   22.04   22.09</time>
   <energy>
    <i name="alphaZ">     90.28752685 </i>
    <i name="ewald">  44694.93716628 </i>
    <i name="hartreedc"> -50708.33340323 </i>
    <i name="XCdc">   -233.31997178 </i>
    <i name="pawpsdc">   4082.40358639 </i>
    <i name="pawaedc">  -3498.33488720 </i>
    <i name="eentropy">     -0.20197741 </i>
    <i name="bandstr">  -1380.36578993 </i>
    <i name="atom">   6761.44252427 </i>
    <i name="e_fr_energy">   -191.48522576 </i>
    <i name="e_wo_entrp">   -191.28324835 </i>
    <i name="e_0_energy">   -191.38423705 </i>
   </energy>
  </scstep>
  <scstep>
   <time name="dav">   32.02   32.09</time>
   <time name="total">   32.52   32.61</time>
   <energy>
    <i name="e_fr_energy">   -191.53645715 </i>
    <i name="e_wo_entrp">   -191.32062309 </i>
    <i name="e_0_energy">   -191.42854012 </i>
   </energy>
  </scstep>
  <scstep>
   <time name="dav">   30.37   30.45</time>
   <time name="total">   30.88   30.97</time>
   <energy>
    <i name="e_fr_energy">   -191.49619607 </i>
    <i name="e_wo_entrp">   -191.29450431 </i>
    <i name="e_0_energy">   -191.39535019 </i>
   </energy>
  </scstep>
  <scstep>
   <time name="dav">   27.19   27.26</time>
   <time name="total">   27.70   27.77</time>
   <energy>
    <i name="e_fr_energy">   -191.49399609 </i>
    <i name="e_wo_entrp">   -191.29066902 </i>
    <i name="e_0_energy">   -191.39233255 </i>
   </energy>
  </scstep>
  <scstep>
   <time name="dav">   28.08   28.15</time>
   <time name="total">   28.59   28.67</time>
   <energy>
    <i name="e_fr_energy">   -191.49188091 </i>
    <i name="e_wo_entrp">   -191.28734288 </i>
    <i name="e_0_energy">   -191.38961189 </i>
   </energy>
  </scstep>
  <scstep>
   <time name="dav">   28.09   28.16</time>
   <time name="total">   28.60   28.67</time>
   <energy>
    <i name="e_fr_energy">   -191.49102608 </i>
    <i name="e_wo_entrp">   -191.28618225 </i>
    <i name="e_0_energy">   -191.38860416 </i>
   </energy>
  </scstep>
  <scstep>
   <time name="dav">   28.14   28.21</time>
   <time name="total">   28.65   28.73</time>
   <energy>
    <i name="e_fr_energy">   -191.49158639 </i>
    <i name="e_wo_entrp">   -191.28865543 </i>
    <i name="e_0_energy">   -191.39012091 </i>
   </energy>
  </scstep>
  <scstep>
   <time name="dav">   24.50   24.56</time>
   <time name="total">   25.01   25.07</time>
   <energy>
    <i name="e_fr_energy">   -191.49036043 </i>
    <i name="e_wo_entrp">   -191.28578639 </i>
    <i name="e_0_energy">   -191.38807341 </i>
   </energy>
  </scstep>
  <scstep>
   <time name="dav">   16.35   16.39</time>
   <time name="total">   16.38   16.43</time>
   <energy>
    <i name="alphaZ">     90.28752685 </i>
    <i name="ewald">  44694.93716628 </i>
    <i name="hartreedc"> -50707.03348944 </i>
    <i name="XCdc">   -233.37673168 </i>
    <i name="pawpsdc">   4084.93367521 </i>
    <i name="pawaedc">  -3500.89859697 </i>
    <i name="eentropy">     -0.20435520 </i>
    <i name="bandstr">  -1381.57809610 </i>
    <i name="atom">   6761.44252427 </i>
    <i name="e_fr_energy">   -191.49037678 </i>
    <i name="e_wo_entrp">   -191.28602158 </i>
    <i name="e_0_energy">   -191.38819918 </i>
   </energy>
  </scstep>
  <structure>
   <crystal>
    <varray name="basis" >
     <v>       8.28448849       4.77610688       0.00000000 </v>
     <v>      -8.27941853       4.76734706       0.00000000 </v>
     <v>       0.00000000       0.00000000      30.00000000 </v>
    </varray>
    <i name="volume">   2371.15258788 </i>
    <varray name="rec_basis" >
     <v>       0.06031683       0.10475182       0.00000000 </v>
     <v>      -0.06042766       0.10481597       0.00000000 </v>
     <v>       0.00000000       0.00000000       0.03333333 </v>
    </varray>
   </crystal>
   <varray name="positions" >
    <v>       0.66535384       0.32738839      -0.00066838 </v>
    <v>       0.65997191       0.66662617      -0.00017366 </v>
    <v>       0.32572649       0.33290670      -0.00005934 </v>
    <v>       0.32951187      -0.01884557      -0.00000212 </v>
    <v>       1.00858119       0.33869814       0.00018620 </v>
    <v>       0.32105591       0.67329667       0.00003175 </v>
    <v>       0.00527945       0.01171541       0.00046418 </v>
    <v>       0.02185492       0.66873923       0.00015828 </v>
    <v>       0.65845561      -0.00173660      -0.00008557 </v>
    <v>       0.11801969       0.22581822       0.94714016 </v>
    <v>       0.22696705       0.11689175       0.05087063 </v>
    <v>       0.11094287       0.55504486       0.94482879 </v>
    <v>       0.22754700       0.44388657       0.05207883 </v>
    <v>       0.10941399       0.88734454       0.94731285 </v>
    <v>       0.22175726       0.77710238       0.05688672 </v>
[...]
      <set comment="kpoint 31">
       <r>  -17.5120    1.0000 </r>
       <r>  -17.2535    1.0000 </r>
       <r>  -16.9296    1.0000 </r>
       <r>  -16.5840    1.0000 </r>
       <r>  -16.4908    1.0000 </r>
       <r>  -16.4861    1.0000 </r>
       <r>  -16.3020    1.0000 </r>
       <r>  -16.2161    1.0000 </r>
       <r>  -16.1128    1.0000 </r>
       <r>  -16.0113    1.0000 </r>
       <r>  -15.9167    1.0000 </r>
       <r>  -15.8615    1.0000 </r>
       <r>  -15.7586    1.0000 </r>
       <r>  -15.7102    1.0000 </r>
       <r>  -15.6171    1.0000 </r>
       <r>  -15.5064    1.0000 </r>
       <r>  -15.4425    1.0000 </r>
       <r>  -15.3198    1.0000 </r>
       <r>   -9.7588    1.0000 </r>
       <r>   -9.4702    1.0000 </r>
       <r>   -9.3109    1.0000 </r>
       <r>   -8.9870    1.0000 </r>
       <r>   -8.7886    1.0000 </r>
       <r>   -8.7177    1.0000 </r>
       <r>   -8.6347    1.0000 </r>
       <r>   -8.5170    1.0000 </r>
       <r>   -8.3721    1.0000 </r>
       <r>   -8.3194    1.0000 </r>
       <r>   -8.2662    1.0000 </r>
       <r>   -8.1641    1.0000 </r>
       <r>   -8.1186    1.0000 </r>
       <r>   -8.0375    1.0000 </r>
       <r>   -7.9810    1.0000 </r>
       <r>   -7.9018    1.0000 </r>
       <r>   -7.8318    1.0000 </r>
       <r>   -7.6717    1.0000 </r>
       <r>   -7.6378    1.0000 </r>
       <r>   -7.4535    1.0000 </r>
       <r>   -7.4204    1.0000 </r>
       <r>   -7.2421    1.0000 </r>
       <r>   -7.1433    1.0000 </r>
       <r>   -7.0683    1.0000 </r>
       <r>   -6.9609    1.0000 </r>
       <r>   -6.9167    1.0000 </r>
       <r>   -6.8586    1.0000 </r>
       <r>   -6.8352    1.0000 </r>
       <r>   -6.7160    1.0000 </r>
       <r>   -6.6224    1.0000 </r>
       <r>   -6.5677    1.0000 </r>
       <r>   -6.5290    1.0000 </r>
       <r>   -6.4071    1.0000 </r>
       <r>   -6.3248    1.0000 </r>
       <r>   -6.2192    1.0000 </r>
       <r>   -6.1388    1.0000 </r>
       <r>   -6.1037    1.0000 </r>
       <r>   -6.0097    1.0000 </r>
       <r>   -6.0066    1.0000 </r>
       <r>   -5.9101    1.0000 </r>
       <r>   -5.8298    1.0000 </r>
       <r>   -5.7659    1.0000 </r>
       <r>   -5.6812    1.0000 </r>
       <r>   -5.6464    1.0000 </r>
       <r>   -5.5547    1.0000 </r>
       <r>   -5.4200    1.0000 </r>
       <r>   -5.3706    1.0000 </r>
       <r>   -5.2004    1.0000 </r>
       <r>   -5.0891    1.0000 </r>
       <r>   -4.8879    1.0000 </r>
       <r>   -4.7747    1.0000 </r>
       <r>   -4.7195    1.0000 </r>
       <r>   -4.5963    1.0000 </r>
       <r>   -4.4489    1.0000 </r>
       <r>   -4.3566    1.0000 </r>
       <r>   -4.1999    1.0000 </r>
       <r>   -4.1036    1.0000 </r>
       <r>   -3.9949    1.0000 </r>
       <r>   -3.8438    0.9999 </r>
       <r>   -3.6769    0.9955 </r>
       <r>   -3.3981    0.7393 </r>
       <r>   -3.1934    0.2100 </r>
       <r>   -3.0179    0.0203 </r>
       <r>   -2.9533    0.0061 </r>
       <r>   -2.7463    0.0000 </r>
       <r>   -2.7104    0.0000 </r>
       <r>   -2.5107    0.0000 </r>
       <r>   -2.4672    0.0000 </r>
       <r>   -2.1158    0.0000 </r>
       <r>   -2.0520    0.0000 </r>
       <r>   -2.0278    0.0000 </r>
       <r>   -1.8855    0.0000 </r>
       <r>   -1.8167    0.0000 </r>
       <r>   -1.6712    0.0000 </r>
       <r>   -1.5014    0.0000 </r>
       <r>   -1.4453    0.0000 </r>
       <r>   -1.2585    0.0000 </r>
       <r>   -1.1351    0.0000 </r>
       <r>   -1.1179    0.0000 </r>
       <r>   -1.0652    0.0000 </r>
       <r>   -0.9045    0.0000 </r>
       <r>   -0.8487    0.0000 </r>
       <r>   -0.8192    0.0000 </r>
       <r>   -0.7265    0.0000 </r>
       <r>   -0.6590    0.0000 </r>
       <r>   -0.6078    0.0000 </r>
       <r>   -0.5187    0.0000 </r>
       <r>   -0.3765    0.0000 </r>
       <r>   -0.2890    0.0000 </r>
       <r>   -0.1458    0.0000 </r>
       <r>   -0.0310    0.0000 </r>
       <r>    0.1913    0.0000 </r>
       <r>    0.3594    0.0000 </r>
       <r>    0.6324    0.0000 </r>
       <r>    0.8510    0.0000 </r>
       <r>    0.9932    0.0000 </r>
       <r>    1.1867    0.0000 </r>
       <r>    1.2699    0.0000 </r>
       <r>    1.3342    0.0000 </r>
       <r>    2.1379    0.0000 </r>
       <r>    2.2906    0.0000 </r>
       <r>    2.3993    0.0000 </r>
      </set>
      <set comment="kpoint 32">
       <r>  -17.5314    1.0000 </r>
       <r>  -17.1246    1.0000 </r>
       <r>  -17.0923    1.0000 </r>
       <r>  -16.5920    1.0000 </r>
       <r>  -16.4749    1.0000 </r>
       <r>  -16.3729    1.0000 </r>
       <r>  -16.2722    1.0000 </r>
       <r>  -16.2250    1.0000 </r>
       <r>  -16.1421    1.0000 </r>
       <r>  -16.0505    1.0000 </r>
       <r>  -15.9496    1.0000 </r>
       <r>  -15.8626    1.0000 </r>
       <r>  -15.7623    1.0000 </r>
       <r>  -15.7166    1.0000 </r>
       <r>  -15.6107    1.0000 </r>
       <r>  -15.5151    1.0000 </r>
       <r>  -15.4346    1.0000 </r>
       <r>  -15.3033    1.0000 </r>
       <r>   -9.6639    1.0000 </r>
       <r>   -9.5649    1.0000 </r>
       <r>   -9.3925    1.0000 </r>
       <r>   -8.9866    1.0000 </r>
       <r>   -8.7306    1.0000 </r>
       <r>   -8.6103    1.0000 </r>
       <r>   -8.5128    1.0000 </r>
       <r>   -8.4780    1.0000 </r>
       <r>   -8.3951    1.0000 </r>
       <r>   -8.3404    1.0000 </r>
       <r>   -8.2985    1.0000 </r>
       <r>   -8.1982    1.0000 </r>
       <r>   -8.1725    1.0000 </r>
       <r>   -8.0671    1.0000 </r>
       <r>   -8.0488    1.0000 </r>
       <r>   -7.9713    1.0000 </r>
       <r>   -7.8331    1.0000 </r>
       <r>   -7.7143    1.0000 </r>
       <r>   -7.5377    1.0000 </r>
       <r>   -7.4254    1.0000 </r>
       <r>   -7.3558    1.0000 </r>
       <r>   -7.2809    1.0000 </r>
       <r>   -7.1606    1.0000 </r>
       <r>   -7.0951    1.0000 </r>
       <r>   -7.0026    1.0000 </r>
       <r>   -6.9139    1.0000 </r>
       <r>   -6.8722    1.0000 </r>
       <r>   -6.8381    1.0000 </r>
       <r>   -6.6927    1.0000 </r>
       <r>   -6.5814    1.0000 </r>
       <r>   -6.5358    1.0000 </r>
       <r>   -6.5099    1.0000 </r>
       <r>   -6.4474    1.0000 </r>
       <r>   -6.3170    1.0000 </r>
       <r>   -6.2612    1.0000 </r>
       <r>   -6.1983    1.0000 </r>
       <r>   -6.1103    1.0000 </r>
       <r>   -6.0345    1.0000 </r>
       <r>   -5.9501    1.0000 </r>
       <r>   -5.8561    1.0000 </r>
       <r>   -5.8295    1.0000 </r>
       <r>   -5.7581    1.0000 </r>
       <r>   -5.6943    1.0000 </r>
       <r>   -5.5614    1.0000 </r>
       <r>   -5.5379    1.0000 </r>
       <r>   -5.4563    1.0000 </r>
       <r>   -5.3047    1.0000 </r>
       <r>   -5.2400    1.0000 </r>
       <r>   -5.0725    1.0000 </r>
       <r>   -5.0061    1.0000 </r>
       <r>   -4.8078    1.0000 </r>
       <r>   -4.6645    1.0000 </r>
       <r>   -4.6012    1.0000 </r>
       <r>   -4.4315    1.0000 </r>
       <r>   -4.3296    1.0000 </r>
       <r>   -4.2183    1.0000 </r>
       <r>   -4.1600    1.0000 </r>
       <r>   -4.0360    1.0000 </r>
       <r>   -3.8929    1.0000 </r>
       <r>   -3.6041    0.9820 </r>
       <r>   -3.4654    0.8680 </r>
       <r>   -3.2237    0.2768 </r>
       <r>   -2.9611    0.0072 </r>
       <r>   -2.9237    0.0033 </r>
       <r>   -2.6823    0.0000 </r>
       <r>   -2.6338    0.0000 </r>
       <r>   -2.4801    0.0000 </r>
       <r>   -2.4424    0.0000 </r>
       <r>   -2.1213    0.0000 </r>
       <r>   -2.0704    0.0000 </r>
       <r>   -2.0145    0.0000 </r>
       <r>   -1.9305    0.0000 </r>
       <r>   -1.7798    0.0000 </r>
       <r>   -1.6809    0.0000 </r>
       <r>   -1.5648    0.0000 </r>
       <r>   -1.4243    0.0000 </r>
       <r>   -1.2851    0.0000 </r>
       <r>   -1.1506    0.0000 </r>
       <r>   -1.0963    0.0000 </r>
       <r>   -1.0212    0.0000 </r>
       <r>   -0.9715    0.0000 </r>
       <r>   -0.8968    0.0000 </r>
       <r>   -0.8197    0.0000 </r>
       <r>   -0.7074    0.0000 </r>
       <r>   -0.6353    0.0000 </r>
       <r>   -0.6110    0.0000 </r>
       <r>   -0.4826    0.0000 </r>
       <r>   -0.3803    0.0000 </r>
       <r>   -0.2825    0.0000 </r>
       <r>   -0.1071    0.0000 </r>
       <r>   -0.0185    0.0000 </r>
       <r>    0.1820    0.0000 </r>
       <r>    0.4218    0.0000 </r>
       <r>    0.6199    0.0000 </r>
       <r>    0.8211    0.0000 </r>
       <r>    0.9208    0.0000 </r>
       <r>    1.1934    0.0000 </r>
       <r>    1.2329    0.0000 </r>
       <r>    1.2970    0.0000 </r>
       <r>    2.0999    0.0000 </r>
       <r>    2.2652    0.0000 </r>
       <r>    2.5610    0.0000 </r>
      </set>
      <set comment="kpoint 33">
       <r>  -17.5235    1.0000 </r>
       <r>  -17.2402    1.0000 </r>
       <r>  -16.9318    1.0000 </r>
       <r>  -16.6026    1.0000 </r>
       <r>  -16.5308    1.0000 </r>
       <r>  -16.4056    1.0000 </r>
       <r>  -16.2624    1.0000 </r>
       <r>  -16.2312    1.0000 </r>
       <r>  -16.1154    1.0000 </r>
       <r>  -16.0283    1.0000 </r>
       <r>  -15.9256    1.0000 </r>
       <r>  -15.8520    1.0000 </r>
       <r>  -15.7760    1.0000 </r>
       <r>  -15.7258    1.0000 </r>
       <r>  -15.6363    1.0000 </r>
       <r>  -15.5082    1.0000 </r>
       <r>  -15.4418    1.0000 </r>
       <r>  -15.2978    1.0000 </r>
       <r>   -9.7238    1.0000 </r>
       <r>   -9.4131    1.0000 </r>
       <r>   -9.3446    1.0000 </r>
       <r>   -9.0320    1.0000 </r>
       <r>   -8.8483    1.0000 </r>
       <r>   -8.7674    1.0000 </r>
       <r>   -8.4836    1.0000 </r>
       <r>   -8.4532    1.0000 </r>
       <r>   -8.3754    1.0000 </r>
       <r>   -8.3205    1.0000 </r>
       <r>   -8.3003    1.0000 </r>
       <r>   -8.1912    1.0000 </r>
       <r>   -8.1580    1.0000 </r>
       <r>   -8.0638    1.0000 </r>
       <r>   -8.0339    1.0000 </r>
       <r>   -7.9057    1.0000 </r>
       <r>   -7.7790    1.0000 </r>
       <r>   -7.7211    1.0000 </r>
       <r>   -7.6121    1.0000 </r>
       <r>   -7.4458    1.0000 </r>
       <r>   -7.3233    1.0000 </r>
       <r>   -7.2289    1.0000 </r>
       <r>   -7.1052    1.0000 </r>
       <r>   -7.0883    1.0000 </r>
       <r>   -6.9712    1.0000 </r>
       <r>   -6.9593    1.0000 </r>
       <r>   -6.8980    1.0000 </r>
       <r>   -6.8254    1.0000 </r>
       <r>   -6.7011    1.0000 </r>
       <r>   -6.5886    1.0000 </r>
       <r>   -6.5408    1.0000 </r>
       <r>   -6.4927    1.0000 </r>
       <r>   -6.4372    1.0000 </r>
       <r>   -6.3223    1.0000 </r>
       <r>   -6.2733    1.0000 </r>
       <r>   -6.2012    1.0000 </r>
       <r>   -6.1090    1.0000 </r>
       <r>   -6.0280    1.0000 </r>
       <r>   -6.0117    1.0000 </r>
       <r>   -5.9273    1.0000 </r>
       <r>   -5.8748    1.0000 </r>
       <r>   -5.8312    1.0000 </r>
       <r>   -5.7057    1.0000 </r>
       <r>   -5.6492    1.0000 </r>
       <r>   -5.5127    1.0000 </r>
       <r>   -5.4348    1.0000 </r>
       <r>   -5.2689    1.0000 </r>
       <r>   -5.1254    1.0000 </r>
       <r>   -5.0796    1.0000 </r>
       <r>   -4.9183    1.0000 </r>
       <r>   -4.7878    1.0000 </r>
       <r>   -4.6382    1.0000 </r>
       <r>   -4.5411    1.0000 </r>
       <r>   -4.4204    1.0000 </r>
       <r>   -4.3445    1.0000 </r>
       <r>   -4.2847    1.0000 </r>
       <r>   -4.1819    1.0000 </r>
       <r>   -4.0440    1.0000 </r>
       <r>   -3.9382    1.0000 </r>
       <r>   -3.6617    0.9939 </r>
       <r>   -3.4629    0.8641 </r>
       <r>   -3.2986    0.4750 </r>
       <r>   -2.9442    0.0051 </r>
       <r>   -2.8630    0.0008 </r>
       <r>   -2.6434    0.0000 </r>
       <r>   -2.5268    0.0000 </r>
       <r>   -2.4459    0.0000 </r>
       <r>   -2.4145    0.0000 </r>
       <r>   -2.1448    0.0000 </r>
       <r>   -2.1145    0.0000 </r>
       <r>   -1.9720    0.0000 </r>
       <r>   -1.9082    0.0000 </r>
       <r>   -1.7519    0.0000 </r>
       <r>   -1.6884    0.0000 </r>
       <r>   -1.6362    0.0000 </r>
       <r>   -1.3951    0.0000 </r>
       <r>   -1.3109    0.0000 </r>
       <r>   -1.1770    0.0000 </r>
       <r>   -1.0985    0.0000 </r>
       <r>   -1.0304    0.0000 </r>
       <r>   -0.9808    0.0000 </r>
       <r>   -0.8988    0.0000 </r>
       <r>   -0.7893    0.0000 </r>
       <r>   -0.7324    0.0000 </r>
       <r>   -0.6643    0.0000 </r>
       <r>   -0.5788    0.0000 </r>
       <r>   -0.4947    0.0000 </r>
       <r>   -0.4483    0.0000 </r>
       <r>   -0.2424    0.0000 </r>
       <r>   -0.0628    0.0000 </r>
       <r>   -0.0127    0.0000 </r>
       <r>    0.1915    0.0000 </r>
       <r>    0.4423    0.0000 </r>
       <r>    0.6213    0.0000 </r>
       <r>    0.8004    0.0000 </r>
       <r>    0.9244    0.0000 </r>
       <r>    1.1120    0.0000 </r>
       <r>    1.2509    0.0000 </r>
       <r>    1.3288    0.0000 </r>
       <r>    2.1222    0.0000 </r>
       <r>    2.3006    0.0000 </r>
       <r>    2.3768    0.0000 </r>
      </set>
      <set comment="kpoint 34">
       <r>  -17.5102    1.0000 </r>
       <r>  -17.2962    1.0000 </r>
       <r>  -16.7759    1.0000 </r>
       <r>  -16.6797    1.0000 </r>
       <r>  -16.5924    1.0000 </r>
       <r>  -16.4119    1.0000 </r>
       <r>  -16.2606    1.0000 </r>
       <r>  -16.2540    1.0000 </r>
       <r>  -16.0726    1.0000 </r>
       <r>  -16.0351    1.0000 </r>
       <r>  -15.8666    1.0000 </r>
       <r>  -15.8502    1.0000 </r>
       <r>  -15.7857    1.0000 </r>
       <r>  -15.7273    1.0000 </r>
       <r>  -15.6716    1.0000 </r>
       <r>  -15.5006    1.0000 </r>
       <r>  -15.4468    1.0000 </r>
       <r>  -15.2991    1.0000 </r>
       <r>   -9.7590    1.0000 </r>
       <r>   -9.2637    1.0000 </r>
       <r>   -9.2454    1.0000 </r>
       <r>   -9.1225    1.0000 </r>
       <r>   -8.9397    1.0000 </r>
       <r>   -8.9135    1.0000 </r>
       <r>   -8.4851    1.0000 </r>
       <r>   -8.4358    1.0000 </r>
       <r>   -8.3853    1.0000 </r>
       <r>   -8.3440    1.0000 </r>
       <r>   -8.2802    1.0000 </r>
       <r>   -8.2089    1.0000 </r>
       <r>   -8.0936    1.0000 </r>
       <r>   -8.0383    1.0000 </r>
       <r>   -7.9733    1.0000 </r>
       <r>   -7.9035    1.0000 </r>
       <r>   -7.7993    1.0000 </r>
       <r>   -7.7461    1.0000 </r>
       <r>   -7.5285    1.0000 </r>
       <r>   -7.4204    1.0000 </r>
       <r>   -7.3417    1.0000 </r>
       <r>   -7.2182    1.0000 </r>
       <r>   -7.1444    1.0000 </r>
       <r>   -7.0679    1.0000 </r>
       <r>   -7.0222    1.0000 </r>
       <r>   -6.9639    1.0000 </r>
       <r>   -6.8766    1.0000 </r>
       <r>   -6.7935    1.0000 </r>
       <r>   -6.6991    1.0000 </r>
       <r>   -6.6089    1.0000 </r>
       <r>   -6.5319    1.0000 </r>
       <r>   -6.4201    1.0000 </r>
       <r>   -6.4095    1.0000 </r>
       <r>   -6.3253    1.0000 </r>
       <r>   -6.2898    1.0000 </r>
       <r>   -6.2209    1.0000 </r>
       <r>   -6.1631    1.0000 </r>
       <r>   -6.1155    1.0000 </r>
       <r>   -6.0070    1.0000 </r>
       <r>   -5.9786    1.0000 </r>
       <r>   -5.8834    1.0000 </r>
       <r>   -5.8134    1.0000 </r>
       <r>   -5.7607    1.0000 </r>
       <r>   -5.6373    1.0000 </r>
       <r>   -5.5071    1.0000 </r>
       <r>   -5.4237    1.0000 </r>
       <r>   -5.3657    1.0000 </r>
       <r>   -5.1141    1.0000 </r>
       <r>   -4.9124    1.0000 </r>
       <r>   -4.8694    1.0000 </r>
       <r>   -4.7262    1.0000 </r>
       <r>   -4.6108    1.0000 </r>
       <r>   -4.5708    1.0000 </r>
       <r>   -4.4915    1.0000 </r>
       <r>   -4.3528    1.0000 </r>
       <r>   -4.2649    1.0000 </r>
       <r>   -4.1747    1.0000 </r>
       <r>   -4.0453    1.0000 </r>
       <r>   -3.9487    1.0000 </r>
       <r>   -3.7159    0.9981 </r>
       <r>   -3.4724    0.8783 </r>
       <r>   -3.3294    0.5615 </r>
       <r>   -2.9417    0.0049 </r>
       <r>   -2.8373    0.0004 </r>
       <r>   -2.6318    0.0000 </r>
       <r>   -2.4837    0.0000 </r>
       <r>   -2.4188    0.0000 </r>
       <r>   -2.3997    0.0000 </r>
       <r>   -2.1793    0.0000 </r>
       <r>   -2.1196    0.0000 </r>
       <r>   -1.9396    0.0000 </r>
       <r>   -1.8878    0.0000 </r>
       <r>   -1.7432    0.0000 </r>
       <r>   -1.7096    0.0000 </r>
       <r>   -1.6520    0.0000 </r>
       <r>   -1.3985    0.0000 </r>
       <r>   -1.3090    0.0000 </r>
       <r>   -1.1986    0.0000 </r>
       <r>   -1.0881    0.0000 </r>
       <r>   -1.0526    0.0000 </r>
       <r>   -0.9653    0.0000 </r>
       <r>   -0.8710    0.0000 </r>
       <r>   -0.7823    0.0000 </r>
       <r>   -0.7407    0.0000 </r>
       <r>   -0.7201    0.0000 </r>
       <r>   -0.5767    0.0000 </r>
       <r>   -0.5135    0.0000 </r>
       <r>   -0.4407    0.0000 </r>
       <r>   -0.2404    0.0000 </r>
       <r>   -0.0543    0.0000 </r>
       <r>   -0.0153    0.0000 </r>
       <r>    0.2204    0.0000 </r>
       <r>    0.4244    0.0000 </r>
       <r>    0.6282    0.0000 </r>
       <r>    0.7920    0.0000 </r>
       <r>    0.9646    0.0000 </r>
       <r>    1.0628    0.0000 </r>
       <r>    1.2629    0.0000 </r>
       <r>    1.3547    0.0000 </r>
       <r>    2.1808    0.0000 </r>
       <r>    2.2488    0.0000 </r>
       <r>    2.3844    0.0000 </r>
      </set>
     </set>
    </set>
   </array>
  </eigenvalues>
  <separator name="orbital magnetization" >
   <v name="MAGDIPOLOUT">      0.00000000      0.00000000      0.00000000</v>
  </separator>
 </calculation>
 <structure name="finalpos" >
  <crystal>
   <varray name="basis" >
    <v>       8.38733255       4.83947388       0.00000000 </v>
    <v>      -8.36144067       4.79414058       0.00000000 </v>
    <v>       0.00000000       0.00000000      30.00000000 </v>
   </varray>
   <i name="volume">   2420.25075367 </i>
   <varray name="rec_basis" >
    <v>       0.05942534       0.10364348       0.00000000 </v>
    <v>      -0.05998726       0.10396442       0.00000000 </v>
    <v>       0.00000000       0.00000000       0.03333333 </v>
   </varray>
  </crystal>
  <varray name="positions" >
   <v>       0.63226095       0.31503932       0.00005062 </v>
   <v>       0.64037998       0.65856070      -0.00013360 </v>
   <v>       0.31840685       0.34348012      -0.00085221 </v>
   <v>       0.35232406      -0.02177998       0.00148740 </v>
   <v>       1.02617570       0.34229175       0.00063821 </v>
   <v>       0.32589496       0.66463154       0.00010337 </v>
   <v>      -0.01044325       0.02877913      -0.00190286 </v>
   <v>       0.03481817       0.66287358       0.00157517 </v>
   <v>       0.65951598       0.00213326      -0.00096633 </v>
   <v>       0.11761417       0.23041885       0.94386054 </v>
   <v>       0.22268873       0.10906958       0.04385291 </v>
   <v>       0.11614397       0.55481505       0.94428689 </v>
   <v>       0.23117212       0.44541976       0.05456129 </v>
   <v>       0.11233783       0.89135640       0.95398980 </v>
   <v>       0.23135870       0.77458056       0.05800475 </v>
   <v>       0.43383758       0.21351743       0.95124614 </v>
   <v>       0.56122790       0.11647740       0.05418891 </v>
   <v>       0.44460207       0.54957843       0.94748987 </v>
   <v>       0.54475244       0.44131853       0.04874740 </v>
   <v>       0.44970645       0.88173607       0.94498529 </v>
   <v>       0.56188031       0.77903079       0.05149327 </v>
   <v>       0.77704043       0.23256095       0.95302189 </v>
   <v>       0.88804806       0.11979291       0.05352235 </v>
   <v>       0.77969910       0.55515519       0.95782603 </v>
   <v>       0.88396368       0.44301332       0.04876916 </v>
   <v>       0.77339401       0.88573780       0.94801879 </v>
   <v>       0.88941352       0.77862601       0.04213487 </v>
  </varray>
 </structure>
</modeling>
